Title
81337
    1CHL1    C3    1   0.426   1.999  10.104 -0.6995 -0.6617  0.2401
    1CHL1    H3    2   0.322   2.004  10.064  0.1375  0.4276 -1.9875
    1CHL1    O3    3   0.420   2.017  10.243 -0.0956  0.2565 -0.1131
    1CHL1   H3'    4   0.346   2.077  10.244 -1.8016 -1.7212 -0.4299
    1CHL1    C4    5   0.503   1.870  10.061  0.8167  0.0577  0.0207
    1CHL1   H4A    6   0.604   1.866  10.107  0.4635 -0.7437  0.7397
    1CHL1   H4B    7   0.447   1.787  10.108  0.6158  0.0733 -0.1888
    1CHL1    C5    8   0.505   1.863   9.909  0.6263  0.5906 -0.8230
    1CHL1    C6    9   0.449   1.760   9.836 -0.1455 -0.1921  0.1677
    1CHL1    H6   10   0.393   1.680   9.887 -0.3855  0.0727  0.3212
    1CHL1    C7   11   0.457   1.740   9.685 -0.0211 -0.0147 -1.1144
    1CHL1   H7A   12   0.503   1.643   9.654  0.5149 -0.6229  1.3143
    1CHL1   H7B   13   0.354   1.760   9.650 -2.0268 -1.2165  3.2980
    1CHL1    C8   14   0.560   1.841   9.621 -0.3058  0.7004  0.0576
    1CHL1    H8   15   0.662   1.803   9.646 -0.8342  0.1876  1.5788
    1CHL1   C14   16   0.535   1.842   9.469  0.3432  0.4080  0.4794
    1CHL1   H14   17   0.434   1.887   9.464  0.3836  0.7052  1.8363
    1CHL1   C15   18   0.528   1.714   9.390  0.1534  0.0959  0.5640
    1CHL1  H15A   19   0.614   1.652   9.425  1.8518  2.1201  0.1760
    1CHL1  H15B   20   0.429   1.668   9.409  0.1241  0.2165  0.7055
    1CHL1   C16   21   0.552   1.769   9.246 -0.1801 -0.0114 -0.3629
    1CHL1  H16A   22   0.633   1.714   9.193  0.1219  1.8339 -1.9055
    1CHL1  H16B   23   0.463   1.734   9.190  1.0752 -0.7404 -1.9787
    1CHL1   C17   24   0.579   1.921   9.256  0.4707 -0.3739  0.0424
    1CHL1   H17   25   0.477   1.958   9.236  0.0944 -1.3102  0.1694
    1CHL1   C13   26   0.625   1.947   9.399  0.6578  0.2803  0.0798
    1CHL1   C18   27   0.776   1.907   9.401  0.1343 -0.7904 -0.6575
    1CHL1  H18A   28   0.799   1.805   9.362 -0.4954 -1.8105  1.5113
    1CHL1  H18B   29   0.840   1.985   9.354 -0.7120  1.1515  1.2754
    1CHL1  H18C   30   0.808   1.911   9.507  1.0492 -0.5050 -0.9351
    1CHL1   C12   31   0.603   2.090   9.454  0.4075 -0.2067 -0.0550
    1CHL1  H12A   32   0.674   2.163   9.410 -0.0099 -0.5262 -1.2884
    1CHL1  H12B   33   0.503   2.136   9.437 -0.6180 -2.4123 -0.4142
    1CHL1   C11   34   0.629   2.085   9.610  0.5165 -0.1854 -0.1604
    1CHL1  H11A   35   0.737   2.063   9.625  0.1494 -0.5002  2.4573
    1CHL1  H11B   36   0.610   2.187   9.650 -2.1894 -0.7770  0.2001
    1CHL1    C9   37   0.547   1.978   9.689  0.6298 -0.5231  0.6727
    1CHL1    H9   38   0.440   2.004   9.675  0.1856 -2.8571 -0.9503
    1CHL1   C10   39   0.571   1.976   9.838  0.2881 -0.5044 -0.4529
    1CHL1   C19   40   0.725   1.961   9.875  0.0122  0.1209  0.4427
    1CHL1  H19A   41   0.785   2.041   9.827  0.1205  1.3990  2.6220
    1CHL1  H19B   42   0.736   1.961   9.985 -0.4849 -2.7079  0.5785
    1CHL1  H19C   43   0.759   1.863   9.834  0.2030 -0.0240  0.9424
    1CHL1    C1   44   0.510   2.109   9.898  0.1322  0.4750  0.2231
    1CHL1   H1A   45   0.574   2.190   9.857  1.0859  0.2857  1.2857
    1CHL1   H1B   46   0.407   2.120   9.858 -0.4812  0.3074  1.7156
    1CHL1    C2   47   0.506   2.121  10.048  0.2054 -0.0075  0.2855
    1CHL1   H2A   48   0.453   2.214  10.077 -4.0584 -1.2753 -2.5421
    1CHL1   H2B   49   0.613   2.119  10.078  0.6023  0.9967 -0.9536
    1CHL1   C20   50   0.667   1.981   9.138 -0.0373  0.0933 -0.3332
    1CHL1   H20   51   0.772   1.947   9.147  0.0593  0.4957  0.1242
    1CHL1   C21   52   0.651   2.134   9.139  0.3497 -0.6583 -0.1588
    1CHL1  H21A   53   0.550   2.159   9.179 -0.4279 -4.1395  0.3471
    1CHL1  H21B   54   0.670   2.176   9.038  1.4570  0.1111  0.3548
    1CHL1  H21C   55   0.728   2.183   9.203 -0.1539  2.7918 -1.9564
    1CHL1   C22   56   0.617   1.933   8.993 -0.1095 -0.2349 -0.7463
    1CHL1  H22A   57   0.579   1.829   8.987  1.1391 -0.6487 -2.0303
    1CHL1  H22B   58   0.529   1.997   8.968 -0.3104  0.2696  1.0543
    1CHL1   C23   59   0.729   1.947   8.892 -0.4168 -0.1840 -0.0296
    1CHL1  H23A   60   0.786   2.039   8.915 -0.7626 -0.1998  0.8966
    1CHL1  H23B   61   0.785   1.851   8.897  1.8812  1.0528 -0.7351
    1CHL1   C24   62   0.682   1.949   8.748 -0.3546  0.2887 -0.1140
    1CHL1  H24A   63   0.599   1.880   8.721 -0.3672  0.5638 -0.7952
    1CHL1  H24B   64   0.638   2.051   8.743  1.5304  1.1915  0.6003
    1CHL1   C25   65   0.788   1.942   8.644  0.4500 -0.7481 -0.2898
    1CHL1   H25   66   0.829   1.839   8.643 -3.1765 -2.3789  1.0333
    1CHL1   C26   67   0.736   1.975   8.500  0.3568  0.6982 -0.5269
    1CHL1  H26A   68   0.815   1.969   8.422  1.2861 -0.0794  0.4336
    1CHL1  H26B   69   0.665   1.893   8.476  1.8321 -2.0490  3.5025
    1CHL1  H26C   70   0.692   2.076   8.504  3.1479  1.9532  1.0561
    1CHL1   C27   71   0.898   2.045   8.676  0.2625  0.3397 -0.3295
    1CHL1  H27A   72   0.927   2.043   8.783  1.4968 -1.0685 -0.6424
    1CHL1  H27B   73   0.989   2.019   8.617 -0.2058 -0.1778 -0.8420
    1CHL1  H27C   74   0.857   2.144   8.647 -3.8334 -0.9259  0.4779
    2CHL1    C3   75   1.215   1.832  10.063 -0.2300  0.1473  0.1279
    2CHL1    H3   76   1.138   1.752  10.053 -1.5377  1.3412  0.4326
    2CHL1    O3   77   1.221   1.850  10.200  0.1186  0.4559  0.0683
    2CHL1   H3'   78   1.278   1.922  10.228  0.0643  0.0805  1.1818
    2CHL1    C4   79   1.348   1.787  10.003  0.4641  0.0106 -0.4810
    2CHL1   H4A   80   1.430   1.859  10.028 -2.1730  2.3473  2.1689
    2CHL1   H4B   81   1.379   1.691  10.049  1.7833  0.8883  0.5548
    2CHL1    C5   82   1.329   1.766   9.858  0.3110 -0.0310 -0.1325
    2CHL1    C6   83   1.366   1.648   9.797  0.3436  0.2450 -0.2088
    2CHL1    H6   84   1.418   1.573   9.858 -0.9914 -0.1065  0.5196
    2CHL1    C7   85   1.365   1.620   9.650  0.0236 -0.3073 -0.1588
    2CHL1   H7A   86   1.466   1.584   9.621  0.5056  0.2029  0.8222
    2CHL1   H7B   87   1.288   1.542   9.636  0.3547 -1.2259  2.5258
    2CHL1    C8   88   1.330   1.746   9.563  0.8553  0.0165 -0.2023
    2CHL1    H8   89   1.427   1.799   9.550  0.2977  0.9889 -0.5620
    2CHL1   C14   90   1.277   1.704   9.426  0.3232 -0.9290 -0.2158
    2CHL1   H14   91   1.184   1.646   9.443 -0.4994  0.5106  0.4535
    2CHL1   C15   92   1.363   1.609   9.333  0.3907 -0.6399  0.4360
    2CHL1  H15A   93   1.473   1.613   9.349  0.3602 -2.6196  1.4548
    2CHL1  H15B   94   1.334   1.505   9.358  2.0177 -1.4477 -0.8860
    2CHL1   C16   95   1.302   1.638   9.193 -0.4079 -0.9538  0.8250
    2CHL1  H16A   96   1.385   1.664   9.124 -2.1105  1.4508 -0.4371
    2CHL1  H16B   97   1.240   1.552   9.159  0.0298 -0.5743 -1.0088
    2CHL1   C17   98   1.207   1.759   9.205 -0.0014  0.7554  0.4559
    2CHL1   H17   99   1.103   1.722   9.208  0.5719 -0.9198  0.7717
    2CHL1   C13  100   1.242   1.826   9.343  0.8272  0.4997  0.4264
    2CHL1   C18  101   1.371   1.906   9.323 -0.1910 -0.3810  0.2199
    2CHL1  H18A  102   1.353   2.000   9.266  2.1402  0.6819  1.1075
    2CHL1  H18B  103   1.437   1.936   9.407 -0.9716  2.3612 -0.0350
    2CHL1  H18C  104   1.444   1.853   9.259  0.6774  1.7937 -0.6738
    2CHL1   C12  105   1.124   1.900   9.414 -0.5477 -0.5476  0.2965
    2CHL1  H12A  106   1.086   1.985   9.354 -0.5827 -0.0843  0.9628
    2CHL1  H12B  107   1.043   1.824   9.415 -2.1875  1.0948 -1.5279
    2CHL1   C11  108   1.170   1.954   9.548  0.6450 -0.5845  0.0902
    2CHL1  H11A  109   1.246   2.035   9.535  0.3184 -0.0840  1.1779
    2CHL1  H11B  110   1.080   1.999   9.594  0.1465  0.1682 -1.5524
    2CHL1    C9  111   1.229   1.841   9.635 -0.2381 -0.5102 -0.3406
    2CHL1    H9  112   1.143   1.777   9.666 -0.0902  0.1554  1.5813
    2CHL1   C10  113   1.278   1.888   9.776 -0.1803 -0.5544 -0.3055
    2CHL1   C19  114   1.399   1.989   9.768 -0.3590 -0.2554 -0.0993
    2CHL1  H19A  115   1.373   2.077   9.706  0.2178 -1.1349 -1.6299
    2CHL1  H19B  116   1.420   2.025   9.871 -0.8073 -0.5712  0.1080
    2CHL1  H19C  117   1.492   1.947   9.724 -0.4740  1.9349 -2.6512
    2CHL1    C1  118   1.156   1.954   9.851 -0.2919 -0.3763 -0.1022
    2CHL1   H1A  119   1.134   2.056   9.811  0.6074  0.2106  0.8421
    2CHL1   H1B  120   1.065   1.893   9.833  0.2276 -1.0408 -0.5027
    2CHL1    C2  121   1.162   1.960  10.000  0.7159 -0.3570 -0.2094
    2CHL1   H2A  122   1.061   1.979  10.044  0.9822  0.2164  0.1708
    2CHL1   H2B  123   1.236   2.039  10.026  1.8585 -1.4253 -0.1484
    2CHL1   C20  124   1.207   1.849   9.076  0.1535  0.5802 -0.2408
    2CHL1   H20  125   1.313   1.881   9.060  1.6660 -3.4138  0.5847
    2CHL1   C21  126   1.111   1.961   9.088 -0.0615  0.1951  0.1491
    2CHL1  H21A  127   1.145   2.048   9.149 -1.6046 -0.4634  2.0316
    2CHL1  H21B  128   1.012   1.929   9.124  0.1711 -2.2556 -1.2150
    2CHL1  H21C  129   1.085   1.988   8.983  0.0645  1.5631  0.4468
    2CHL1   C22  130   1.181   1.771   8.947  0.0460  0.8452  0.9866
    2CHL1  H22A  131   1.231   1.672   8.942 -1.5243  0.0819 -0.4341
    2CHL1  H22B  132   1.071   1.753   8.946  0.2852 -1.0448 -1.7914
    2CHL1   C23  133   1.220   1.841   8.815  0.7626  0.5856 -0.2825
    2CHL1  H23A  134   1.146   1.922   8.799 -0.0264 -0.3792 -1.8180
    2CHL1  H23B  135   1.322   1.885   8.826  0.6950  0.5601  0.5313
    2CHL1   C24  136   1.213   1.745   8.702  0.3683 -0.1674  0.0289
    2CHL1  H24A  137   1.257   1.647   8.730  1.8483 -0.5020 -3.0339
    2CHL1  H24B  138   1.106   1.731   8.675  0.5309  0.9204 -1.2838
    2CHL1   C25  139   1.288   1.793   8.580  0.3914 -0.4979 -0.3571
    2CHL1   H25  140   1.387   1.838   8.604 -0.5833  2.4377 -1.3676
    2CHL1   C26  141   1.330   1.679   8.492  0.5413  0.1203  0.4847
    2CHL1  H26A  142   1.394   1.608   8.549  0.1724 -0.2220  0.4717
    2CHL1  H26B  143   1.246   1.615   8.459  0.9414  0.1402 -0.6252
    2CHL1  H26C  144   1.379   1.722   8.401  0.0899  0.2247  0.2901
    2CHL1   C27  145   1.207   1.905   8.501  0.3239 -0.2364  0.4376
    2CHL1  H27A  146   1.133   1.848   8.442  0.8109 -1.0727  0.6168
    2CHL1  H27B  147   1.184   1.994   8.563  0.0380 -0.9524  1.3923
    2CHL1  H27C  148   1.283   1.944   8.430 -0.0641 -0.6836 -0.2273
    3CHL1    C3  149   2.811   0.445  10.250 -0.4132  0.0492 -0.1931
    3CHL1    H3  150   2.718   0.506  10.254  0.1598  0.9196  0.3658
    3CHL1    O3  151   2.851   0.400  10.379  0.4987 -0.2232  0.2786
    3CHL1   H3'  152   2.771   0.360  10.415 -0.2076  1.6444  0.9131
    3CHL1    C4  153   2.768   0.321  10.160  0.2005  0.2605 -0.1853
    3CHL1   H4A  154   2.844   0.240  10.164 -2.2720 -2.1568  0.9028
    3CHL1   H4B  155   2.671   0.290  10.205  0.0345 -1.1311 -1.4314
    3CHL1    C5  156   2.739   0.355  10.015  0.1813 -0.2480 -0.2888
    3CHL1    C6  157   2.619   0.332   9.955 -0.6999  0.1893  0.3105
    3CHL1    H6  158   2.536   0.285  10.009 -0.3649  0.1520  0.8040
    3CHL1    C7  159   2.595   0.379   9.811  0.0422  0.9298 -0.6093
    3CHL1   H7A  160   2.538   0.299   9.760 -2.1301  0.6711  1.9465
    3CHL1   H7B  161   2.535   0.473   9.811  0.0494  0.9601 -2.5777
    3CHL1    C8  162   2.735   0.397   9.736  0.0539  0.8375 -0.8958
    3CHL1    H8  163   2.787   0.299   9.727  0.3688  0.9767 -0.5955
    3CHL1   C14  164   2.712   0.439   9.595  0.0723  0.3843 -0.5772
    3CHL1   H14  165   2.663   0.538   9.608  1.5702  1.0156  0.6125
    3CHL1   C15  166   2.616   0.364   9.506  0.2553 -0.2200 -0.4617
    3CHL1  H15A  167   2.651   0.260   9.488  1.8045  0.2076 -0.0510
    3CHL1  H15B  168   2.513   0.362   9.547  0.7875 -1.0567  0.8771
    3CHL1   C16  169   2.621   0.444   9.379  0.2598 -0.3691  0.0373
    3CHL1  H16A  170   2.603   0.384   9.288 -1.2317  2.0846 -1.3940
    3CHL1  H16B  171   2.543   0.522   9.392  1.5561  1.0321 -0.3538
    3CHL1   C17  172   2.761   0.517   9.373  0.0540  0.2316 -0.0314
    3CHL1   H17  173   2.742   0.627   9.381  0.8654  0.3276  0.7786
    3CHL1   C13  174   2.834   0.477   9.505  0.2752  0.4680 -0.2546
    3CHL1   C18  175   2.913   0.338   9.490  0.4744  0.3838 -0.8220
    3CHL1  H18A  176   3.011   0.362   9.444  0.2771 -0.6335 -1.8410
    3CHL1  H18B  177   2.936   0.280   9.582  2.6892  2.6053  0.1292
    3CHL1  H18C  178   2.849   0.266   9.434  1.2565 -1.0456  0.0521
    3CHL1   C12  179   2.909   0.588   9.585  1.3262 -0.5839 -0.3108
    3CHL1  H12A  180   2.998   0.631   9.535  1.5832  1.1506  1.5108
    3CHL1  H12B  181   2.846   0.676   9.608 -0.0860 -1.0456 -2.1972
    3CHL1   C11  182   2.947   0.542   9.727  0.4509 -0.1374 -0.1915
    3CHL1  H11A  183   3.023   0.461   9.718  0.0417 -0.3165 -2.8030
    3CHL1  H11B  184   2.996   0.628   9.777 -0.6619  0.5580 -0.2775
    3CHL1    C9  185   2.825   0.489   9.812  0.1541  0.6498 -0.8657
    3CHL1    H9  186   2.757   0.577   9.816  0.1620  0.6260 -0.1318
    3CHL1   C10  187   2.862   0.435   9.956 -0.2773  0.3990  0.7330
    3CHL1   C19  188   2.992   0.354   9.947  0.0347  0.5137 -0.1267
    3CHL1  H19A  189   3.074   0.425   9.922 -0.0311  1.3138  1.7785
    3CHL1  H19B  190   3.014   0.313  10.048 -2.6062 -0.0195  0.2903
    3CHL1  H19C  191   2.987   0.278   9.866  1.9519 -1.4636  1.4896
    3CHL1    C1  192   2.893   0.560  10.043  0.7877 -0.7879  0.4707
    3CHL1   H1A  193   2.972   0.623   9.997 -2.3154  1.8876 -1.6235
    3CHL1   H1B  194   2.800   0.618  10.026 -0.0892 -2.2688  0.0698
    3CHL1    C2  195   2.921   0.529  10.191  0.0529  0.6548  0.1391
    3CHL1   H2A  196   2.934   0.624  10.248  3.6875  0.5266 -0.2170
    3CHL1   H2B  197   3.013   0.467  10.189 -0.3464  0.0639 -1.1994
    3CHL1   C20  198   2.836   0.479   9.244 -0.8554 -0.6211 -0.3542
    3CHL1   H20  199   2.854   0.370   9.242  0.8199 -0.5023  2.6917
    3CHL1   C21  200   2.977   0.544   9.234 -0.3136 -0.5696  0.6568
    3CHL1  H21A  201   3.051   0.500   9.164 -0.8758 -1.4632  0.5976
    3CHL1  H21B  202   3.025   0.544   9.334 -1.6224  0.5332  1.3141
    3CHL1  H21C  203   2.966   0.646   9.192  2.4965 -1.4892 -2.7915
    3CHL1   C22  204   2.764   0.516   9.112 -0.1243 -0.2303 -0.4909
    3CHL1  H22A  205   2.658   0.488   9.132 -0.2133 -0.6023 -1.4459
    3CHL1  H22B  206   2.762   0.627   9.107 -2.6280 -0.2181 -0.4248
    3CHL1   C23  207   2.819   0.457   8.986 -0.6791 -0.1974 -0.3616
    3CHL1  H23A  208   2.929   0.447   8.992 -0.6138  0.8934  0.4098
    3CHL1  H23B  209   2.786   0.351   8.973 -2.0774  0.3989 -2.1580
    3CHL1   C24  210   2.810   0.552   8.867  0.7270  0.2049 -0.0379
    3CHL1  H24A  211   2.703   0.557   8.837  0.4692 -0.3968  0.7416
    3CHL1  H24B  212   2.838   0.655   8.896 -1.5989  0.7207  0.6564
    3CHL1   C25  213   2.901   0.509   8.736  0.1983 -0.7613 -0.8475
    3CHL1   H25  214   2.867   0.406   8.710 -0.8052 -0.2023 -1.7964
    3CHL1   C26  215   2.884   0.597   8.614 -0.2110 -0.1730  0.6561
    3CHL1  H26A  216   2.925   0.698   8.632 -1.3279  0.6960 -1.3566
    3CHL1  H26B  217   2.938   0.563   8.523  0.1104  1.4094  0.2186
    3CHL1  H26C  218   2.776   0.607   8.591 -0.1339 -2.7997 -1.3026
    3CHL1   C27  219   3.053   0.498   8.775  0.5363 -0.2850 -0.5949
    3CHL1  H27A  220   3.075   0.418   8.850 -0.7562  0.3217  0.4596
    3CHL1  H27B  221   3.103   0.472   8.679 -1.2636 -1.3565 -1.3019
    3CHL1  H27C  222   3.097   0.591   8.816  0.0000 -0.3145  0.0526
    4CHL1    C3  223   4.825   3.181  10.361 -0.4985  0.6068 -0.0537
    4CHL1    H3  224   4.892   3.268  10.345  1.0787 -0.6604 -0.5241
    4CHL1    O3  225   4.853   3.130  10.493  0.9371  0.5136  0.1287
    4CHL1   H3'  226   4.795   3.053  10.498  0.7928  0.5722 -0.6285
    4CHL1    C4  227   4.673   3.207  10.345  0.7733  0.4025 -0.3539
    4CHL1   H4A  228   4.617   3.115  10.374  2.1247 -0.3154  0.0708
    4CHL1   H4B  229   4.648   3.282  10.424 -1.1544 -0.9249  0.3808
    4CHL1    C5  230   4.630   3.247  10.202 -0.2984 -0.5846 -0.2201
    4CHL1    C6  231   4.558   3.358  10.185 -0.2133 -0.3839 -0.0879
    4CHL1    H6  232   4.527   3.420  10.270  2.6941 -1.0202  1.5894
    4CHL1    C7  233   4.504   3.397  10.052 -0.1683  0.3079 -0.1487
    4CHL1   H7A  234   4.393   3.405  10.057 -0.5377 -2.4490 -1.8724
    4CHL1   H7B  235   4.552   3.490  10.013  1.6601 -1.2610 -1.8171
    4CHL1    C8  236   4.539   3.292   9.938 -0.0572 -0.1710  0.4144
    4CHL1    H8  237   4.473   3.204   9.955  1.8442 -1.4238  1.7544
    4CHL1   C14  238   4.524   3.354   9.805  0.0901  0.4293  0.4882
    4CHL1   H14  239   4.606   3.429   9.808  0.1366  0.4186 -0.3100
    4CHL1   C15  240   4.395   3.425   9.774 -0.1437  0.3055  0.6218
    4CHL1  H15A  241   4.312   3.353   9.790 -2.0191  1.6700 -2.0592
    4CHL1  H15B  242   4.382   3.521   9.829 -1.3204  0.6440 -0.1870
    4CHL1   C16  243   4.397   3.442   9.620 -0.4363 -0.2522 -0.0187
    4CHL1  H16A  244   4.305   3.398   9.577 -1.6645  2.1276  0.0554
    4CHL1  H16B  245   4.415   3.541   9.572  1.0379 -1.1142 -1.3571
    4CHL1   C17  246   4.516   3.354   9.563 -0.2836  0.9472 -0.1221
    4CHL1   H17  247   4.603   3.422   9.553  1.2143 -1.0859 -1.6305
    4CHL1   C13  248   4.559   3.263   9.683  0.6355  0.5558  0.1762
    4CHL1   C18  249   4.466   3.140   9.681 -0.3479  0.0412  0.2876
    4CHL1  H18A  250   4.363   3.171   9.652 -0.7058 -0.5300  0.9143
    4CHL1  H18B  251   4.513   3.073   9.606  2.2180  0.0461  1.8021
    4CHL1  H18C  252   4.450   3.089   9.778 -1.4939  0.1978  0.2009
    4CHL1   C12  253   4.701   3.214   9.704 -0.0185 -0.2397 -1.1376
    4CHL1  H12A  254   4.740   3.142   9.629  1.9555  1.0936 -1.4740
    4CHL1  H12B  255   4.773   3.298   9.709  2.9976 -2.5866 -1.5337
    4CHL1   C11  256   4.717   3.146   9.840 -0.0810 -0.2386  0.3870
    4CHL1  H11A  257   4.662   3.049   9.836  1.5554 -1.2503  1.3632
    4CHL1  H11B  258   4.825   3.121   9.846  0.1343  0.6423  0.3523
    4CHL1    C9  259   4.675   3.230   9.958  1.0041 -0.4919 -0.4703
    4CHL1    H9  260   4.743   3.318   9.973 -2.5206  2.1785  1.3287
    4CHL1   C10  261   4.686   3.154  10.093  0.0684 -0.1329 -0.4412
    4CHL1   C19  262   4.597   3.029  10.097  0.8655 -0.2563 -0.0793
    4CHL1  H19A  263   4.490   3.053  10.114  1.4118  0.9417  2.0342
    4CHL1  H19B  264   4.623   2.962  10.013  3.0115  2.8117 -2.0788
    4CHL1  H19C  265   4.623   2.977  10.192 -0.4799  2.0010  1.6271
    4CHL1    C1  266   4.836   3.123  10.118  0.0373 -0.1137 -0.2206
    4CHL1   H1A  267   4.862   3.048  10.040  0.8482  0.2730 -0.3299
    4CHL1   H1B  268   4.896   3.215  10.103  1.0375 -0.7747 -0.3805
    4CHL1    C2  269   4.865   3.074  10.256  0.0714  0.7729 -0.4502
    4CHL1   H2A  270   4.976   3.065  10.258  0.1049  1.2378  0.0684
    4CHL1   H2B  271   4.819   2.974  10.270  1.8939 -0.0715 -0.1969
    4CHL1   C20  272   4.497   3.275   9.431  0.1768 -0.0432  0.4596
    4CHL1   H20  273   4.437   3.182   9.438 -0.0855 -0.0569 -1.3473
    4CHL1   C21  274   4.638   3.238   9.373  0.4690  0.0604  0.3644
    4CHL1  H21A  275   4.675   3.324   9.312  0.8223 -0.2907  0.0751
    4CHL1  H21B  276   4.631   3.153   9.303  0.0002  1.4638 -1.3706
    4CHL1  H21C  277   4.715   3.208   9.448  1.5807 -0.4966 -0.9639
    4CHL1   C22  278   4.423   3.370   9.328  0.4008  0.3967  0.6091
    4CHL1  H22A  279   4.319   3.391   9.359  0.2668  0.3489  0.1919
    4CHL1  H22B  280   4.458   3.475   9.318  2.4051 -0.4710 -2.8463
    4CHL1   C23  281   4.425   3.308   9.188  0.5786 -0.6198  0.5774
    4CHL1  H23A  282   4.527   3.290   9.149  0.3634 -1.9875  0.5980
    4CHL1  H23B  283   4.371   3.211   9.196 -1.2515  0.3006  0.0343
    4CHL1   C24  284   4.349   3.391   9.093 -0.2430  0.2888  0.5033
    4CHL1  H24A  285   4.246   3.411   9.131 -0.4011 -0.4248  0.4682
    4CHL1  H24B  286   4.400   3.488   9.104 -0.6200  0.4890  0.5035
    4CHL1   C25  287   4.334   3.332   8.945  0.6924 -0.2290  0.3308
    4CHL1   H25  288   4.441   3.316   8.920  1.4671  2.7193  1.3386
    4CHL1   C26  289   4.246   3.202   8.937  0.2096 -0.0319 -0.4009
    4CHL1  H26A  290   4.235   3.156   8.836 -0.0388 -2.6985  0.7687
    4CHL1  H26B  291   4.290   3.125   9.004 -2.0786  0.5061  1.8422
    4CHL1  H26C  292   4.141   3.222   8.966  0.4995  0.0631  0.6178
    4CHL1   C27  293   4.268   3.438   8.845 -0.2518 -0.1010 -0.3369
    4CHL1  H27A  294   4.276   3.409   8.738  2.7523  0.9373 -0.5100
    4CHL1  H27B  295   4.166   3.451   8.886  0.1755 -0.2273  0.8196
    4CHL1  H27C  296   4.331   3.530   8.844  0.5990 -0.6706 -0.2309
    5CHL1    C3  297   3.896   6.754  10.221  0.2826  0.2935 -0.1622
    5CHL1    H3  298   3.989   6.811  10.240 -1.0031  2.2526  0.5650
    5CHL1    O3  299   3.840   6.712  10.347 -0.3041  0.5296  0.0858
    5CHL1   H3'  300   3.883   6.635  10.384 -2.1937 -0.9807 -0.6576
    5CHL1    C4  301   3.798   6.856  10.158  0.1061  0.3712  0.0174
    5CHL1   H4A  302   3.699   6.807  10.168  1.2136 -1.3566  4.5140
    5CHL1   H4B  303   3.791   6.946  10.223 -2.2733  1.1840 -1.2244
    5CHL1    C5  304   3.820   6.890  10.012 -0.4693  0.1143 -0.4511
    5CHL1    C6  305   3.826   7.016   9.974 -0.3851 -0.1675  0.2875
    5CHL1    H6  306   3.794   7.090  10.049 -2.2998 -1.2096  0.5580
    5CHL1    C7  307   3.838   7.069   9.833  0.5757 -0.4379 -0.2730
    5CHL1   H7A  308   3.758   7.146   9.828 -1.2463 -2.1029  1.2360
    5CHL1   H7B  309   3.939   7.114   9.830  0.6999 -0.7508 -1.0609
    5CHL1    C8  310   3.816   6.959   9.726  0.3696  0.0461  0.4043
    5CHL1    H8  311   3.708   6.934   9.720  0.3158  0.3728 -0.0409
    5CHL1   C14  312   3.889   6.998   9.598 -0.7841  0.0880  0.0557
    5CHL1   H14  313   3.996   7.014   9.621 -0.3123  1.3053 -2.6199
    5CHL1   C15  314   3.851   7.139   9.546  0.1364 -0.8100 -0.5395
    5CHL1  H15A  315   3.744   7.167   9.553  0.4367  0.2725 -0.1618
    5CHL1  H15B  316   3.901   7.225   9.594  1.2861 -1.1088 -1.1807
    5CHL1   C16  317   3.903   7.130   9.398  0.2073 -0.5747  0.4202
    5CHL1  H16A  318   3.830   7.170   9.324 -0.7559 -0.5945  1.3245
    5CHL1  H16B  319   3.992   7.196   9.390 -0.3353  0.1307  0.0395
    5CHL1   C17  320   3.939   6.978   9.369 -0.2466  0.0527  0.1541
    5CHL1   H17  321   4.048   6.962   9.383 -0.9583 -3.6171  2.7085
    5CHL1   C13  322   3.872   6.897   9.482 -0.1843 -0.1330 -0.4153
    5CHL1   C18  323   3.725   6.877   9.451 -0.3395 -0.6791  0.4807
    5CHL1  H18A  324   3.719   6.799   9.372  1.7123  3.0486 -3.8136
    5CHL1  H18B  325   3.670   6.843   9.541 -1.3813  3.8237  1.7906
    5CHL1  H18C  326   3.680   6.972   9.415  1.8077  1.1746  2.3495
    5CHL1   C12  327   3.934   6.763   9.527  0.2901 -0.7516 -0.2038
    5CHL1  H12A  328   3.929   6.683   9.450 -0.6992 -0.4137 -0.4979
    5CHL1  H12B  329   4.044   6.779   9.531  0.3021 -0.8326 -0.2000
    5CHL1   C11  330   3.885   6.719   9.662 -0.3699  0.4891 -0.2807
    5CHL1  H11A  331   3.782   6.679   9.649 -0.7102  1.3108 -0.1003
    5CHL1  H11B  332   3.955   6.635   9.684 -0.0549 -0.0232 -2.9231
    5CHL1    C9  333   3.884   6.825   9.774 -0.4515  0.1074 -0.0948
    5CHL1    H9  334   3.991   6.853   9.783 -0.3188 -0.8791  1.9820
    5CHL1   C10  335   3.840   6.776   9.919  0.1696  0.3428  0.2650
    5CHL1   C19  336   3.700   6.706   9.916  0.1068 -1.2623 -0.3092
    5CHL1  H19A  337   3.704   6.610   9.860 -0.9155 -1.5740  0.1285
    5CHL1  H19B  338   3.646   6.677  10.008 -1.2929 -0.0946 -0.7212
    5CHL1  H19C  339   3.634   6.767   9.851  0.4622 -2.2869 -1.6685
    5CHL1    C1  340   3.947   6.681   9.989  0.3082  0.9842 -0.4204
    5CHL1   H1A  341   3.964   6.590   9.927 -0.5118 -1.6039  2.8638
    5CHL1   H1B  342   4.042   6.738   9.989  2.4648 -2.3298  0.4915
    5CHL1    C2  343   3.909   6.631  10.129 -0.5026 -0.4356 -0.4251
    5CHL1   H2A  344   3.994   6.565  10.157  1.5890  0.9469 -3.0314
    5CHL1   H2B  345   3.819   6.566  10.140 -1.1409  0.2974 -1.1785
    5CHL1   C20  346   3.913   6.950   9.220  0.1169 -0.2653  0.2449
    5CHL1   H20  347   3.808   6.964   9.186  0.1457 -1.1668 -0.2490
    5CHL1   C21  348   3.930   6.803   9.187 -0.7908  0.1517 -0.4781
    5CHL1  H21A  349   3.874   6.744   9.263 -1.4398 -1.2493 -1.9759
    5CHL1  H21B  350   4.037   6.775   9.194 -0.4558  1.6466  0.8439
    5CHL1  H21C  351   3.887   6.783   9.086 -1.0370 -0.7301 -0.2106
    5CHL1   C22  352   3.996   7.044   9.120  0.0076  0.1860  0.6198
    5CHL1  H22A  353   3.990   7.151   9.151  0.2365  0.1002  0.9591
    5CHL1  H22B  354   4.101   7.008   9.124 -0.4855 -1.3634  0.0973
    5CHL1   C23  355   3.944   7.038   8.972  0.0228 -0.5739 -0.7970
    5CHL1  H23A  356   3.945   6.932   8.936 -1.0501 -1.2962  1.1216
    5CHL1  H23B  357   3.840   7.070   8.995 -0.1998 -1.6386 -0.2145
    5CHL1   C24  358   4.014   7.142   8.884 -0.3388  0.2165  0.2956
    5CHL1  H24A  359   4.003   7.240   8.936 -1.3601  0.5767 -0.5515
    5CHL1  H24B  360   4.122   7.119   8.886 -0.5892 -1.3792 -1.6125
    5CHL1   C25  361   3.960   7.152   8.737  0.1996 -0.1077  0.2333
    5CHL1   H25  362   3.985   7.055   8.690  1.4297  1.6155 -2.9125
    5CHL1   C26  363   3.816   7.172   8.723  0.4101 -0.0980  0.5831
    5CHL1  H26A  364   3.768   7.254   8.781 -0.0711 -0.2542  0.4078
    5CHL1  H26B  365   3.799   7.177   8.614  0.1674 -2.8633  0.4173
    5CHL1  H26C  366   3.763   7.078   8.749 -0.2187  0.0917 -0.0071
    5CHL1   C27  367   4.029   7.262   8.665 -0.7003 -0.0036 -0.2602
    5CHL1  H27A  368   3.986   7.270   8.563 -0.5381  0.1364 -0.3192
    5CHL1  H27B  369   4.005   7.352   8.725 -0.2072  0.1104 -0.2246
    5CHL1  H27C  370   4.135   7.228   8.655 -0.6390 -1.0591  2.8146
    6CHL1    C3  371   1.216   4.779  10.309 -0.0095  0.1174 -0.1195
    6CHL1    H3  372   1.166   4.679  10.301 -0.6156  0.4838 -1.2051
    6CHL1    O3  373   1.217   4.806  10.447  0.0892  0.1337  0.1578
    6CHL1   H3'  374   1.237   4.727  10.498 -3.0099 -0.4772  0.6938
    6CHL1    C4  375   1.352   4.780  10.254 -0.1751  0.1452  0.1681
    6CHL1   H4A  376   1.410   4.869  10.284  5.4716 -3.3094  0.8261
    6CHL1   H4B  377   1.395   4.692  10.306  0.2353  0.5450  0.5017
    6CHL1    C5  378   1.356   4.767  10.105 -0.1584 -0.5727 -0.2818
    6CHL1    C6  379   1.426   4.663  10.054 -0.0067 -0.1925 -0.1300
    6CHL1    H6  380   1.485   4.594  10.115 -2.2817 -0.5576  1.8020
    6CHL1    C7  381   1.427   4.628   9.910 -0.2803  0.1280  0.0910
    6CHL1   H7A  382   1.530   4.598   9.880  0.4167  0.2462  2.1974
    6CHL1   H7B  383   1.359   4.543   9.888  1.2303 -0.7518 -1.3942
    6CHL1    C8  384   1.371   4.745   9.827 -0.5120  0.0993  0.5068
    6CHL1    H8  385   1.452   4.820   9.832  2.2408 -2.7147  1.9495
    6CHL1   C14  386   1.362   4.703   9.675  0.1804  0.1231 -0.0559
    6CHL1   H14  387   1.290   4.619   9.676  1.0508 -0.6494  0.6343
    6CHL1   C15  388   1.487   4.650   9.613 -0.6522  0.9484  0.6905
    6CHL1  H15A  389   1.580   4.709   9.625 -0.0888  0.1674  0.2669
    6CHL1  H15B  390   1.512   4.549   9.651 -2.3891  0.0386 -0.4320
    6CHL1   C16  391   1.453   4.650   9.461 -0.2261 -0.9110 -0.2765
    6CHL1  H16A  392   1.531   4.708   9.407 -0.7049  0.9559  0.9228
    6CHL1  H16B  393   1.433   4.548   9.423 -0.6920 -1.2558  0.8443
    6CHL1   C17  394   1.321   4.739   9.444 -0.1574  0.2212 -0.0791
    6CHL1   H17  395   1.236   4.668   9.438 -0.0308  0.0300  0.3576
    6CHL1   C13  396   1.311   4.809   9.582 -0.7627 -0.1828 -0.2707
    6CHL1   C18  397   1.404   4.930   9.579 -0.1711  0.0690  0.0591
    6CHL1  H18A  398   1.500   4.909   9.528 -0.1074 -1.0219  0.6092
    6CHL1  H18B  399   1.349   5.007   9.521 -0.3171  0.7768  1.1154
    6CHL1  H18C  400   1.435   4.969   9.678 -2.4727  1.9224  0.1446
    6CHL1   C12  401   1.169   4.847   9.628 -0.0764  0.1174 -0.3429
    6CHL1  H12A  402   1.122   4.925   9.564  2.3361 -0.0443 -2.4741
    6CHL1  H12B  403   1.098   4.761   9.624 -1.6511  1.3115  0.7388
    6CHL1   C11  404   1.170   4.895   9.770  0.2926 -0.1641 -0.7112
    6CHL1  H11A  405   1.232   4.987   9.763  1.2928 -0.8169 -0.7031
    6CHL1  H11B  406   1.074   4.932   9.810  0.7120 -1.2333  1.4935
    6CHL1    C9  407   1.241   4.796   9.877  0.2242 -0.8216  0.4258
    6CHL1    H9  408   1.172   4.709   9.880  0.5856 -1.1202  0.2609
    6CHL1   C10  409   1.259   4.850  10.024  0.0060 -0.2790 -0.1051
    6CHL1   C19  410   1.317   4.989  10.022  0.0161 -0.2409  0.3553
    6CHL1  H19A  411   1.327   5.032  10.124 -2.3217 -0.8281  0.8954
    6CHL1  H19B  412   1.419   4.990   9.978  0.6436 -1.1744  1.7178
    6CHL1  H19C  413   1.250   5.057   9.964 -1.6359 -1.5291  0.6927
    6CHL1    C1  414   1.123   4.862  10.091  0.0928  0.7995 -0.3898
    6CHL1   H1A  415   1.065   4.939  10.036  3.5820  1.6085 -3.3559
    6CHL1   H1B  416   1.071   4.766  10.070  2.3778 -0.3574 -1.1054
    6CHL1    C2  417   1.127   4.886  10.242  0.0811 -0.1717  0.1020
    6CHL1   H2A  418   1.025   4.875  10.286  0.1217  1.2425  0.5998
    6CHL1   H2B  419   1.170   4.985  10.270  0.0481  0.3383 -1.5025
    6CHL1   C20  420   1.325   4.820   9.312 -0.3614 -0.1967 -0.5758
    6CHL1   H20  421   1.416   4.884   9.318 -0.7363  0.1853  2.3917
    6CHL1   C21  422   1.198   4.909   9.292 -0.3613  0.5602 -0.1372
    6CHL1  H21A  423   1.199   4.990   9.368  0.4987  1.7634 -1.3799
    6CHL1  H21B  424   1.110   4.842   9.298  0.9222 -1.2863 -0.8906
    6CHL1  H21C  425   1.197   4.951   9.189 -0.0196  1.3026  0.1511
    6CHL1   C22  426   1.336   4.740   9.180  0.5874 -0.0538 -1.1276
    6CHL1  H22A  427   1.325   4.822   9.105 -2.4908 -0.1890 -0.9388
    6CHL1  H22B  428   1.437   4.697   9.165  0.4983 -0.4829 -0.5214
    6CHL1   C23  429   1.227   4.633   9.164  0.0722 -0.4412  0.3948
    6CHL1  H23A  430   1.248   4.539   9.221  0.2035 -0.7005 -0.0717
    6CHL1  H23B  431   1.129   4.671   9.198  0.8753  1.6574  0.5117
    6CHL1   C24  432   1.213   4.589   9.014  0.2234  0.1140  0.0218
    6CHL1  H24A  433   1.134   4.511   9.018  0.8876 -0.5198  1.2795
    6CHL1  H24B  434   1.168   4.677   8.963  0.3441  0.0705 -0.1609
    6CHL1   C25  435   1.340   4.534   8.950 -0.0045  0.5208  0.1189
    6CHL1   H25  436   1.404   4.624   8.938  0.4359  0.2346  0.3232
    6CHL1   C26  437   1.421   4.434   9.023 -0.5033 -0.0069 -0.5671
    6CHL1  H26A  438   1.488   4.383   8.950 -0.9513 -1.1090 -0.2166
    6CHL1  H26B  439   1.479   4.484   9.104  2.0414 -0.1869 -2.1463
    6CHL1  H26C  440   1.354   4.363   9.075  2.0405 -0.1812  2.8567
    6CHL1   C27  441   1.303   4.479   8.810  0.1798 -0.4971 -0.3675
    6CHL1  H27A  442   1.390   4.467   8.742  0.0411  0.0263 -0.6494
    6CHL1  H27B  443   1.256   4.379   8.822  0.5968 -0.8827 -1.8036
    6CHL1  H27C  444   1.225   4.542   8.761 -0.2842  1.1934  2.3516
    7CHL1    C3  445   3.327   1.503  10.445 -0.0739 -0.0895 -0.9799
    7CHL1    H3  446   3.303   1.610  10.428 -0.0102  0.5776  2.5504
    7CHL1    O3  447   3.325   1.481  10.591 -0.1281 -0.1789  0.5169
    7CHL1   H3'  448   3.334   1.387  10.604 -0.9984 -0.5494 -1.3112
    7CHL1    C4  449   3.220   1.413  10.377  0.0074 -0.3665  0.1334
    7CHL1   H4A  450   3.243   1.306  10.393  1.5896  0.1597  1.6453
    7CHL1   H4B  451   3.118   1.428  10.419 -1.2660  0.5262 -2.9286
    7CHL1    C5  452   3.223   1.449  10.229 -0.5516  0.3311  0.0415
    7CHL1    C6  453   3.117   1.491  10.166  0.1392  0.2315  0.0740
    7CHL1    H6  454   3.039   1.524  10.236  1.4961  0.7560  1.3885
    7CHL1    C7  455   3.107   1.507  10.013  0.0703 -0.5028 -0.2734
    7CHL1   H7A  456   3.011   1.466   9.976 -0.4331  1.0701 -0.7588
    7CHL1   H7B  457   3.087   1.613   9.987  1.3006  0.3722  2.0479
    7CHL1    C8  458   3.232   1.461   9.932  0.3704  0.4841  0.5266
    7CHL1    H8  459   3.213   1.352   9.932  1.7117  0.0886  4.6032
    7CHL1   C14  460   3.244   1.531   9.797  0.5813 -0.6563  0.0809
    7CHL1   H14  461   3.274   1.637   9.813 -1.0443 -0.3673  1.4263
    7CHL1   C15  462   3.113   1.541   9.712  0.4389  0.5348 -0.2311
    7CHL1  H15A  463   3.046   1.452   9.718  0.1615  0.7417 -0.2481
    7CHL1  H15B  464   3.051   1.625   9.749  0.8377  0.0239  1.7018
    7CHL1   C16  465   3.163   1.555   9.568  0.9181 -0.3458  0.3237
    7CHL1  H16A  466   3.123   1.474   9.504 -0.6495 -0.1061  0.9680
    7CHL1  H16B  467   3.134   1.654   9.527 -0.5872 -1.5876 -1.7608
    7CHL1   C17  468   3.324   1.553   9.572  0.0249 -0.1708 -0.3071
    7CHL1   H17  469   3.347   1.660   9.584 -2.7012  0.3399  1.3457
    7CHL1   C13  470   3.343   1.472   9.698  0.1180 -0.3624 -0.1321
    7CHL1   C18  471   3.305   1.328   9.672  0.4527  0.3118 -0.6032
    7CHL1  H18A  472   3.218   1.301   9.608  0.6775 -0.4260 -0.6101
    7CHL1  H18B  473   3.399   1.284   9.632 -0.3835 -0.6557 -1.5660
    7CHL1  H18C  474   3.290   1.264   9.762  1.0036 -2.4906 -2.3815
    7CHL1   C12  475   3.476   1.481   9.776  0.0851  0.0731 -0.7105
    7CHL1  H12A  476   3.555   1.437   9.713 -2.2939 -1.6220 -2.7157
    7CHL1  H12B  477   3.500   1.589   9.787 -2.1724  0.5562  0.2218
    7CHL1   C11  478   3.478   1.422   9.918  0.4332 -0.1058  0.3361
    7CHL1  H11A  479   3.477   1.312   9.910  1.8075 -0.1340  0.1861
    7CHL1  H11B  480   3.578   1.454   9.957  1.0910 -1.8749  0.1859
    7CHL1    C9  481   3.360   1.474  10.005  0.1499  0.0343  0.0597
    7CHL1    H9  482   3.376   1.584  10.005  3.3166 -0.3222 -0.2980
    7CHL1   C10  483   3.357   1.418  10.148  0.7888  0.1752  0.2553
    7CHL1   C19  484   3.361   1.264  10.149 -0.1204  0.1711  0.1833
    7CHL1  H19A  485   3.367   1.221  10.251  0.1924  0.6958  0.3954
    7CHL1  H19B  486   3.281   1.208  10.097  0.2537  0.2520 -0.4882
    7CHL1  H19C  487   3.446   1.223  10.091 -0.6732 -1.8002  0.7123
    7CHL1    C1  488   3.468   1.489  10.229 -0.2298  0.3211  0.9505
    7CHL1   H1A  489   3.567   1.454  10.191 -1.0369  0.2054 -1.2057
    7CHL1   H1B  490   3.463   1.598  10.207  1.1103  0.2457  0.1239
    7CHL1    C2  491   3.466   1.464  10.382 -0.9336 -0.4717  0.2453
    7CHL1   H2A  492   3.538   1.535  10.427 -1.4076 -0.8858  1.7201
    7CHL1   H2B  493   3.499   1.366  10.422 -0.7769 -0.1246  0.9873
    7CHL1   C20  494   3.392   1.507   9.442 -0.6649 -0.2483 -0.0628
    7CHL1   H20  495   3.408   1.398   9.451  0.0499 -0.2328 -1.0068
    7CHL1   C21  496   3.529   1.585   9.430 -0.1872 -0.3715 -0.5551
    7CHL1  H21A  497   3.588   1.550   9.517 -0.4381 -0.5960 -0.4717
    7CHL1  H21B  498   3.517   1.695   9.432  1.1802 -0.2214  0.0753
    7CHL1  H21C  499   3.583   1.562   9.336  1.4505 -0.2716  0.3248
    7CHL1   C22  500   3.315   1.526   9.311  0.4477 -0.1137  0.2337
    7CHL1  H22A  501   3.213   1.481   9.317  0.2249  0.4453  0.6798
    7CHL1  H22B  502   3.290   1.629   9.278 -1.6789 -0.2203  1.3423
    7CHL1   C23  503   3.382   1.454   9.188 -1.0827  0.0873 -0.1181
    7CHL1  H23A  504   3.458   1.528   9.155  1.4840 -1.8218  1.1728
    7CHL1  H23B  505   3.428   1.357   9.218 -0.3849  0.4478 -0.0217
    7CHL1   C24  506   3.277   1.435   9.083 -0.0530  0.0138  0.4091
    7CHL1  H24A  507   3.190   1.378   9.123 -1.1945  1.8644  0.7004
    7CHL1  H24B  508   3.257   1.540   9.053 -0.9198 -0.2467  0.0238
    7CHL1   C25  509   3.339   1.358   8.965 -0.1258 -0.4256 -0.4444
    7CHL1   H25  510   3.446   1.386   8.948 -0.2490  1.7379  1.7291
    7CHL1   C26  511   3.323   1.208   8.983 -0.5149  0.4195 -0.0505
    7CHL1  H26A  512   3.374   1.179   9.078 -2.2370 -0.0647  0.7740
    7CHL1  H26B  513   3.217   1.174   8.994 -0.2473 -0.9312 -1.2378
    7CHL1  H26C  514   3.366   1.135   8.912 -2.0072 -0.2643 -0.2996
    7CHL1   C27  515   3.268   1.412   8.836  0.1214  0.5848 -1.1435
    7CHL1  H27A  516   3.277   1.523   8.830  0.4033  0.7286  1.1404
    7CHL1  H27B  517   3.324   1.371   8.749  2.2197  0.0916  0.3604
    7CHL1  H27C  518   3.161   1.387   8.818  0.8309 -0.5575 -4.5342
    8CHL1    C3  519   5.198   4.946  10.520  0.2527  0.8453 -0.5114
    8CHL1    H3  520   5.088   4.931  10.533  0.3241 -1.2020 -1.7816
    8CHL1    O3  521   5.242   4.997  10.644 -0.2772  0.5120  0.5284
    8CHL1   H3'  522   5.336   4.979  10.645 -0.4694 -0.5714  0.6550
    8CHL1    C4  523   5.264   4.804  10.499 -0.4292 -0.1496 -0.6248
    8CHL1   H4A  524   5.375   4.809  10.495 -0.4255 -0.5871 -1.2253
    8CHL1   H4B  525   5.233   4.740  10.584  2.3529 -1.3355 -0.4012
    8CHL1    C5  526   5.217   4.747  10.368  0.6262 -0.2746 -0.3497
    8CHL1    C6  527   5.166   4.623  10.354  0.8249  0.0682  0.2329
    8CHL1    H6  528   5.151   4.560  10.443  0.9328  0.9072  0.8597
    8CHL1    C7  529   5.133   4.559  10.224 -0.3819  0.8563 -0.1781
    8CHL1   H7A  530   5.175   4.456  10.225  1.5658  1.6028 -1.1317
    8CHL1   H7B  531   5.024   4.562  10.202 -1.1984 -0.4159  3.0839
    8CHL1    C8  532   5.194   4.630  10.104  0.4149  0.6274  0.3553
    8CHL1    H8  533   5.302   4.602  10.094 -0.2082 -1.2985 -2.1095
    8CHL1   C14  534   5.139   4.562   9.979 -0.5838 -0.0479  0.1553
    8CHL1   H14  535   5.030   4.580   9.991 -0.2049  1.4559  1.6426
    8CHL1   C15  536   5.165   4.411   9.958  0.0127  0.0233 -0.1441
    8CHL1  H15A  537   5.265   4.368   9.982  0.7639  1.7203 -0.0882
    8CHL1  H15B  538   5.091   4.357  10.019  1.3111  0.7809  2.2107
    8CHL1   C16  539   5.133   4.396   9.806 -0.1883 -0.6724 -0.1645
    8CHL1  H16A  540   5.213   4.340   9.752  0.5324  0.5700 -0.4240
    8CHL1  H16B  541   5.035   4.345   9.808 -1.2479  1.3070  0.9065
    8CHL1   C17  542   5.116   4.538   9.744  0.1243  1.8097 -0.2788
    8CHL1   H17  543   5.006   4.553   9.737 -0.1876 -0.2583 -0.2329
    8CHL1   C13  544   5.182   4.631   9.848  0.4383 -0.0351 -0.6305
    8CHL1   C18  545   5.332   4.621   9.821  0.3146 -0.7226  0.2345
    8CHL1  H18A  546   5.353   4.675   9.726 -1.6470  0.4514  0.4210
    8CHL1  H18B  547   5.399   4.655   9.903  0.6852 -0.0830 -0.3213
    8CHL1  H18C  548   5.364   4.516   9.803  1.3406 -0.5166  0.7723
    8CHL1   C12  549   5.133   4.778   9.850  0.3067  0.6414  0.6228
    8CHL1  H12A  550   5.170   4.841   9.767 -1.6908  0.7703 -0.2121
    8CHL1  H12B  551   5.024   4.797   9.845  0.5345  1.6385 -2.4000
    8CHL1   C11  552   5.195   4.846   9.975 -0.0021 -0.1407  0.1729
    8CHL1  H11A  553   5.305   4.845   9.959  0.1504 -0.3750  1.1431
    8CHL1  H11B  554   5.162   4.952   9.983 -1.3696 -0.6089  1.2330
    8CHL1    C9  555   5.171   4.775  10.117  1.0433  0.5585  0.1060
    8CHL1    H9  556   5.062   4.789  10.132  0.4439 -1.1895 -2.0006
    8CHL1   C10  557   5.237   4.840  10.247  0.4415  0.9578  0.0515
    8CHL1   C19  558   5.388   4.854  10.227 -0.1354 -0.2528  0.3035
    8CHL1  H19A  559   5.455   4.888  10.308  2.0911 -2.4400 -0.4971
    8CHL1  H19B  560   5.440   4.762  10.191  3.5215  1.3840  0.9808
    8CHL1  H19C  561   5.395   4.927  10.143 -3.4319 -0.4124 -0.2485
    8CHL1    C1  562   5.181   4.979  10.266 -1.1174  0.2502 -0.6160
    8CHL1   H1A  563   5.202   5.041  10.177 -0.4286  0.2096 -0.4911
    8CHL1   H1B  564   5.071   4.967  10.263 -0.9513 -2.7256  1.0191
    8CHL1    C2  565   5.225   5.035  10.402 -0.1299  0.0106  0.2370
    8CHL1   H2A  566   5.189   5.136  10.429 -0.9328 -0.1606 -0.1474
    8CHL1   H2B  567   5.335   5.049  10.404 -0.2729  1.1525  1.1510
    8CHL1   C20  568   5.150   4.552   9.591 -1.1080 -0.0409  0.7498
    8CHL1   H20  569   5.256   4.524   9.576 -1.2150  0.6599 -1.7529
    8CHL1   C21  570   5.155   4.692   9.537  0.0763 -0.4174 -0.0741
    8CHL1  H21A  571   5.062   4.745   9.567  1.4961  2.5997 -0.5918
    8CHL1  H21B  572   5.160   4.701   9.427  1.1194  1.5089  0.0712
    8CHL1  H21C  573   5.245   4.749   9.569 -0.1254 -0.4512  0.5849
    8CHL1   C22  574   5.071   4.456   9.497  0.8297  0.1660 -0.0956
    8CHL1  H22A  575   5.074   4.349   9.528 -0.5093 -0.6430 -2.5306
    8CHL1  H22B  576   4.968   4.496   9.487  0.1087 -0.8625  2.2924
    8CHL1   C23  577   5.122   4.460   9.351  0.2235  0.1945 -0.3841
    8CHL1  H23A  578   5.055   4.534   9.302 -2.1875 -1.6267 -0.0301
    8CHL1  H23B  579   5.227   4.498   9.352  0.7225 -1.0462  2.2012
    8CHL1   C24  580   5.120   4.320   9.291 -0.1408 -0.3284  0.4399
    8CHL1  H24A  581   5.204   4.266   9.341  0.6581  1.0003  0.5912
    8CHL1  H24B  582   5.031   4.256   9.308  1.1644 -2.2974  0.2141
    8CHL1   C25  583   5.136   4.313   9.135  0.8540 -0.3879 -0.2466
    8CHL1   H25  584   5.041   4.345   9.087  1.2663  0.4264 -0.5421
    8CHL1   C26  585   5.250   4.410   9.097 -0.6718 -0.4884 -0.5511
    8CHL1  H26A  586   5.228   4.511   9.138 -0.1878 -0.2406 -0.8875
    8CHL1  H26B  587   5.339   4.377   9.154 -1.5987 -1.8514  0.1624
    8CHL1  H26C  588   5.288   4.421   8.993  0.5863 -0.0539 -0.0625
    8CHL1   C27  589   5.166   4.170   9.085  0.0200  0.6243  0.7313
    8CHL1  H27A  590   5.254   4.135   9.142  1.2310  0.5256 -1.1178
    8CHL1  H27B  591   5.080   4.102   9.104  1.8248 -1.9368  0.2502
    8CHL1  H27C  592   5.186   4.164   8.976 -0.9676  1.3656  0.4932
    9CHL1    C3  593   0.867   4.169  10.008  0.2988 -0.3351 -0.0666
    9CHL1    H3  594   0.978   4.171   9.996  0.4235 -1.1075  0.8256
    9CHL1    O3  595   0.828   4.109  10.131 -0.0673 -0.3257  0.3492
    9CHL1   H3'  596   0.733   4.096  10.123 -0.5689 -0.2724  4.1483
    9CHL1    C4  597   0.817   4.316  10.005  0.0173 -0.0897 -0.0047
    9CHL1   H4A  598   0.715   4.311  10.049  0.7031  0.9444  1.8255
    9CHL1   H4B  599   0.880   4.369  10.080  1.0239 -0.8624 -0.2767
    9CHL1    C5  600   0.812   4.388   9.875  0.1413  0.0088  0.8656
    9CHL1    C6  601   0.862   4.512   9.869 -0.3981 -0.4186  0.3339
    9CHL1    H6  602   0.912   4.554   9.957  0.7794 -0.5370 -0.2439
    9CHL1    C7  603   0.847   4.605   9.748  0.2119  0.0622  0.4769
    9CHL1   H7A  604   0.814   4.709   9.769 -0.0575 -0.3328  2.1218
    9CHL1   H7B  605   0.950   4.614   9.708  0.1546  2.4387  0.7725
    9CHL1    C8  606   0.748   4.550   9.638  0.2385  0.2777 -0.3916
    9CHL1    H8  607   0.650   4.568   9.688  0.2610  2.1067 -0.9377
    9CHL1   C14  608   0.749   4.615   9.492  0.0547  0.1374 -0.3021
    9CHL1   H14  609   0.852   4.582   9.466 -0.4037 -2.0298  0.4130
    9CHL1   C15  610   0.738   4.769   9.495  0.1816  0.0470  0.0340
    9CHL1  H15A  611   0.665   4.805   9.571 -0.8660 -0.6293 -0.6320
    9CHL1  H15B  612   0.829   4.828   9.520  0.2763 -0.2117  0.3171
    9CHL1   C16  613   0.704   4.796   9.351 -0.1995 -0.5617  0.8540
    9CHL1  H16A  614   0.617   4.864   9.347  1.8376  2.2113  0.0435
    9CHL1  H16B  615   0.787   4.851   9.301 -0.8491 -2.1959 -2.3000
    9CHL1   C17  616   0.690   4.657   9.275 -0.1260  0.4667 -0.6688
    9CHL1   H17  617   0.789   4.615   9.246  0.0489 -0.6828  1.4162
    9CHL1   C13  618   0.651   4.563   9.390 -0.6126 -0.9367  0.6574
    9CHL1   C18  619   0.510   4.593   9.432  0.7465  0.1706  0.1395
    9CHL1  H18A  620   0.434   4.579   9.351  0.3525  3.2193 -0.1262
    9CHL1  H18B  621   0.489   4.525   9.517  1.7700  1.1748  1.2204
    9CHL1  H18C  622   0.491   4.689   9.484  0.1901 -0.1702  0.5784
    9CHL1   C12  623   0.687   4.417   9.376 -0.4336  0.3351 -0.3943
    9CHL1  H12A  624   0.612   4.364   9.314 -0.5706 -0.0253  0.0678
    9CHL1  H12B  625   0.784   4.402   9.323 -0.6702  0.3004 -0.8177
    9CHL1   C11  626   0.683   4.333   9.508  0.8250  0.1520  0.4876
    9CHL1  H11A  627   0.574   4.326   9.527  0.9129 -2.7294  0.4602
    9CHL1  H11B  628   0.719   4.228   9.497  1.7257  0.4807  0.1838
    9CHL1    C9  629   0.762   4.391   9.626 -0.4868  0.0780  0.1370
    9CHL1    H9  630   0.869   4.384   9.597  0.1552  0.7047  2.2116
    9CHL1   C10  631   0.747   4.313   9.757 -0.0572 -0.9707  0.1813
    9CHL1   C19  632   0.601   4.309   9.785  0.2222 -0.3408  0.5488
    9CHL1  H19A  633   0.547   4.239   9.718 -0.8531  0.2915  0.7193
    9CHL1  H19B  634   0.565   4.273   9.884 -0.0710  0.8976  0.9113
    9CHL1  H19C  635   0.557   4.410   9.770 -2.3860 -1.3440  1.0135
    9CHL1    C1  636   0.812   4.177   9.751 -1.0679 -0.1541 -0.0423
    9CHL1   H1A  637   0.768   4.118   9.667 -0.1507 -1.5240  0.3993
    9CHL1   H1B  638   0.923   4.177   9.742 -0.9695  0.7373  1.0289
    9CHL1    C2  639   0.800   4.098   9.888 -0.2155  0.3527 -0.4995
    9CHL1   H2A  640   0.848   4.000   9.868  3.1307  1.8925 -0.7842
    9CHL1   H2B  641   0.693   4.079   9.911 -0.8417  3.9802  0.1467
    9CHL1   C20  642   0.599   4.678   9.161 -0.3774  0.0516  0.3289
    9CHL1   H20  643   0.495   4.705   9.190 -0.9264 -0.1359 -1.3912
    9CHL1   C21  644   0.595   4.551   9.085 -0.3759  0.3206 -0.0966
    9CHL1  H21A  645   0.695   4.509   9.062 -0.1809  0.4794  0.4471
    9CHL1  H21B  646   0.552   4.573   8.985  0.7393 -1.3618 -0.9874
    9CHL1  H21C  647   0.532   4.472   9.130 -0.7315  1.0553  0.7352
    9CHL1   C22  648   0.645   4.784   9.056 -0.9324  0.0373 -0.8843
    9CHL1  H22A  649   0.569   4.798   8.976 -0.6907  0.4256 -1.0437
    9CHL1  H22B  650   0.637   4.884   9.104 -2.6082  0.9050 -2.8321
    9CHL1   C23  651   0.781   4.758   8.983 -0.7672 -0.9019  0.4984
    9CHL1  H23A  652   0.856   4.755   9.064  2.3382  1.8820 -1.9842
    9CHL1  H23B  653   0.784   4.655   8.942  0.0368  0.2305 -2.5827
    9CHL1   C24  654   0.821   4.862   8.873 -0.3082 -0.1489 -0.6039
    9CHL1  H24A  655   0.846   4.960   8.920  4.2634 -0.8731 -1.0329
    9CHL1  H24B  656   0.920   4.831   8.834 -0.7968 -0.2141 -1.8205
    9CHL1   C25  657   0.729   4.883   8.751  0.2571  0.2217 -0.5166
    9CHL1   H25  658   0.642   4.932   8.799  2.0901 -0.6032  4.2169
    9CHL1   C26  659   0.802   4.976   8.651  0.7219 -0.0471  0.2537
    9CHL1  H26A  660   0.843   5.067   8.700 -0.1466 -0.5859  2.0801
    9CHL1  H26B  661   0.874   4.919   8.590  0.1025 -0.1609 -0.3845
    9CHL1  H26C  662   0.723   5.018   8.584  0.5579 -1.0912 -0.2224
    9CHL1   C27  663   0.691   4.746   8.685  0.2078 -0.0702 -0.2225
    9CHL1  H27A  664   0.771   4.671   8.703 -0.5009 -0.6305  0.7094
    9CHL1  H27B  665   0.603   4.702   8.737  0.8464 -0.8557  0.2276
    9CHL1  H27C  666   0.680   4.746   8.575  1.1771 -1.9663 -0.3679
   10CHL1    C3  667   5.724   1.438  10.214  0.0095  0.3009  0.0601
   10CHL1    H3  668   5.637   1.504  10.191 -1.0748 -1.5578 -1.5560
   10CHL1    O3  669   5.733   1.441  10.354  0.4132  0.0918  0.1575
   10CHL1   H3'  670   5.808   1.386  10.378  0.6395  0.9763  1.5585
   10CHL1    C4  671   5.683   1.299  10.164  0.0887 -0.2378 -0.0078
   10CHL1   H4A  672   5.766   1.228  10.185  2.2593  1.0558 -3.4298
   10CHL1   H4B  673   5.588   1.266  10.212 -0.2317  1.8960  0.9786
   10CHL1    C5  674   5.667   1.297  10.015 -0.0658  0.1084  0.0951
   10CHL1    C6  675   5.565   1.248   9.947  1.3586  0.3203  0.7328
   10CHL1    H6  676   5.477   1.222  10.008  1.1843  0.5859  0.5993
   10CHL1    C7  677   5.548   1.223   9.798 -0.5541 -0.1235  0.5057
   10CHL1   H7A  678   5.533   1.115   9.778  2.1355 -0.5167  0.2315
   10CHL1   H7B  679   5.471   1.290   9.753  0.4441  1.6865  1.3587
   10CHL1    C8  680   5.686   1.251   9.722 -0.0047 -0.3505 -0.1809
   10CHL1    H8  681   5.747   1.159   9.734 -0.8801 -0.8193  0.9952
   10CHL1   C14  682   5.656   1.279   9.584 -0.1206 -0.1286  0.2582
   10CHL1   H14  683   5.610   1.380   9.582  3.4092  1.6698  0.7220
   10CHL1   C15  684   5.569   1.184   9.498  0.0761  0.0322  0.3160
   10CHL1  H15A  685   5.600   1.077   9.508 -0.5899 -0.5607 -2.8180
   10CHL1  H15B  686   5.462   1.190   9.526 -0.7316 -0.6350 -2.3596
   10CHL1   C16  687   5.594   1.234   9.353 -0.0012 -0.4826  0.5045
   10CHL1  H16A  688   5.628   1.139   9.307 -2.1966 -0.8019 -0.5659
   10CHL1  H16B  689   5.505   1.274   9.301 -0.7293 -0.7585  1.5127
   10CHL1   C17  690   5.716   1.329   9.355  0.9060  0.2328 -0.6331
   10CHL1   H17  691   5.670   1.430   9.357 -2.2345 -1.0010 -2.5598
   10CHL1   C13  692   5.780   1.306   9.492 -1.1851  0.5274  0.3700
   10CHL1   C18  693   5.866   1.178   9.483 -0.5686 -0.1892  0.1958
   10CHL1  H18A  694   5.913   1.153   9.581  1.0197 -2.2584 -0.9875
   10CHL1  H18B  695   5.802   1.093   9.452 -0.1419 -0.6128  0.4431
   10CHL1  H18C  696   5.947   1.180   9.407 -0.6686 -3.3606 -0.1334
   10CHL1   C12  697   5.865   1.419   9.559 -0.4255  0.5000  0.7773
   10CHL1  H12A  698   5.962   1.429   9.507 -0.0829 -0.5856  1.1765
   10CHL1  H12B  699   5.815   1.514   9.531  0.8091  0.8204 -0.4409
   10CHL1   C11  700   5.891   1.405   9.710 -0.7575 -0.6033  0.3600
   10CHL1  H11A  701   5.967   1.325   9.720  0.0521 -0.0413 -0.9503
   10CHL1  H11B  702   5.932   1.503   9.743  1.6709 -1.2084 -0.6276
   10CHL1    C9  703   5.761   1.371   9.788 -0.0824  0.9159  0.0545
   10CHL1    H9  704   5.697   1.461   9.785 -0.8459  0.3692 -2.3433
   10CHL1   C10  705   5.793   1.344   9.938 -0.5791  0.2276 -1.3931
   10CHL1   C19  706   5.912   1.243   9.953  0.7196 -0.0582 -0.1894
   10CHL1  H19A  707   5.933   1.222  10.060 -0.8750  1.1035  0.3961
   10CHL1  H19B  708   5.888   1.148   9.900 -2.1953  0.6439 -0.2796
   10CHL1  H19C  709   6.007   1.276   9.904  0.3407 -1.3320 -1.8951
   10CHL1    C1  710   5.848   1.477  10.003  0.4054 -0.6139  0.8481
   10CHL1   H1A  711   5.938   1.516   9.951 -0.9527  0.7209 -0.6040
   10CHL1   H1B  712   5.774   1.557   9.979  1.4188 -0.0730 -0.6002
   10CHL1    C2  713   5.858   1.478  10.154  0.2086  0.2266 -0.7023
   10CHL1   H2A  714   5.894   1.575  10.194 -0.5273  0.1698  0.1374
   10CHL1   H2B  715   5.932   1.401  10.184 -0.9007 -0.8032 -0.5204
   10CHL1   C20  716   5.792   1.314   9.236 -0.2627 -0.2929  1.1168
   10CHL1   H20  717   5.819   1.210   9.210  1.9330  1.2060 -4.0635
   10CHL1   C21  718   5.916   1.406   9.228  0.1858 -0.3654 -0.1814
   10CHL1  H21A  719   5.957   1.410   9.125 -0.8763 -1.0256 -0.6547
   10CHL1  H21B  720   5.996   1.386   9.302 -0.2375 -2.2056 -0.1747
   10CHL1  H21C  721   5.891   1.514   9.239 -0.2959 -0.4209 -0.6794
   10CHL1   C22  722   5.713   1.356   9.104  0.3493  0.7171 -0.1785
   10CHL1  H22A  723   5.604   1.338   9.116  0.2326  0.6716 -1.2146
   10CHL1  H22B  724   5.741   1.461   9.083  1.3726  0.2147 -1.4746
   10CHL1   C23  725   5.767   1.265   8.987 -0.7441  0.0474 -0.0233
   10CHL1  H23A  726   5.868   1.309   8.970 -0.5922  0.3722  1.5256
   10CHL1  H23B  727   5.772   1.160   9.022 -1.6199  0.0484  0.1332
   10CHL1   C24  728   5.685   1.281   8.856 -0.4113  0.2620  0.4616
   10CHL1  H24A  729   5.583   1.254   8.892 -0.2147  1.0628  1.6539
   10CHL1  H24B  730   5.677   1.385   8.817  0.9729  0.2395  0.0866
   10CHL1   C25  731   5.739   1.188   8.745 -0.1325  0.2380  0.5723
   10CHL1   H25  732   5.848   1.205   8.736 -0.2440  0.1804 -1.2631
   10CHL1   C26  733   5.720   1.037   8.788  0.1945  0.0773  1.0103
   10CHL1  H26A  734   5.616   1.024   8.824  0.7642 -0.3229  2.5972
   10CHL1  H26B  735   5.754   0.969   8.707  1.0313  2.2311 -0.5534
   10CHL1  H26C  736   5.785   1.015   8.876  0.0186  0.2406  1.1826
   10CHL1   C27  737   5.679   1.217   8.610  1.6019  0.0152 -0.1401
   10CHL1  H27A  738   5.695   1.143   8.529 -2.0009 -3.3512  1.9215
   10CHL1  H27B  739   5.570   1.216   8.630  1.5066  1.6010 -0.4187
   10CHL1  H27C  740   5.695   1.321   8.573 -1.1410  0.5037 -0.1491
   11CHL1    C3  741   5.379   6.102  10.036 -0.4256  0.1939 -1.1948
   11CHL1    H3  742   5.309   6.016  10.038  0.9153 -0.9562  1.6722
   11CHL1    O3  743   5.408   6.151  10.171  0.3312  0.4935 -0.2915
   11CHL1   H3'  744   5.454   6.234  10.158  1.7512 -0.4858 -1.9898
   11CHL1    C4  745   5.508   6.067   9.965  0.3698  0.0477 -0.1150
   11CHL1   H4A  746   5.582   6.150   9.972 -0.1699  0.4026  3.1826
   11CHL1   H4B  747   5.558   5.982  10.016 -1.1615 -0.3684  0.7666
   11CHL1    C5  748   5.481   6.033   9.822 -0.3738 -0.0354  0.4490
   11CHL1    C6  749   5.522   5.912   9.773  0.7167 -0.4940  0.3745
   11CHL1    H6  750   5.577   5.840   9.834 -1.1675 -0.2288  2.5193
   11CHL1    C7  751   5.498   5.868   9.639 -0.3157 -0.3520  0.7461
   11CHL1   H7A  752   5.592   5.825   9.600  0.6050  2.1607 -0.0234
   11CHL1   H7B  753   5.415   5.794   9.641 -1.5331  0.9502  2.5218
   11CHL1    C8  754   5.468   5.987   9.550  0.0764  0.2069  0.2707
   11CHL1    H8  755   5.556   6.053   9.534 -0.6752  1.0386 -0.5760
   11CHL1   C14  756   5.428   5.936   9.413 -0.4026  0.0193 -0.0486
   11CHL1   H14  757   5.331   5.883   9.422 -1.0664  1.2133 -0.0127
   11CHL1   C15  758   5.527   5.835   9.351 -0.1811 -0.2601  0.8047
   11CHL1  H15A  759   5.631   5.873   9.336 -0.2602 -0.5487 -0.6401
   11CHL1  H15B  760   5.523   5.735   9.399 -1.1435 -0.2118  0.8337
   11CHL1   C16  761   5.476   5.829   9.207  0.5902  1.1731  0.2210
   11CHL1  H16A  762   5.561   5.860   9.142  0.9791  1.5980  0.9232
   11CHL1  H16B  763   5.423   5.737   9.175 -1.7095  1.0983  3.7085
   11CHL1   C17  764   5.372   5.946   9.188 -0.0688 -0.6666 -0.1527
   11CHL1   H17  765   5.268   5.913   9.204 -1.5112  0.5419 -5.1820
   11CHL1   C13  766   5.397   6.040   9.306  0.2052 -0.0700  0.1323
   11CHL1   C18  767   5.522   6.123   9.267 -0.6161 -0.3710 -0.4475
   11CHL1  H18A  768   5.615   6.066   9.246 -0.2468 -0.0164  0.1908
   11CHL1  H18B  769   5.505   6.186   9.176 -2.5701  0.6129  0.5489
   11CHL1  H18C  770   5.547   6.186   9.355 -1.3275 -0.9474  0.1687
   11CHL1   C12  771   5.285   6.129   9.362 -0.3722  0.6446 -1.0635
   11CHL1  H12A  772   5.276   6.222   9.302 -1.0512  1.6576  0.5389
   11CHL1  H12B  773   5.184   6.084   9.371  0.0614 -0.1886 -0.2745
   11CHL1   C11  774   5.306   6.177   9.510  0.3584  0.0512 -0.0401
   11CHL1  H11A  775   5.395   6.242   9.497  0.4734  0.3657  1.9504
   11CHL1  H11B  776   5.223   6.239   9.551  1.8188  0.0582  3.3024
   11CHL1    C9  777   5.359   6.078   9.613 -0.2990  0.6923  0.7718
   11CHL1    H9  778   5.273   6.011   9.636  0.3338  0.1595  1.6208
   11CHL1   C10  779   5.405   6.145   9.741 -0.0661  0.3639  0.0314
   11CHL1   C19  780   5.513   6.253   9.724  0.1936  0.0111  0.5753
   11CHL1  H19A  781   5.601   6.205   9.674  0.0355 -0.9448  1.1871
   11CHL1  H19B  782   5.470   6.338   9.666  1.6472 -1.3267 -2.7667
   11CHL1  H19C  783   5.542   6.299   9.820  1.8972  3.4129 -1.3900
   11CHL1    C1  784   5.279   6.191   9.817 -0.2445  0.5975  0.4229
   11CHL1   H1A  785   5.240   6.286   9.775  2.4012  1.3845 -0.4865
   11CHL1   H1B  786   5.198   6.116   9.810 -1.1373  1.5033  0.9069
   11CHL1    C2  787   5.301   6.212   9.969  0.0370 -0.6281  0.6685
   11CHL1   H2A  788   5.205   6.238  10.019 -0.7816 -0.8507 -0.7227
   11CHL1   H2B  789   5.362   6.304   9.979 -0.1604 -0.6695  2.8376
   11CHL1   C20  790   5.363   6.008   9.048 -1.2101  0.3235 -0.1282
   11CHL1   H20  791   5.452   6.073   9.031 -0.8326 -0.2252 -0.2887
   11CHL1   C21  792   5.235   6.095   9.033  0.4044  0.3054  0.0187
   11CHL1  H21A  793   5.255   6.137   8.932  0.7874  0.0772 -0.0018
   11CHL1  H21B  794   5.220   6.176   9.108  0.3309 -2.1161  2.7783
   11CHL1  H21C  795   5.142   6.035   9.022 -0.0880  1.3185 -1.7466
   11CHL1   C22  796   5.365   5.903   8.938 -0.2045  0.2859  0.0535
   11CHL1  H22A  797   5.416   5.805   8.948 -3.3876 -1.7879 -2.1021
   11CHL1  H22B  798   5.260   5.873   8.915 -0.9127  1.4021  1.6617
   11CHL1   C23  799   5.415   5.957   8.798  0.1033  0.4282 -0.7949
   11CHL1  H23A  800   5.333   5.931   8.727  0.5014 -0.2640 -1.0105
   11CHL1  H23B  801   5.422   6.067   8.805 -1.0252  0.3997  3.1412
   11CHL1   C24  802   5.547   5.892   8.751  0.6377 -0.9261 -0.2221
   11CHL1  H24A  803   5.630   5.966   8.751 -0.0699 -0.0683  1.6277
   11CHL1  H24B  804   5.571   5.827   8.838 -2.0889 -1.7192  0.0329
   11CHL1   C25  805   5.537   5.808   8.619 -0.1417  0.1124 -0.6030
   11CHL1   H25  806   5.451   5.738   8.632 -0.8117  1.0835  0.3777
   11CHL1   C26  807   5.512   5.899   8.504 -0.1224  0.1773 -0.8542
   11CHL1  H26A  808   5.593   5.976   8.499  0.7084 -0.6608 -0.7233
   11CHL1  H26B  809   5.517   5.839   8.410 -1.5112  0.2978 -1.0242
   11CHL1  H26C  810   5.417   5.955   8.508  0.2070  0.9181 -2.3638
   11CHL1   C27  811   5.662   5.724   8.589 -0.9014  0.3323 -0.6098
   11CHL1  H27A  812   5.676   5.656   8.675  0.3492  1.2101 -0.1080
   11CHL1  H27B  813   5.681   5.666   8.496  3.7889 -1.3159  1.0994
   11CHL1  H27C  814   5.739   5.803   8.595  1.4479 -1.8844  0.0465
   12CHL1    C3  815   5.576   3.632  10.374 -0.0983  0.0321  0.4156
   12CHL1    H3  816   5.666   3.568  10.380 -0.9303 -1.0702  1.6056
   12CHL1    O3  817   5.541   3.667  10.502  0.1509 -0.0150  0.1168
   12CHL1   H3'  818   5.503   3.755  10.489 -0.8559  0.1589  3.4179
   12CHL1    C4  819   5.624   3.755  10.294 -0.2068 -0.0874 -0.3378
   12CHL1   H4A  820   5.543   3.830  10.296  1.6824  2.0417  0.8910
   12CHL1   H4B  821   5.707   3.786  10.362 -2.3850  0.8832  2.0651
   12CHL1    C5  822   5.663   3.711  10.152  0.1200 -0.6807 -0.4363
   12CHL1    C6  823   5.785   3.751  10.111 -0.0649 -0.4021  0.4018
   12CHL1    H6  824   5.859   3.801  10.176  0.0113  2.3614 -1.6015
   12CHL1    C7  825   5.823   3.728   9.967 -0.1264 -1.1695  0.3838
   12CHL1   H7A  826   5.871   3.822   9.935 -0.7222 -1.0447 -0.1643
   12CHL1   H7B  827   5.889   3.639   9.954 -0.2762 -1.0811 -1.2640
   12CHL1    C8  828   5.702   3.701   9.879 -0.1508  0.1267 -0.2716
   12CHL1    H8  829   5.635   3.789   9.874 -2.0126 -1.2853 -1.9777
   12CHL1   C14  830   5.737   3.662   9.741  1.0147  0.0690  0.5717
   12CHL1   H14  831   5.800   3.570   9.747 -0.1530 -0.9082 -1.2397
   12CHL1   C15  832   5.810   3.763   9.660 -0.4572  0.2199 -0.1105
   12CHL1  H15A  833   5.764   3.863   9.671 -1.3104 -0.0914 -0.7418
   12CHL1  H15B  834   5.917   3.757   9.690 -0.8406 -3.6111  1.0750
   12CHL1   C16  835   5.798   3.721   9.517 -0.1489 -0.1329  0.4295
   12CHL1  H16A  836   5.773   3.803   9.446 -0.0963 -0.5391 -0.0649
   12CHL1  H16B  837   5.894   3.675   9.485  0.1854 -0.1615  1.4469
   12CHL1   C17  838   5.683   3.609   9.511  0.1124 -0.2814 -0.3488
   12CHL1   H17  839   5.729   3.508   9.517 -1.3021 -0.9224  0.2743
   12CHL1   C13  840   5.616   3.628   9.647  0.5260  0.9967 -0.4599
   12CHL1   C18  841   5.510   3.742   9.654 -0.4922  0.0172  0.4301
   12CHL1  H18A  842   5.547   3.841   9.619 -1.1016  0.5251  1.2050
   12CHL1  H18B  843   5.425   3.715   9.587 -0.0374 -1.1636  0.3069
   12CHL1  H18C  844   5.466   3.762   9.754  0.9537  1.5780  0.7940
   12CHL1   C12  845   5.561   3.492   9.704 -0.2559 -0.0563 -0.6254
   12CHL1  H12A  846   5.469   3.473   9.645 -0.3387  1.7769 -1.1357
   12CHL1  H12B  847   5.639   3.412   9.709  0.5308  0.5719 -2.1685
   12CHL1   C11  848   5.511   3.519   9.845 -0.0299  0.4009  0.0500
   12CHL1  H11A  849   5.423   3.587   9.840 -1.3145 -1.2328 -0.7261
   12CHL1  H11B  850   5.465   3.431   9.895 -0.8741  1.5646  1.3835
   12CHL1    C9  851   5.615   3.591   9.943  0.4658  0.3714  0.5178
   12CHL1    H9  852   5.677   3.502   9.967 -1.0415 -0.5428  1.1615
   12CHL1   C10  853   5.554   3.631  10.075  0.1319 -0.7620 -0.6352
   12CHL1   C19  854   5.432   3.725  10.051 -0.0117  0.3193  0.4811
   12CHL1  H19A  855   5.404   3.770  10.148  2.7920  1.4120  0.8814
   12CHL1  H19B  856   5.429   3.809   9.979 -1.6636  0.9316  1.2225
   12CHL1  H19C  857   5.344   3.661  10.029  0.6339 -0.3400 -0.2426
   12CHL1    C1  858   5.507   3.511  10.168 -0.0726  0.4837 -0.3562
   12CHL1   H1A  859   5.419   3.464  10.119  1.1331 -0.4821 -1.6777
   12CHL1   H1B  860   5.580   3.429  10.184 -2.5348 -1.6277  0.8653
   12CHL1    C2  861   5.466   3.552  10.313 -0.1270  0.3743  0.2710
   12CHL1   H2A  862   5.453   3.457  10.370 -1.5927  0.9267  0.9270
   12CHL1   H2B  863   5.373   3.613  10.316  1.2711  2.6054  2.1571
   12CHL1   C20  864   5.596   3.611   9.384 -0.3537 -0.0515  0.7726
   12CHL1   H20  865   5.547   3.711   9.382  1.1448  0.6981 -1.1409
   12CHL1   C21  866   5.484   3.504   9.375 -0.2582  0.3697 -0.1376
   12CHL1  H21A  867   5.409   3.542   9.447  0.2540  1.5690 -0.2158
   12CHL1  H21B  868   5.529   3.410   9.415 -0.7979  0.0965 -0.1717
   12CHL1  H21C  869   5.437   3.495   9.275 -0.5436 -1.0274  0.1036
   12CHL1   C22  870   5.676   3.605   9.252  0.5382 -0.1642  0.2463
   12CHL1  H22A  871   5.607   3.641   9.172  0.1263 -2.0748 -0.3362
   12CHL1  H22B  872   5.760   3.678   9.251  1.2568 -0.9744  0.2032
   12CHL1   C23  873   5.730   3.470   9.208  0.0975 -0.0420  0.3992
   12CHL1  H23A  874   5.816   3.447   9.274  1.1264  4.2327  0.8822
   12CHL1  H23B  875   5.660   3.385   9.211  1.7468 -1.4302  1.4395
   12CHL1   C24  876   5.785   3.481   9.067  0.1437 -0.6445 -0.7296
   12CHL1  H24A  877   5.700   3.505   9.000 -0.9745  1.0138  1.1641
   12CHL1  H24B  878   5.857   3.565   9.078 -0.5884 -0.1561  0.5896
   12CHL1   C25  879   5.873   3.361   9.026  0.4923  0.3259  0.2855
   12CHL1   H25  880   5.933   3.322   9.111 -0.8455 -0.0805  1.0758
   12CHL1   C26  881   5.785   3.244   8.980  0.2904  0.4141  0.4502
   12CHL1  H26A  882   5.701   3.285   8.920  1.7677  3.0101 -0.0137
   12CHL1  H26B  883   5.843   3.173   8.918 -0.5532  1.0176 -1.0767
   12CHL1  H26C  884   5.740   3.182   9.061 -0.5600 -2.9700 -2.3774
   12CHL1   C27  885   5.971   3.391   8.911  0.3885  0.3244 -0.4307
   12CHL1  H27A  886   6.047   3.462   8.949 -2.7274  2.9289  1.4771
   12CHL1  H27B  887   6.026   3.295   8.895  0.8433 -0.5066  4.5358
   12CHL1  H27C  888   5.922   3.435   8.822  1.1044  1.6942 -0.1708
   13CHL1    C3  889   5.038   5.662   9.853  0.7130 -0.3150 -0.0555
   13CHL1    H3  890   5.043   5.553   9.870 -1.4155 -0.8093 -2.0901
   13CHL1    O3  891   5.060   5.728   9.977 -0.1187  0.0318 -0.4904
   13CHL1   H3'  892   5.011   5.682  10.046  3.0083  1.3110  2.9057
   13CHL1    C4  893   5.147   5.705   9.757  0.5105  0.1776 -0.4853
   13CHL1   H4A  894   5.161   5.815   9.760 -0.3419  0.3669 -2.1776
   13CHL1   H4B  895   5.231   5.653   9.809 -1.1324 -1.0371  1.0960
   13CHL1    C5  896   5.124   5.664   9.615 -1.1365 -0.5841 -1.0048
   13CHL1    C6  897   5.221   5.592   9.550  0.0635  0.4086  0.3680
   13CHL1    H6  898   5.324   5.581   9.588  0.3682 -0.5510 -0.6806
   13CHL1    C7  899   5.200   5.546   9.404  0.2954 -1.0565  0.0333
   13CHL1   H7A  900   5.289   5.576   9.346  0.6879 -1.0085  0.6551
   13CHL1   H7B  901   5.197   5.435   9.407  0.3265 -1.0345  2.1959
   13CHL1    C8  902   5.079   5.617   9.325 -0.5644 -0.1741  0.4614
   13CHL1    H8  903   5.108   5.722   9.305 -0.7990  0.1050  1.4726
   13CHL1   C14  904   5.041   5.540   9.195 -0.4713  0.0182 -0.7896
   13CHL1   H14  905   5.009   5.442   9.235  1.3634 -0.8860 -1.4130
   13CHL1   C15  906   5.153   5.500   9.098  0.0434 -0.4801  0.0588
   13CHL1  H15A  907   5.232   5.576   9.077 -0.1216 -0.3407 -0.0560
   13CHL1  H15B  908   5.208   5.412   9.139 -2.1822 -1.1702  1.7412
   13CHL1   C16  909   5.093   5.476   8.964  0.3753 -0.6479 -0.0492
   13CHL1  H16A  910   5.122   5.556   8.892 -0.8466 -1.9302 -2.0536
   13CHL1  H16B  911   5.115   5.377   8.920 -2.2314 -1.0583 -0.5794
   13CHL1   C17  912   4.937   5.513   8.987 -0.5407  0.5891 -0.3650
   13CHL1   H17  913   4.886   5.422   9.025 -0.9144  0.6262 -0.7677
   13CHL1   C13  914   4.934   5.605   9.108  0.0517  0.4714  0.2460
   13CHL1   C18  915   4.984   5.752   9.072  0.3486  0.3536 -0.2973
   13CHL1  H18A  916   4.972   5.815   9.162 -2.8317 -2.5129  1.5218
   13CHL1  H18B  917   5.088   5.759   9.034  0.2717  0.7251 -0.4443
   13CHL1  H18C  918   4.912   5.791   8.997  1.0107  0.9380 -0.6335
   13CHL1   C12  919   4.801   5.607   9.187 -0.1246 -0.3436 -0.3119
   13CHL1  H12A  920   4.734   5.684   9.143  0.0225  0.0462  0.1345
   13CHL1  H12B  921   4.753   5.507   9.190  0.3127 -0.5372  1.3594
   13CHL1   C11  922   4.831   5.666   9.332  0.1248  0.2844 -0.2764
   13CHL1  H11A  923   4.834   5.774   9.310 -1.5299  0.4639  0.2307
   13CHL1  H11B  924   4.734   5.650   9.385  1.0027 -1.5701  0.8847
   13CHL1    C9  925   4.957   5.618   9.417 -0.5251 -0.5945 -0.1037
   13CHL1    H9  926   4.942   5.510   9.435  1.1386 -0.2875  4.4225
   13CHL1   C10  927   4.980   5.691   9.551 -0.0632 -0.4082  0.0814
   13CHL1   C19  928   4.972   5.853   9.539 -0.1124  0.1077  0.2780
   13CHL1  H19A  929   4.987   5.912   9.632  0.5575  0.2647  0.0744
   13CHL1  H19B  930   5.052   5.883   9.468 -1.9672  0.4788 -1.7663
   13CHL1  H19C  931   4.869   5.878   9.504 -0.0470 -1.7532 -1.4287
   13CHL1    C1  932   4.875   5.646   9.659 -0.7649  0.8683  0.2015
   13CHL1   H1A  933   4.779   5.675   9.612 -0.9042 -1.4728 -1.1258
   13CHL1   H1B  934   4.872   5.535   9.662  2.0371  0.7308  1.7324
   13CHL1    C2  935   4.901   5.706   9.802  0.0985  0.4620 -0.0379
   13CHL1   H2A  936   4.818   5.665   9.863 -2.6060 -2.0463 -4.8623
   13CHL1   H2B  937   4.889   5.815   9.784  1.2829  0.2887 -2.2044
   13CHL1   C20  938   4.856   5.547   8.861  0.0284 -0.4353  0.0067
   13CHL1   H20  939   4.877   5.654   8.839 -1.8820  0.2702  1.3409
   13CHL1   C21  940   4.706   5.528   8.895  0.4499 -0.7626  0.2106
   13CHL1  H21A  941   4.692   5.424   8.933 -1.2320 -1.0714 -1.1580
   13CHL1  H21B  942   4.638   5.536   8.809  1.5981 -1.1557 -0.7656
   13CHL1  H21C  943   4.675   5.608   8.966  1.0703 -0.0292 -0.3297
   13CHL1   C22  944   4.892   5.457   8.742 -0.5718  0.4523 -0.9845
   13CHL1  H22A  945   4.817   5.479   8.663 -1.6114 -2.9639 -1.1226
   13CHL1  H22B  946   4.990   5.478   8.694 -0.2746 -0.9173 -1.0209
   13CHL1   C23  947   4.885   5.306   8.758 -0.3811 -0.2756 -0.2007
   13CHL1  H23A  948   4.952   5.263   8.835  0.1180 -0.2954 -0.6430
   13CHL1  H23B  949   4.778   5.284   8.780 -0.1642 -1.1092  0.0444
   13CHL1   C24  950   4.923   5.242   8.627  0.3120  0.5138  0.3288
   13CHL1  H24A  951   4.849   5.259   8.546 -0.7257 -2.4692  0.5309
   13CHL1  H24B  952   5.021   5.285   8.596  1.7479 -1.1820  2.2231
   13CHL1   C25  953   4.941   5.091   8.654  1.0451  0.5293 -0.6186
   13CHL1   H25  954   4.997   5.075   8.749  0.3679  2.5004  0.1605
   13CHL1   C26  955   4.802   5.026   8.675 -0.5491 -0.3184 -0.0705
   13CHL1  H26A  956   4.739   5.059   8.761  0.4826  0.7282  0.3113
   13CHL1  H26B  957   4.744   5.045   8.582 -0.1812 -0.0151 -0.2416
   13CHL1  H26C  958   4.824   4.918   8.690 -0.5273 -0.4377 -0.9260
   13CHL1   C27  959   5.015   5.033   8.529 -1.0324  0.2002  0.3734
   13CHL1  H27A  960   5.032   4.924   8.545  0.3705  0.1897 -0.9112
   13CHL1  H27B  961   4.957   5.052   8.436  2.2748 -0.7826 -2.0902
   13CHL1  H27C  962   5.115   5.075   8.504 -0.6248 -2.2885 -2.9294
   14CHL1    C3  963   2.908   1.096  10.220 -0.2185 -0.1718  0.4630
   14CHL1    H3  964   2.967   1.190  10.215  1.0673 -0.8826  1.6279
   14CHL1    O3  965   2.858   1.062  10.348 -0.9190 -0.3665 -0.2951
   14CHL1   H3'  966   2.815   0.977  10.338  0.9611 -1.5193  0.7632
   14CHL1    C4  967   2.781   1.104  10.137 -1.2521 -0.6927 -0.9519
   14CHL1   H4A  968   2.732   1.005  10.150  0.0329 -1.0687  1.7540
   14CHL1   H4B  969   2.706   1.175  10.177  0.1014  1.0790 -1.4383
   14CHL1    C5  970   2.812   1.120   9.993  0.6898 -0.1656 -0.0685
   14CHL1    C6  971   2.767   1.229   9.929  0.3140 -0.7344 -0.3870
   14CHL1    H6  972   2.698   1.296   9.983 -0.8191 -0.7866 -1.7102
   14CHL1    C7  973   2.770   1.257   9.782 -0.0123  0.2481  0.0698
   14CHL1   H7A  974   2.664   1.269   9.752 -0.5225  0.8624  1.9434
   14CHL1   H7B  975   2.831   1.348   9.767 -1.5075  1.0559 -1.4306
   14CHL1    C8  976   2.823   1.133   9.709 -0.4127 -0.0985 -0.3205
   14CHL1    H8  977   2.739   1.060   9.711  0.5955 -1.4946  4.1896
   14CHL1   C14  978   2.868   1.174   9.567  0.0367 -0.0024 -0.0725
   14CHL1   H14  979   2.963   1.228   9.583 -1.4981  2.5087  1.2848
   14CHL1   C15  980   2.783   1.269   9.490  0.3564 -0.3573  0.1937
   14CHL1  H15A  981   2.677   1.241   9.505  0.3116  0.6679  2.2110
   14CHL1  H15B  982   2.795   1.371   9.534  1.4557  0.2176 -1.3545
   14CHL1   C16  983   2.832   1.261   9.347 -0.2075  0.0175 -0.5392
   14CHL1  H16A  984   2.751   1.280   9.273 -1.4163  0.5525  0.8894
   14CHL1  H16B  985   2.906   1.341   9.324 -0.8577  0.1271 -2.4615
   14CHL1   C17  986   2.926   1.134   9.346  0.0559  0.7806 -0.5957
   14CHL1   H17  987   3.034   1.160   9.345 -0.1483  1.7359  0.8197
   14CHL1   C13  988   2.896   1.054   9.478  0.1830  0.0880 -0.0671
   14CHL1   C18  989   2.764   0.966   9.456 -0.1749  0.0074 -0.1127
   14CHL1  H18A  990   2.807   0.876   9.408  1.2984  1.5451 -1.8242
   14CHL1  H18B  991   2.714   0.946   9.553 -0.0477  1.0645  0.1879
   14CHL1  H18C  992   2.694   1.013   9.384 -0.0804  1.2172  0.5398
   14CHL1   C12  993   3.014   0.982   9.544 -0.9213  0.0120 -0.0330
   14CHL1  H12A  994   3.042   0.891   9.486  2.5041  0.5999  0.4981
   14CHL1  H12B  995   3.097   1.054   9.530 -0.0747 -1.1579 -1.2748
   14CHL1   C11  996   2.984   0.950   9.689 -0.1614  0.5168  0.2204
   14CHL1  H11A  997   2.910   0.868   9.684  1.2649 -1.0678  2.8592
   14CHL1  H11B  998   3.073   0.903   9.736 -0.7716 -0.4607  0.4131
   14CHL1    C9  999   2.937   1.061   9.775 -0.2511  0.5958 -0.2080
   14CHL1    H9 1000   3.017   1.136   9.791 -1.7942  1.8001  2.3555
   14CHL1   C10 1001   2.904   1.015   9.924 -0.1012  0.3759 -0.3347
   14CHL1   C19 1002   2.817   0.883   9.916 -0.2608 -0.7663 -0.1907
   14CHL1  H19A 1003   2.791   0.856  10.021 -0.7260 -2.4551 -0.7238
   14CHL1  H19B 1004   2.718   0.889   9.866 -0.8076 -0.4227  0.9027
   14CHL1  H19C 1005   2.878   0.798   9.878  3.5649  0.9497  1.5258
   14CHL1    C1 1006   3.031   1.003  10.013 -0.1784 -0.3778 -0.0057
   14CHL1   H1A 1007   3.096   0.922   9.974 -0.5951 -0.6820 -0.0774
   14CHL1   H1B 1008   3.079   1.103  10.006 -2.3628  0.9670  2.2034
   14CHL1    C2 1009   2.995   0.983  10.163  0.5075  0.0124  0.1414
   14CHL1   H2A 1010   3.098   0.976  10.205  1.4671 -0.6205 -2.1444
   14CHL1   H2B 1011   2.944   0.884  10.164 -1.3484  0.9074 -1.0427
   14CHL1   C20 1012   2.913   1.052   9.211 -0.1539  0.3208  0.0856
   14CHL1   H20 1013   2.810   1.010   9.208 -0.9346  2.0980  0.6581
   14CHL1   C21 1014   3.009   0.929   9.209 -0.0343  0.1027  0.1160
   14CHL1  H21A 1015   2.993   0.864   9.298  1.6470  1.1039  1.2177
   14CHL1  H21B 1016   3.109   0.975   9.200 -0.2683  0.6650  0.3309
   14CHL1  H21C 1017   2.975   0.873   9.120 -0.2909  2.8598 -1.6453
   14CHL1   C22 1018   2.943   1.139   9.087  0.6841 -0.0392 -0.7063
   14CHL1  H22A 1019   2.870   1.221   9.068  0.7703  0.2118  0.0249
   14CHL1  H22B 1020   3.047   1.180   9.092 -0.3189  2.8128 -1.2391
   14CHL1   C23 1021   2.942   1.062   8.949 -0.0841  0.0471  0.0162
   14CHL1  H23A 1022   3.035   1.002   8.944 -0.1073 -0.1695  1.7354
   14CHL1  H23B 1023   2.855   0.994   8.958  1.5419 -2.0460  0.6921
   14CHL1   C24 1024   2.945   1.155   8.827  0.2523  0.6153 -0.4153
   14CHL1  H24A 1025   2.840   1.191   8.817 -0.3972 -0.9077  0.5861
   14CHL1  H24B 1026   3.018   1.238   8.838 -1.3272  2.1950 -1.2758
   14CHL1   C25 1027   2.975   1.087   8.696 -0.0719  0.4501 -0.1121
   14CHL1   H25 1028   2.960   1.171   8.624  2.5878 -1.1373 -2.7592
   14CHL1   C26 1029   3.125   1.054   8.676  0.2578  0.1075 -0.8182
   14CHL1  H26A 1030   3.182   1.149   8.680  0.1465  0.1351  0.1978
   14CHL1  H26B 1031   3.156   0.976   8.748  1.8909  1.1546 -0.3498
   14CHL1  H26C 1032   3.131   1.018   8.571 -2.0871 -2.8794 -0.0849
   14CHL1   C27 1033   2.873   0.978   8.668  0.0302  0.2737 -0.4141
   14CHL1  H27A 1034   2.896   0.891   8.733  0.9860  1.3604  0.7326
   14CHL1  H27B 1035   2.768   1.008   8.688  0.0846 -0.9900  2.2432
   14CHL1  H27C 1036   2.890   0.953   8.561 -1.2699 -1.5666 -0.2407
   15CHL1    C3 1037   3.500   0.822  10.175 -0.0903 -0.3009  0.6199
   15CHL1    H3 1038   3.589   0.876  10.137 -1.3751  0.5397 -1.3523
   15CHL1    O3 1039   3.483   0.844  10.314 -0.3029 -0.7523  0.7830
   15CHL1   H3' 1040   3.427   0.772  10.345 -1.1981  0.0390  1.0452
   15CHL1    C4 1041   3.374   0.868  10.109 -0.0271  0.5723 -0.5106
   15CHL1   H4A 1042   3.291   0.801  10.139  0.2566 -0.4897 -1.9662
   15CHL1   H4B 1043   3.339   0.972  10.126  1.0744  1.0420 -0.9748
   15CHL1    C5 1044   3.385   0.846   9.959  0.8328  0.4337 -0.4288
   15CHL1    C6 1045   3.369   0.945   9.880 -0.1781 -0.1345  0.8128
   15CHL1    H6 1046   3.346   1.044   9.923  1.5404  0.9619 -0.6056
   15CHL1    C7 1047   3.384   0.934   9.727  0.5019  0.0776 -0.2607
   15CHL1   H7A 1048   3.293   0.987   9.691 -0.6758  0.2637  2.7699
   15CHL1   H7B 1049   3.467   0.993   9.682 -1.4110  2.3403 -1.0348
   15CHL1    C8 1050   3.383   0.786   9.681  0.7780 -0.5245 -0.1164
   15CHL1    H8 1051   3.281   0.742   9.679  1.1658 -1.5345  1.3831
   15CHL1   C14 1052   3.438   0.782   9.542  0.7198 -0.8487 -0.5024
   15CHL1   H14 1053   3.544   0.810   9.557 -0.1076  1.8584  1.1120
   15CHL1   C15 1054   3.386   0.881   9.436 -0.1287  0.5146  0.6971
   15CHL1  H15A 1055   3.277   0.891   9.454 -0.3225 -0.1626 -0.0249
   15CHL1  H15B 1056   3.430   0.983   9.444 -0.7220  0.8231  0.2155
   15CHL1   C16 1057   3.422   0.813   9.304 -0.7369 -0.4178  0.2708
   15CHL1  H16A 1058   3.331   0.812   9.241 -0.4325 -0.1779 -0.1798
   15CHL1  H16B 1059   3.504   0.859   9.244 -1.1772  0.1182  0.0683
   15CHL1   C17 1060   3.473   0.669   9.336 -0.4018 -0.2270  0.0130
   15CHL1   H17 1061   3.584   0.663   9.341 -0.4763 -1.8644  0.5220
   15CHL1   C13 1062   3.434   0.642   9.487 -0.6689  0.3160  0.3868
   15CHL1   C18 1063   3.284   0.590   9.478 -0.0808  0.6747 -0.1429
   15CHL1  H18A 1064   3.242   0.572   9.579 -1.2625  0.2460 -0.6888
   15CHL1  H18B 1065   3.215   0.653   9.417 -2.1423  0.4911  1.8730
   15CHL1  H18C 1066   3.274   0.489   9.432  0.6512 -0.0331  1.1918
   15CHL1   C12 1067   3.511   0.539   9.572 -0.7315 -0.1071 -0.0860
   15CHL1  H12A 1068   3.490   0.436   9.536 -0.7874 -0.1400  0.0384
   15CHL1  H12B 1069   3.619   0.565   9.563 -0.2610 -0.6850  2.8392
   15CHL1   C11 1070   3.474   0.552   9.722  0.0050  0.1263  0.4919
   15CHL1  H11A 1071   3.372   0.507   9.724 -0.6914  1.5429 -1.2498
   15CHL1  H11B 1072   3.543   0.499   9.792 -1.3164  2.2235  3.6032
   15CHL1    C9 1073   3.462   0.699   9.773  0.6334 -0.0869  0.0163
   15CHL1    H9 1074   3.565   0.742   9.776  1.4715 -2.0253  0.4484
   15CHL1   C10 1075   3.422   0.705   9.922  0.2753  0.2028  0.1958
   15CHL1   C19 1076   3.281   0.633   9.934 -1.1845  0.0218 -0.5083
   15CHL1  H19A 1077   3.250   0.627  10.041  0.8402  2.2629  0.3248
   15CHL1  H19B 1078   3.192   0.680   9.889 -1.2627  0.3955  0.0178
   15CHL1  H19C 1079   3.279   0.526   9.906 -3.7538 -0.0733 -0.1590
   15CHL1    C1 1080   3.529   0.640  10.009  0.2151 -0.0817 -0.0140
   15CHL1   H1A 1081   3.528   0.532   9.981 -1.1839  0.6373 -3.1844
   15CHL1   H1B 1082   3.626   0.684   9.980 -0.4895  1.3807 -0.2304
   15CHL1    C2 1083   3.514   0.675  10.156 -0.2469 -0.3483 -0.3884
   15CHL1   H2A 1084   3.597   0.631  10.215 -1.0671  0.3057  1.3238
   15CHL1   H2B 1085   3.425   0.623  10.198 -0.8910  1.6425  0.8211
   15CHL1   C20 1086   3.433   0.559   9.232 -0.7238  0.6374  0.6654
   15CHL1   H20 1087   3.324   0.537   9.234 -0.1685 -2.6161 -0.3114
   15CHL1   C21 1088   3.502   0.425   9.268 -0.3114 -1.1777 -1.4111
   15CHL1  H21A 1089   3.490   0.345   9.191  0.8058 -1.7778 -0.9817
   15CHL1  H21B 1090   3.460   0.381   9.361 -1.1699 -0.3640 -1.3984
   15CHL1  H21C 1091   3.611   0.444   9.275 -0.8175  1.5125  2.1637
   15CHL1   C22 1092   3.476   0.595   9.087  0.1634  0.3305 -1.6193
   15CHL1  H22A 1093   3.465   0.704   9.076 -0.9074  0.3264 -0.7539
   15CHL1  H22B 1094   3.586   0.583   9.072  0.7485  0.9323  1.4624
   15CHL1   C23 1095   3.394   0.519   8.984 -0.2070  0.6738  0.2731
   15CHL1  H23A 1096   3.388   0.414   9.020  0.0167  1.2577  2.1675
   15CHL1  H23B 1097   3.289   0.553   9.001  0.1881  1.2603  1.7564
   15CHL1   C24 1098   3.438   0.539   8.842  0.2357 -0.7563 -0.8064
   15CHL1  H24A 1099   3.535   0.486   8.832  0.6674 -0.9194  2.9296
   15CHL1  H24B 1100   3.357   0.490   8.784 -1.9263  1.0011  0.5611
   15CHL1   C25 1101   3.452   0.679   8.785  0.4194 -0.0988 -0.7076
   15CHL1   H25 1102   3.531   0.731   8.844 -2.3927  1.9621  1.5501
   15CHL1   C26 1103   3.496   0.678   8.635  0.0528  0.9246  0.7700
   15CHL1  H26A 1104   3.513   0.778   8.589 -0.1388  0.3955 -0.5125
   15CHL1  H26B 1105   3.573   0.603   8.608 -0.7372  0.9361 -1.8654
   15CHL1  H26C 1106   3.412   0.627   8.582  0.3349  1.2085  0.0410
   15CHL1   C27 1107   3.327   0.763   8.815  0.6177 -0.1322  0.1201
   15CHL1  H27A 1108   3.350   0.864   8.774  0.4954  0.0324  0.4537
   15CHL1  H27B 1109   3.238   0.724   8.760  1.7756 -3.4461  0.3625
   15CHL1  H27C 1110   3.304   0.765   8.923 -0.3621 -0.5325 -0.0678
   16CHL1    C3 1111   5.579   2.538  10.394 -0.0407 -0.7171  0.5832
   16CHL1    H3 1112   5.504   2.455  10.399 -0.1416 -0.5781  1.8410
   16CHL1    O3 1113   5.624   2.567  10.527 -0.0540  0.5146  0.6034
   16CHL1   H3' 1114   5.716   2.592  10.521 -0.5476  2.4865  0.6265
   16CHL1    C4 1115   5.694   2.505  10.303 -0.8063  0.5380  0.2817
   16CHL1   H4A 1116   5.755   2.597  10.315  1.1686 -0.7649  0.7351
   16CHL1   H4B 1117   5.759   2.427  10.348  1.1986  2.6700  1.3081
   16CHL1    C5 1118   5.659   2.471  10.163  0.3404  0.1600  0.0810
   16CHL1    C6 1119   5.687   2.347  10.115  1.1840 -0.6582  0.5396
   16CHL1    H6 1120   5.733   2.275  10.185 -0.2048 -1.0109  1.1291
   16CHL1    C7 1121   5.657   2.316   9.968  0.7791  0.2006  0.3406
   16CHL1   H7A 1122   5.750   2.269   9.928  0.3173  0.3702 -1.0068
   16CHL1   H7B 1123   5.570   2.247   9.957 -1.6593  3.0396  0.4859
   16CHL1    C8 1124   5.617   2.441   9.878  0.3069  0.0251 -0.1396
   16CHL1    H8 1125   5.702   2.508   9.853 -1.5075  1.3975 -3.1715
   16CHL1   C14 1126   5.558   2.406   9.743  0.4873 -0.4261 -0.0424
   16CHL1   H14 1127   5.467   2.356   9.784  0.1363  0.6620  0.5446
   16CHL1   C15 1128   5.639   2.306   9.660  0.2295  0.5994 -0.0528
   16CHL1  H15A 1129   5.747   2.327   9.648  1.4477 -3.5949  1.6660
   16CHL1  H15B 1130   5.635   2.210   9.715  0.6111  1.7512  2.0889
   16CHL1   C16 1131   5.566   2.312   9.526  0.3401  0.3765  0.3978
   16CHL1  H16A 1132   5.652   2.331   9.458 -0.7880  2.0328 -0.6361
   16CHL1  H16B 1133   5.506   2.221   9.504 -0.5570  0.7816  1.1168
   16CHL1   C17 1134   5.466   2.430   9.529 -0.1216  0.9354  0.8821
   16CHL1   H17 1135   5.372   2.375   9.552  1.4353 -2.7472 -0.8382
   16CHL1   C13 1136   5.495   2.514   9.650 -0.2562 -0.2606 -0.4506
   16CHL1   C18 1137   5.621   2.610   9.621  0.7339  0.2240 -0.0648
   16CHL1  H18A 1138   5.694   2.557   9.556  0.4787 -0.7944  0.4610
   16CHL1  H18B 1139   5.585   2.705   9.577 -0.4872  0.2178  0.8689
   16CHL1  H18C 1140   5.676   2.633   9.715  1.3523 -0.6808 -0.1893
   16CHL1   C12 1141   5.398   2.596   9.731  0.3901  0.4811  0.0178
   16CHL1  H12A 1142   5.358   2.685   9.677  0.2175  1.1925  1.2886
   16CHL1  H12B 1143   5.308   2.539   9.763  1.2441 -0.7621  0.2846
   16CHL1   C11 1144   5.465   2.648   9.861 -0.4143 -0.2002 -0.5104
   16CHL1  H11A 1145   5.547   2.719   9.836  0.2333 -1.3834 -1.8781
   16CHL1  H11B 1146   5.386   2.704   9.916  0.5620  3.4186 -2.4864
   16CHL1    C9 1147   5.517   2.536   9.950 -0.2921  0.1750 -0.6164
   16CHL1    H9 1148   5.431   2.466   9.964  0.0876 -0.5633 -1.8065
   16CHL1   C10 1149   5.572   2.576  10.090  0.6938  1.1673 -0.3646
   16CHL1   C19 1150   5.655   2.711  10.072 -0.2635  0.3047 -0.4641
   16CHL1  H19A 1151   5.719   2.733  10.160 -0.0801  0.4777 -0.6399
   16CHL1  H19B 1152   5.733   2.697   9.994  0.6450  0.9931  0.3000
   16CHL1  H19C 1153   5.594   2.798  10.043  0.0200  0.2898 -1.1437
   16CHL1    C1 1154   5.447   2.613  10.186 -1.0850  0.4425  0.5049
   16CHL1   H1A 1155   5.390   2.705  10.161 -0.0589  0.8746 -0.3541
   16CHL1   H1B 1156   5.389   2.520  10.203 -0.7627 -0.4593 -2.6179
   16CHL1    C2 1157   5.507   2.659  10.326 -0.7242  0.0731 -0.3788
   16CHL1   H2A 1158   5.430   2.694  10.397  0.0869  2.7947 -0.7111
   16CHL1   H2B 1159   5.581   2.742  10.313 -2.5779  1.7529 -0.6405
   16CHL1   C20 1160   5.447   2.492   9.389 -0.7656  0.6121  0.7252
   16CHL1   H20 1161   5.544   2.537   9.358 -1.0204 -0.1331 -1.3741
   16CHL1   C21 1162   5.341   2.599   9.394 -0.2237 -0.0208  0.2210
   16CHL1  H21A 1163   5.377   2.674   9.467 -0.4292  0.1497  0.1448
   16CHL1  H21B 1164   5.241   2.559   9.421  0.0323  0.8941  2.8170
   16CHL1  H21C 1165   5.339   2.644   9.293 -1.1378  0.3484  0.4011
   16CHL1   C22 1166   5.419   2.378   9.275 -0.6784  0.3992  0.2909
   16CHL1  H22A 1167   5.506   2.310   9.272 -1.8945 -1.1666 -1.4336
   16CHL1  H22B 1168   5.323   2.335   9.311 -1.7934  3.3360  1.1685
   16CHL1   C23 1169   5.404   2.418   9.126 -0.3968  1.0476  0.3902
   16CHL1  H23A 1170   5.308   2.473   9.112 -0.7597  0.2864 -0.1715
   16CHL1  H23B 1171   5.492   2.478   9.094  0.6963 -1.4003 -1.5242
   16CHL1   C24 1172   5.414   2.292   9.036 -0.0649  0.3519  1.1524
   16CHL1  H24A 1173   5.510   2.241   9.062 -1.8518 -3.7502  0.5742
   16CHL1  H24B 1174   5.333   2.222   9.068 -0.3014  0.8885  1.7529
   16CHL1   C25 1175   5.391   2.325   8.880 -0.1163 -0.1556 -0.1381
   16CHL1   H25 1176   5.399   2.228   8.826 -0.0864 -0.4466  0.3822
   16CHL1   C26 1177   5.247   2.368   8.841  0.4460  0.1318  0.2579
   16CHL1  H26A 1178   5.234   2.346   8.733 -1.6261 -1.7732  0.7907
   16CHL1  H26B 1179   5.170   2.306   8.893  0.5404 -0.5310 -0.3713
   16CHL1  H26C 1180   5.222   2.474   8.861  0.0057 -0.1323  1.1980
   16CHL1   C27 1181   5.490   2.429   8.823  0.2615  0.2670  0.0449
   16CHL1  H27A 1182   5.490   2.426   8.712 -1.1050  0.3046  0.0321
   16CHL1  H27B 1183   5.469   2.535   8.851 -0.5089  0.4496 -1.1216
   16CHL1  H27C 1184   5.593   2.404   8.857  0.3836  0.1586 -0.3898
   17CHL1    C3 1185   3.706   3.120  10.325 -0.5870 -0.2708  1.0242
   17CHL1    H3 1186   3.805   3.170  10.313 -0.6044  0.0909  2.2573
   17CHL1    O3 1187   3.681   3.122  10.465 -0.2731  0.1517 -0.0341
   17CHL1   H3' 1188   3.692   3.217  10.474  1.4455  0.1078 -1.2362
   17CHL1    C4 1189   3.598   3.209  10.265 -0.0769  0.7205  0.4089
   17CHL1   H4A 1190   3.503   3.175  10.312  0.8742  0.6127  2.3622
   17CHL1   H4B 1191   3.613   3.315  10.293 -0.1545  0.9364 -0.3368
   17CHL1    C5 1192   3.595   3.183  10.115  0.3720 -0.3258 -0.0057
   17CHL1    C6 1193   3.608   3.284  10.034  0.8574 -0.1790 -0.2029
   17CHL1    H6 1194   3.610   3.386  10.076  0.2999  0.1390 -0.9070
   17CHL1    C7 1195   3.583   3.281   9.885  0.3281  0.6916 -0.4955
   17CHL1   H7A 1196   3.519   3.360   9.840 -1.9885 -0.4721  0.5825
   17CHL1   H7B 1197   3.678   3.281   9.828  0.4789  1.3043 -0.2484
   17CHL1    C8 1198   3.513   3.146   9.841 -0.0174  0.3619 -0.2722
   17CHL1    H8 1199   3.403   3.151   9.851 -0.0173 -1.7859  1.6495
   17CHL1   C14 1200   3.539   3.130   9.690  0.1135  0.7805 -0.1626
   17CHL1   H14 1201   3.649   3.137   9.678  0.1849  0.9494  0.5374
   17CHL1   C15 1202   3.505   3.240   9.587 -0.3063  0.0490 -0.3885
   17CHL1  H15A 1203   3.398   3.261   9.608 -0.3470  1.9099 -2.1254
   17CHL1  H15B 1204   3.563   3.334   9.596 -4.3546  2.7312  0.0258
   17CHL1   C16 1205   3.513   3.182   9.444  0.1280 -0.2985 -0.2272
   17CHL1  H16A 1206   3.421   3.211   9.389  0.8644  2.9064  0.0149
   17CHL1  H16B 1207   3.603   3.227   9.396  0.2507  0.7289  0.9073
   17CHL1   C17 1208   3.528   3.032   9.472 -0.5264  0.6591  0.6422
   17CHL1   H17 1209   3.639   3.029   9.478 -0.4444  3.0919  1.2009
   17CHL1   C13 1210   3.488   2.998   9.620  0.1647 -0.6196 -0.7858
   17CHL1   C18 1211   3.332   2.986   9.628 -1.0517  0.5407  0.2684
   17CHL1  H18A 1212   3.290   3.008   9.728 -2.5337  0.0986 -0.2351
   17CHL1  H18B 1213   3.281   3.072   9.579 -0.8316  0.0115 -0.9491
   17CHL1  H18C 1214   3.300   2.889   9.583  0.8210  0.1647 -0.3506
   17CHL1   C12 1215   3.551   2.878   9.692 -0.1664 -0.3931 -0.6889
   17CHL1  H12A 1216   3.528   2.778   9.649 -0.5940 -1.0824  1.0569
   17CHL1  H12B 1217   3.662   2.886   9.685 -0.3073  2.9131 -0.8413
   17CHL1   C11 1218   3.528   2.885   9.848 -0.0552 -0.1640  0.4004
   17CHL1  H11A 1219   3.422   2.870   9.879  0.5881  0.9098  3.4193
   17CHL1  H11B 1220   3.591   2.807   9.896  0.9438 -0.2260 -0.9715
   17CHL1    C9 1221   3.574   3.023   9.908  0.1366 -0.6061  0.3029
   17CHL1    H9 1222   3.680   3.028   9.877 -0.2532  0.8602 -0.9531
   17CHL1   C10 1223   3.569   3.039  10.064 -0.2023  0.1398 -0.3882
   17CHL1   C19 1224   3.428   2.996  10.123  0.6476 -0.2470 -0.8759
   17CHL1  H19A 1225   3.435   2.997  10.234  0.3509 -1.1570 -0.8469
   17CHL1  H19B 1226   3.359   3.074  10.083 -2.1935  0.0561  3.8356
   17CHL1  H19C 1227   3.403   2.893  10.090 -0.6799 -0.7973  1.6256
   17CHL1    C1 1228   3.683   2.952  10.121  0.4558 -0.3255 -0.6010
   17CHL1   H1A 1229   3.663   2.843  10.109 -1.5070  0.1041 -1.5351
   17CHL1   H1B 1230   3.779   2.961  10.066  0.7338  0.0069 -0.0726
   17CHL1    C2 1231   3.710   2.972  10.278  0.1995  0.0723  0.6923
   17CHL1   H2A 1232   3.807   2.931  10.315  0.8931  0.4007 -0.6981
   17CHL1   H2B 1233   3.632   2.917  10.335 -1.3450 -1.0158 -2.2700
   17CHL1   C20 1234   3.475   2.938   9.359  0.2902  0.9122  0.5593
   17CHL1   H20 1235   3.367   2.955   9.346  0.5247  0.9676 -1.6998
   17CHL1   C21 1236   3.489   2.787   9.392  0.4998  0.2872 -0.2639
   17CHL1  H21A 1237   3.451   2.739   9.300  2.8236  1.2858 -1.8513
   17CHL1  H21B 1238   3.434   2.770   9.487  2.4562 -0.4070  0.8142
   17CHL1  H21C 1239   3.593   2.750   9.409  1.0549  1.2821 -1.3021
   17CHL1   C22 1240   3.540   2.972   9.224  0.4567  0.4259  0.5526
   17CHL1  H22A 1241   3.525   3.082   9.217 -0.0116  0.3114 -0.3452
   17CHL1  H22B 1242   3.650   2.961   9.231  0.7908  0.2403 -3.0616
   17CHL1   C23 1243   3.494   2.892   9.099  0.0432  0.7186  1.2483
   17CHL1  H23A 1244   3.525   2.786   9.111  2.2724  1.1825  0.1073
   17CHL1  H23B 1245   3.385   2.897   9.082  0.1241 -1.2665 -0.2245
   17CHL1   C24 1246   3.565   2.951   8.975 -0.3193  0.7943 -0.3592
   17CHL1  H24A 1247   3.540   3.058   8.961  1.0278  1.1177 -0.4057
   17CHL1  H24B 1248   3.675   2.944   8.988 -0.4830 -1.2695  0.2211
   17CHL1   C25 1249   3.527   2.874   8.848  0.2247 -0.2740 -0.8114
   17CHL1   H25 1250   3.593   2.923   8.774 -1.9737  4.0594 -0.2377
   17CHL1   C26 1251   3.576   2.726   8.849 -0.4582  0.0169 -0.0034
   17CHL1  H26A 1252   3.535   2.657   8.926  0.5665 -0.6793 -0.0611
   17CHL1  H26B 1253   3.556   2.669   8.756 -1.4790 -0.0455  0.2468
   17CHL1  H26C 1254   3.685   2.731   8.873 -0.1413 -0.8258 -1.1938
   17CHL1   C27 1255   3.387   2.896   8.809  0.3339 -0.5034  0.1657
   17CHL1  H27A 1256   3.373   3.006   8.801  2.2155 -0.0762  2.0118
   17CHL1  H27B 1257   3.357   2.830   8.724 -3.4723  0.0350  0.9310
   17CHL1  H27C 1258   3.316   2.871   8.890  1.6924 -0.4060  1.4202
   18CHL1    C3 1259   6.687   1.747  10.281  0.1602 -0.0443 -0.1045
   18CHL1    H3 1260   6.585   1.702  10.276 -0.4484  1.3284 -0.7518
   18CHL1    O3 1261   6.719   1.794  10.415  0.6909  0.1945 -0.3765
   18CHL1   H3' 1262   6.709   1.889  10.405  0.2916  0.1701 -0.2232
   18CHL1    C4 1263   6.792   1.656  10.233  0.0135  0.1922  0.0862
   18CHL1   H4A 1264   6.894   1.699  10.246  0.7181 -1.7575  1.3781
   18CHL1   H4B 1265   6.798   1.569  10.301 -0.0919  0.4668  0.4513
   18CHL1    C5 1266   6.770   1.604  10.093 -0.7341  0.0673  0.2057
   18CHL1    C6 1267   6.748   1.477  10.062  0.2987 -0.3794 -0.8368
   18CHL1    H6 1268   6.739   1.400  10.140 -0.7714 -0.4160 -0.9831
   18CHL1    C7 1269   6.730   1.421   9.927  0.2127  0.5104 -0.2110
   18CHL1   H7A 1270   6.797   1.335   9.906 -3.3533 -1.8467 -3.2078
   18CHL1   H7B 1271   6.631   1.374   9.907  1.4194 -1.3765 -2.1434
   18CHL1    C8 1272   6.762   1.518   9.815  0.2245 -0.2843  0.0362
   18CHL1    H8 1273   6.873   1.526   9.815  0.0976  2.6277  1.1267
   18CHL1   C14 1274   6.707   1.469   9.679 -0.1332 -0.3440 -0.1075
   18CHL1   H14 1275   6.597   1.455   9.688 -0.3223  0.9734 -0.0996
   18CHL1   C15 1276   6.762   1.335   9.634  0.1471  0.6335 -0.3728
   18CHL1  H15A 1277   6.870   1.331   9.657 -0.2495  0.7815  1.7375
   18CHL1  H15B 1278   6.712   1.256   9.695  3.1367 -0.0021  1.4783
   18CHL1   C16 1279   6.718   1.334   9.489  0.4661  0.2331 -0.1268
   18CHL1  H16A 1280   6.799   1.306   9.417  0.6831 -1.2851  0.6689
   18CHL1  H16B 1281   6.633   1.265   9.470  1.4878 -0.9696 -0.5262
   18CHL1   C17 1282   6.668   1.477   9.456  0.3865  0.2489  0.2268
   18CHL1   H17 1283   6.559   1.482   9.477  0.7627  2.3112  1.9723
   18CHL1   C13 1284   6.726   1.563   9.567 -0.0927 -0.4732 -0.2560
   18CHL1   C18 1285   6.876   1.576   9.535 -0.3530 -0.5650  0.0337
   18CHL1  H18A 1286   6.885   1.651   9.454 -1.4804 -1.2174 -0.7154
   18CHL1  H18B 1287   6.937   1.612   9.622 -2.5947  2.1239  0.6525
   18CHL1  H18C 1288   6.924   1.486   9.492 -0.2128  0.2531 -1.5783
   18CHL1   C12 1289   6.664   1.702   9.601 -0.1281  0.8685 -0.6671
   18CHL1  H12A 1290   6.698   1.763   9.516  2.4353 -0.4472 -0.6818
   18CHL1  H12B 1291   6.553   1.688   9.602 -0.2484  1.8080 -0.7180
   18CHL1   C11 1292   6.723   1.763   9.731 -0.0402 -0.1628 -0.1998
   18CHL1  H11A 1293   6.831   1.783   9.720  0.5903 -2.6985  0.8179
   18CHL1  H11B 1294   6.663   1.854   9.751 -1.5166 -0.9334 -0.8719
   18CHL1    C9 1295   6.712   1.657   9.847 -0.5336  0.7592 -0.0271
   18CHL1    H9 1296   6.603   1.643   9.862 -0.4482  0.2111  0.0746
   18CHL1   C10 1297   6.763   1.709   9.986  0.0179 -0.9015  0.1538
   18CHL1   C19 1298   6.907   1.770   9.978 -0.5406 -0.0826 -0.3503
   18CHL1  H19A 1299   6.909   1.861   9.914 -0.4498  0.4917  0.4554
   18CHL1  H19B 1300   6.946   1.812  10.073 -0.3493 -1.7660  0.3390
   18CHL1  H19C 1301   6.978   1.693   9.939  0.6832  0.9772 -0.2869
   18CHL1    C1 1302   6.667   1.821  10.040  0.1628  0.1502  0.6397
   18CHL1   H1A 1303   6.671   1.911   9.974  3.7841  1.4975  2.4131
   18CHL1   H1B 1304   6.569   1.770  10.044  1.6853 -3.0231  0.0342
   18CHL1    C2 1305   6.683   1.871  10.184 -0.6257 -0.5155  0.2867
   18CHL1   H2A 1306   6.594   1.931  10.214 -1.0054 -1.9637  2.2840
   18CHL1   H2B 1307   6.776   1.927  10.204  0.0533 -1.6860  0.5018
   18CHL1   C20 1308   6.689   1.517   9.308  0.7491 -0.1488  0.0661
   18CHL1   H20 1309   6.798   1.512   9.289  0.9672  0.3835  1.0920
   18CHL1   C21 1310   6.648   1.661   9.291 -0.3604 -0.2760 -0.1618
   18CHL1  H21A 1311   6.626   1.686   9.185 -1.3703  1.2244  0.3649
   18CHL1  H21B 1312   6.731   1.731   9.313  0.1724 -0.9143 -0.1272
   18CHL1  H21C 1313   6.553   1.685   9.344 -0.4104 -0.0857 -0.3366
   18CHL1   C22 1314   6.621   1.418   9.211 -0.3964 -0.4870  0.6815
   18CHL1  H22A 1315   6.669   1.319   9.229  0.9352  0.3803  2.0008
   18CHL1  H22B 1316   6.517   1.413   9.252 -0.4978  0.2419  0.5203
   18CHL1   C23 1317   6.647   1.447   9.066  0.5331 -0.2151 -0.6626
   18CHL1  H23A 1318   6.620   1.549   9.031 -0.6829 -0.2688  0.0583
   18CHL1  H23B 1319   6.756   1.442   9.046  0.7216 -0.7443  0.3879
   18CHL1   C24 1320   6.565   1.353   8.976 -0.1646 -1.1948 -0.0594
   18CHL1  H24A 1321   6.615   1.259   9.007  0.1163 -0.7280  0.9652
   18CHL1  H24B 1322   6.458   1.339   9.000  0.2153 -1.6530  1.4691
   18CHL1   C25 1323   6.594   1.370   8.824  0.3188 -0.4183 -0.3818
   18CHL1   H25 1324   6.566   1.271   8.783  0.0398 -0.8323  0.7726
   18CHL1   C26 1325   6.493   1.466   8.759 -0.5957 -0.5616 -0.4915
   18CHL1  H26A 1326   6.524   1.491   8.656  1.3096  0.9520  0.3947
   18CHL1  H26B 1327   6.396   1.412   8.763 -1.2531  0.5565 -0.9014
   18CHL1  H26C 1328   6.483   1.552   8.829  1.6416 -1.7241  1.3960
   18CHL1   C27 1329   6.732   1.394   8.763  0.8301  0.5720 -0.2059
   18CHL1  H27A 1330   6.786   1.459   8.836 -2.4426  1.8783  1.2574
   18CHL1  H27B 1331   6.794   1.302   8.760  0.3362  0.2494 -0.6721
   18CHL1  H27C 1332   6.736   1.422   8.656  1.3476 -1.7708 -0.8605
   19CHL1    C3 1333   4.283   4.072   9.970  0.1020  0.5867  0.3118
   19CHL1    H3 1334   4.306   4.179   9.951  1.1229 -0.1713 -3.7251
   19CHL1    O3 1335   4.290   4.053  10.107 -0.1796 -0.6507  0.7219
   19CHL1   H3' 1336   4.216   3.995  10.128 -1.1244 -0.2702 -1.3767
   19CHL1    C4 1337   4.140   4.039   9.929  0.5617 -0.5042 -0.2467
   19CHL1   H4A 1338   4.123   3.933   9.956  0.9087 -1.6348 -3.9278
   19CHL1   H4B 1339   4.060   4.096   9.982  0.1525 -0.2190 -1.1489
   19CHL1    C5 1340   4.124   4.041   9.774 -0.4679 -0.5038 -0.0383
   19CHL1    C6 1341   4.035   4.118   9.708 -0.0650 -0.2235  0.0373
   19CHL1    H6 1342   3.961   4.187   9.752 -0.8482 -1.5418  0.8496
   19CHL1    C7 1343   4.019   4.115   9.552 -0.8913 -0.0556  0.2674
   19CHL1   H7A 1344   3.912   4.105   9.522 -1.3381  0.5254  1.5819
   19CHL1   H7B 1345   4.057   4.211   9.512 -0.6118  0.0481  0.7730
   19CHL1    C8 1346   4.095   3.997   9.482 -0.1938  0.6090  0.8377
   19CHL1    H8 1347   4.039   3.906   9.514  2.1392 -1.0857  0.3980
   19CHL1   C14 1348   4.101   4.017   9.336  0.5849  0.0359  0.1487
   19CHL1   H14 1349   4.168   4.103   9.313 -1.1385  1.2171 -0.6529
   19CHL1   C15 1350   3.976   4.055   9.248  0.9825  0.6049  0.2038
   19CHL1  H15A 1351   3.896   3.993   9.293  0.7879  0.3252 -0.5209
   19CHL1  H15B 1352   3.956   4.164   9.244 -0.2244  0.3671 -2.5702
   19CHL1   C16 1353   4.014   4.026   9.101  0.0228 -0.3129  0.0275
   19CHL1  H16A 1354   3.937   3.957   9.062 -0.5869  0.1703  0.3556
   19CHL1  H16B 1355   4.025   4.119   9.042  0.5180 -0.3502  0.0550
   19CHL1   C17 1356   4.154   3.962   9.107 -0.0152 -0.2248 -0.1591
   19CHL1   H17 1357   4.224   4.047   9.093 -2.0524  1.3840 -1.2235
   19CHL1   C13 1358   4.174   3.905   9.257 -0.5959 -0.7210 -0.6446
   19CHL1   C18 1359   4.103   3.768   9.281 -0.9128 -0.5540  0.2490
   19CHL1  H18A 1360   3.999   3.764   9.243 -1.4184 -1.3898  1.6113
   19CHL1  H18B 1361   4.166   3.689   9.236  0.8828 -0.0322  1.7088
   19CHL1  H18C 1362   4.092   3.753   9.391  1.5548  0.0347  0.6192
   19CHL1   C12 1363   4.316   3.907   9.305  0.2172  0.1797  0.3813
   19CHL1  H12A 1364   4.373   3.828   9.250  0.1793 -0.2434  0.9445
   19CHL1  H12B 1365   4.364   3.999   9.265 -1.2350  0.7540 -0.0870
   19CHL1   C11 1366   4.328   3.889   9.456  0.2995  0.2919  0.1614
   19CHL1  H11A 1367   4.306   3.782   9.478  0.1519  0.2446 -0.2180
   19CHL1  H11B 1368   4.430   3.911   9.496 -0.7580  0.3642  3.1249
   19CHL1    C9 1369   4.232   3.984   9.542 -0.0088  0.5306 -0.5190
   19CHL1    H9 1370   4.285   4.081   9.545  0.0229  0.5776 -1.9018
   19CHL1   C10 1371   4.234   3.954   9.696 -0.1983 -0.2300  1.0707
   19CHL1   C19 1372   4.214   3.800   9.719  1.0898  0.0877 -0.1574
   19CHL1  H19A 1373   4.312   3.748   9.709  0.3873 -0.9610 -2.2155
   19CHL1  H19B 1374   4.188   3.772   9.823  0.2933  1.6550  0.0887
   19CHL1  H19C 1375   4.153   3.749   9.641 -3.1132  2.8548  1.0334
   19CHL1    C1 1376   4.372   4.001   9.752 -0.8835 -0.1078  0.1761
   19CHL1   H1A 1377   4.462   3.949   9.711 -0.3975 -1.9917  3.2438
   19CHL1   H1B 1378   4.385   4.109   9.732  3.6127 -0.6123 -0.8120
   19CHL1    C2 1379   4.386   3.990   9.905 -0.2189  0.0510  1.0630
   19CHL1   H2A 1380   4.488   4.021   9.937  0.5541 -1.3606  0.0796
   19CHL1   H2B 1381   4.375   3.882   9.931 -0.6859  0.3038  1.9817
   19CHL1   C20 1382   4.179   3.871   8.987  0.9691  0.2885 -0.5000
   19CHL1   H20 1383   4.114   3.783   9.005  0.3647  0.7189 -0.5576
   19CHL1   C21 1384   4.320   3.816   8.981 -0.4604 -0.2022 -0.7325
   19CHL1  H21A 1385   4.391   3.893   8.944 -0.4246  0.1947  0.1333
   19CHL1  H21B 1386   4.330   3.727   8.915 -0.9950  0.3425 -1.5661
   19CHL1  H21C 1387   4.360   3.776   9.076 -0.6342  2.4292  0.5573
   19CHL1   C22 1388   4.131   3.927   8.847 -0.6800  0.2150 -0.0175
   19CHL1  H22A 1389   4.025   3.958   8.858 -0.1948  1.8344  0.4717
   19CHL1  H22B 1390   4.195   4.008   8.807  0.0738 -0.3167  0.0907
   19CHL1   C23 1391   4.134   3.821   8.739 -0.3395  0.3452 -0.4458
   19CHL1  H23A 1392   4.233   3.825   8.688 -1.5175  2.1519 -2.8024
   19CHL1  H23B 1393   4.121   3.719   8.780 -2.9559  1.2831  1.3327
   19CHL1   C24 1394   4.023   3.843   8.633  0.1395  0.1888 -0.5138
   19CHL1  H24A 1395   3.931   3.853   8.695 -1.3139 -3.2438 -1.8706
   19CHL1  H24B 1396   4.041   3.939   8.581  1.4648  2.2240  3.3276
   19CHL1   C25 1397   3.995   3.720   8.540  0.2293 -0.1808 -0.3447
   19CHL1   H25 1398   3.972   3.628   8.597  2.8339 -1.1741 -0.7591
   19CHL1   C26 1399   3.876   3.752   8.446 -0.1174  0.7708  0.2392
   19CHL1  H26A 1400   3.779   3.753   8.501 -0.8348  2.8251 -0.9682
   19CHL1  H26B 1401   3.891   3.849   8.395  1.0841  0.3080 -0.3074
   19CHL1  H26C 1402   3.871   3.675   8.366  1.1622  2.8981 -2.0187
   19CHL1   C27 1403   4.124   3.697   8.456 -0.1763 -0.0241 -0.4349
   19CHL1  H27A 1404   4.106   3.651   8.356  0.2574  1.7605 -1.3737
   19CHL1  H27B 1405   4.161   3.794   8.417  1.8066 -1.5248 -2.5694
   19CHL1  H27C 1406   4.200   3.644   8.518 -0.6663 -1.0586 -0.6866
   20CHL1    C3 1407   0.579   5.738  10.340  0.3475 -0.0650 -0.7583
   20CHL1    H3 1408   0.472   5.711  10.351  0.7747 -0.9397  2.2534
   20CHL1    O3 1409   0.635   5.737  10.471 -0.3012  0.4916 -0.0047
   20CHL1   H3' 1410   0.725   5.754  10.443 -0.9426  0.7763 -2.0158
   20CHL1    C4 1411   0.646   5.616  10.267 -0.0074  0.1663 -0.3785
   20CHL1   H4A 1412   0.756   5.624  10.260  0.1436 -1.9491 -1.3371
   20CHL1   H4B 1413   0.628   5.531  10.338  0.1377  0.3832 -0.0823
   20CHL1    C5 1414   0.584   5.603  10.129  0.3354 -0.3093 -0.2371
   20CHL1    C6 1415   0.515   5.493  10.108 -0.4680 -0.3552  0.2662
   20CHL1    H6 1416   0.497   5.415  10.184 -3.4396  1.7010  1.8864
   20CHL1    C7 1417   0.458   5.460   9.974  0.0937  0.4947  0.4650
   20CHL1   H7A 1418   0.501   5.369   9.927 -0.6669  0.9680 -1.2636
   20CHL1   H7B 1419   0.347   5.448   9.981  0.0722  0.2435 -0.1988
   20CHL1    C8 1420   0.494   5.571   9.865  0.1488 -0.5090  0.2257
   20CHL1    H8 1421   0.594   5.535   9.832  0.4058 -0.2683  0.7373
   20CHL1   C14 1422   0.406   5.572   9.739  0.3666  0.9927  0.5544
   20CHL1   H14 1423   0.311   5.608   9.784  0.4601  0.8883  0.8408
   20CHL1   C15 1424   0.367   5.440   9.669 -0.5434  0.3162  0.4325
   20CHL1  H15A 1425   0.451   5.368   9.658 -1.7363 -0.9643 -0.6997
   20CHL1  H15B 1426   0.302   5.391   9.745  1.9150 -1.0923  1.7352
   20CHL1   C16 1427   0.305   5.480   9.533 -0.0058  0.5253 -0.6354
   20CHL1  H16A 1428   0.337   5.417   9.447 -0.5679 -1.5402  0.5957
   20CHL1  H16B 1429   0.197   5.457   9.540 -0.1204 -0.5289 -4.1437
   20CHL1   C17 1430   0.344   5.628   9.507  0.1805 -0.4714  0.3212
   20CHL1   H17 1431   0.250   5.680   9.538 -0.9414 -2.0106 -0.3289
   20CHL1   C13 1432   0.445   5.665   9.615  0.3957  0.2409 -0.4499
   20CHL1   C18 1433   0.594   5.620   9.574  0.0272  0.3834 -0.3731
   20CHL1  H18A 1434   0.668   5.643   9.653  0.2479  3.5055 -1.3478
   20CHL1  H18B 1435   0.598   5.510   9.557 -2.5389  0.2079 -0.3274
   20CHL1  H18C 1436   0.612   5.668   9.475 -3.1740 -0.3869 -1.4821
   20CHL1   C12 1437   0.444   5.809   9.678 -0.4078  0.0214  0.6722
   20CHL1  H12A 1438   0.485   5.876   9.600 -2.0226 -1.4733 -1.5725
   20CHL1  H12B 1439   0.339   5.842   9.691  0.0387  2.2223 -0.7824
   20CHL1   C11 1440   0.519   5.830   9.815 -0.1005 -0.2379  0.7768
   20CHL1  H11A 1441   0.624   5.824   9.782 -0.3854 -1.0826 -0.0314
   20CHL1  H11B 1442   0.506   5.931   9.859  1.8068 -0.4581  1.9193
   20CHL1    C9 1443   0.497   5.712   9.924 -0.1499  0.3232  0.3502
   20CHL1    H9 1444   0.395   5.721   9.967 -0.6217  1.9404 -0.9785
   20CHL1   C10 1445   0.591   5.725  10.043  0.0975 -0.0092 -0.1892
   20CHL1   C19 1446   0.740   5.728   9.994  0.0967 -0.0167 -0.0866
   20CHL1  H19A 1447   0.756   5.641   9.926 -1.0212 -0.1896 -0.1395
   20CHL1  H19B 1448   0.761   5.824   9.942  1.2035  0.2362  0.7999
   20CHL1  H19C 1449   0.812   5.714  10.077  1.0005  1.3310 -0.6076
   20CHL1    C1 1450   0.553   5.859  10.122 -0.1340  0.4459 -0.1029
   20CHL1   H1A 1451   0.584   5.945  10.058 -0.3526 -0.5341 -1.5676
   20CHL1   H1B 1452   0.443   5.847  10.132 -0.3223 -2.9698 -3.7114
   20CHL1    C2 1453   0.616   5.863  10.260 -0.1556 -0.2454 -0.1657
   20CHL1   H2A 1454   0.573   5.948  10.317  2.6035  1.0352  0.1623
   20CHL1   H2B 1455   0.726   5.881  10.260 -0.1734  0.0383  1.6607
   20CHL1   C20 1456   0.379   5.651   9.366  0.7758 -0.4446  0.8154
   20CHL1   H20 1457   0.457   5.581   9.329  0.4127  0.0007 -0.8841
   20CHL1   C21 1458   0.412   5.796   9.338  0.3839  0.5485  0.0015
   20CHL1  H21A 1459   0.450   5.796   9.234  0.3626  2.0541 -0.0262
   20CHL1  H21B 1460   0.487   5.844   9.403 -0.8502  1.8023  0.5557
   20CHL1  H21C 1461   0.314   5.849   9.344 -0.4850 -0.9722 -0.0508
   20CHL1   C22 1462   0.250   5.607   9.284 -0.1914 -0.1226  0.7351
   20CHL1  H22A 1463   0.254   5.496   9.291  0.0918 -0.1651 -0.0015
   20CHL1  H22B 1464   0.158   5.641   9.336 -1.5808 -1.2683 -0.8690
   20CHL1   C23 1465   0.251   5.650   9.134  0.2216  0.0540 -0.1276
   20CHL1  H23A 1466   0.205   5.752   9.132 -0.2002 -0.1258  0.3405
   20CHL1  H23B 1467   0.355   5.638   9.097  0.7798  0.0545  1.3600
   20CHL1   C24 1468   0.173   5.540   9.061 -0.0214  0.5530  0.5723
   20CHL1  H24A 1469   0.235   5.448   9.062  1.1115  1.2706 -0.5691
   20CHL1  H24B 1470   0.085   5.511   9.122 -0.4867  0.8966  0.0784
   20CHL1   C25 1471   0.123   5.578   8.924 -0.1571 -0.0667 -0.2087
   20CHL1   H25 1472   0.085   5.683   8.927 -1.5135 -0.4745 -1.6786
   20CHL1   C26 1473   0.233   5.581   8.817  0.6633  0.2951  0.6313
   20CHL1  H26A 1474   0.239   5.481   8.769  1.7858  0.1385  1.0591
   20CHL1  H26B 1475   0.216   5.653   8.734  1.7325  0.4704  0.5427
   20CHL1  H26C 1476   0.333   5.613   8.853  0.8684  0.5553 -0.1386
   20CHL1   C27 1477   0.006   5.498   8.876 -0.2439 -0.6694 -1.6225
   20CHL1  H27A 1478  -0.085   5.514   8.937 -0.7716  2.9319 -3.1403
   20CHL1  H27B 1479  -0.030   5.535   8.778 -0.9949  1.7485 -0.4884
   20CHL1  H27C 1480   0.046   5.394   8.870  0.6626 -0.4418 -0.1161
   21CHL1    C3 1481   6.206   3.380  10.385  0.0915  0.1258  0.5974
   21CHL1    H3 1482   6.237   3.274  10.373  0.2842  0.1823  0.6009
   21CHL1    O3 1483   6.189   3.417  10.516  0.4873 -0.0964  0.1473
   21CHL1   H3' 1484   6.237   3.498  10.536  1.1457 -0.5447  0.3974
   21CHL1    C4 1485   6.314   3.472  10.331 -0.4488  0.1751 -0.6187
   21CHL1   H4A 1486   6.287   3.580  10.336 -0.2397  0.3194 -2.3340
   21CHL1   H4B 1487   6.403   3.446  10.393  1.4695 -1.6949 -3.8663
   21CHL1    C5 1488   6.341   3.462  10.180 -0.1032  0.1597  0.1883
   21CHL1    C6 1489   6.455   3.428  10.126 -0.2669  0.6434  0.9467
   21CHL1    H6 1490   6.549   3.414  10.181  1.8717  0.2146 -2.4802
   21CHL1    C7 1491   6.483   3.402   9.984  0.1411  0.0277  0.5126
   21CHL1   H7A 1492   6.585   3.434   9.956 -0.1349  0.7627  0.3036
   21CHL1   H7B 1493   6.483   3.292   9.971 -0.7848 -0.2682  2.5969
   21CHL1    C8 1494   6.366   3.455   9.886 -0.2697  0.2025  0.1102
   21CHL1    H8 1495   6.374   3.566   9.886  1.4509  0.1260  1.6895
   21CHL1   C14 1496   6.382   3.402   9.742 -0.5672 -0.5280 -0.3401
   21CHL1   H14 1497   6.378   3.291   9.745  0.1398 -0.5585  2.2608
   21CHL1   C15 1498   6.517   3.426   9.668  0.0523  0.2168 -0.5449
   21CHL1  H15A 1499   6.547   3.533   9.671  1.0426 -0.0484 -0.3115
   21CHL1  H15B 1500   6.590   3.360   9.721  0.6110  0.4696 -0.9890
   21CHL1   C16 1501   6.488   3.383   9.527  0.0319 -1.0602  0.4389
   21CHL1  H16A 1502   6.524   3.455   9.451  0.2429 -1.1128  0.4901
   21CHL1  H16B 1503   6.524   3.280   9.504  0.3266 -0.7401 -0.6140
   21CHL1   C17 1504   6.331   3.381   9.518  0.0409  0.0398  0.6351
   21CHL1   H17 1505   6.317   3.271   9.523  0.3824  0.0121  1.0652
   21CHL1   C13 1506   6.273   3.446   9.645  0.2507 -0.1739  0.6400
   21CHL1   C18 1507   6.272   3.595   9.627  0.3970 -0.4578 -0.3585
   21CHL1  H18A 1508   6.195   3.638   9.560  2.4497  2.3635 -1.1331
   21CHL1  H18B 1509   6.247   3.642   9.725 -1.3557 -2.2325  0.1221
   21CHL1  H18C 1510   6.366   3.634   9.584  0.3508  0.5174  0.3847
   21CHL1   C12 1511   6.138   3.389   9.698 -0.4352  0.3159 -1.2163
   21CHL1  H12A 1512   6.048   3.411   9.637 -0.5405  1.1594 -0.7721
   21CHL1  H12B 1513   6.150   3.279   9.695  1.6728  0.5059 -1.3394
   21CHL1   C11 1514   6.113   3.442   9.847 -0.2657 -0.4014 -0.0194
   21CHL1  H11A 1515   6.100   3.552   9.837  2.0001  0.0548  1.3589
   21CHL1  H11B 1516   6.015   3.400   9.877 -0.5793  0.8288  0.7519
   21CHL1    C9 1517   6.233   3.410   9.941 -0.1545 -0.5864 -0.5547
   21CHL1    H9 1518   6.235   3.299   9.936  1.8739 -0.5339 -2.7165
   21CHL1   C10 1519   6.210   3.454  10.090 -0.5080 -0.8655  1.0456
   21CHL1   C19 1520   6.170   3.604  10.081 -0.1264  0.9202  0.1191
   21CHL1  H19A 1521   6.149   3.650  10.180 -0.6605 -1.4253  1.1636
   21CHL1  H19B 1522   6.246   3.667  10.029 -0.5044  1.7343  0.5338
   21CHL1  H19C 1523   6.081   3.610  10.015  0.6566 -2.5809 -1.4825
   21CHL1    C1 1524   6.091   3.374  10.154  0.3345 -0.2420  0.1600
   21CHL1   H1A 1525   6.001   3.409  10.101 -0.2336 -2.1436 -0.2234
   21CHL1   H1B 1526   6.111   3.269  10.123  1.3241  0.1557 -0.6422
   21CHL1    C2 1527   6.078   3.397  10.305 -1.0182  0.2537  0.4543
   21CHL1   H2A 1528   6.004   3.329  10.352 -1.4241  0.2426 -0.1828
   21CHL1   H2B 1529   6.048   3.502  10.326  2.2607  1.2125  0.8922
   21CHL1   C20 1530   6.280   3.426   9.379 -0.0004 -0.9055 -0.4469
   21CHL1   H20 1531   6.298   3.535   9.365 -1.1949 -0.8054 -1.3424
   21CHL1   C21 1532   6.125   3.427   9.375  0.1707  0.1095 -0.0575
   21CHL1  H21A 1533   6.086   3.474   9.282  0.0618  0.5074  0.1872
   21CHL1  H21B 1534   6.074   3.489   9.451 -2.3581 -0.5660 -1.1270
   21CHL1  H21C 1535   6.098   3.320   9.370 -0.5290  0.3299 -1.3388
   21CHL1   C22 1536   6.341   3.357   9.253  0.1113  0.1821  0.2450
   21CHL1  H22A 1537   6.445   3.324   9.270  0.5952  0.8276 -1.2527
   21CHL1  H22B 1538   6.280   3.267   9.230  0.2727  0.3665 -0.9758
   21CHL1   C23 1539   6.349   3.459   9.138  0.0613 -0.2697 -0.0310
   21CHL1  H23A 1540   6.248   3.477   9.095 -0.2602  0.1806  0.8732
   21CHL1  H23B 1541   6.393   3.553   9.179  1.9451 -1.2492  0.3293
   21CHL1   C24 1542   6.425   3.413   9.014 -0.3695  1.2250 -0.7400
   21CHL1  H24A 1543   6.520   3.364   9.044 -1.8822 -1.3673  0.1245
   21CHL1  H24B 1544   6.362   3.338   8.961 -0.8786  1.2096 -0.1247
   21CHL1   C25 1545   6.462   3.511   8.895 -0.2492  0.2090 -0.0768
   21CHL1   H25 1546   6.497   3.611   8.929  2.8309 -0.1217 -1.9676
   21CHL1   C26 1547   6.583   3.459   8.817 -0.3139  0.1782  0.4397
   21CHL1  H26A 1548   6.560   3.354   8.787  0.6728 -0.4735  1.9080
   21CHL1  H26B 1549   6.603   3.521   8.726 -1.9238 -1.7344 -1.3255
   21CHL1  H26C 1550   6.671   3.448   8.883 -0.9683 -1.0002  1.1383
   21CHL1   C27 1551   6.350   3.543   8.794 -0.1308  0.3280 -0.2693
   21CHL1  H27A 1552   6.365   3.640   8.742 -1.2349  0.0319 -1.1811
   21CHL1  H27B 1553   6.320   3.462   8.724 -0.9719  0.1924  0.2444
   21CHL1  H27C 1554   6.257   3.559   8.852 -0.5677 -1.1745 -0.5200
   22CHL1    C3 1555   6.758   3.127  10.105 -0.7216 -0.0224 -0.3107
   22CHL1    H3 1556   6.699   3.218  10.079  0.1561  0.9301  0.8935
   22CHL1    O3 1557   6.808   3.132  10.240 -0.3049  0.2600 -0.8152
   22CHL1   H3' 1558   6.878   3.067  10.249  0.3722  1.1591  1.1201
   22CHL1    C4 1559   6.683   2.998  10.083  0.2540 -0.8602 -0.9229
   22CHL1   H4A 1560   6.743   2.913  10.122 -1.1581 -1.5584 -0.1874
   22CHL1   H4B 1561   6.600   3.010  10.156  0.3844  2.9823 -1.2146
   22CHL1    C5 1562   6.631   2.986   9.942  0.0945  0.5705  0.2082
   22CHL1    C6 1563   6.499   2.974   9.920 -0.2277  0.0458  0.6079
   22CHL1    H6 1564   6.436   2.974  10.011  1.7193  1.3662  2.0315
   22CHL1    C7 1565   6.436   2.969   9.784 -0.5888  0.0331  0.0261
   22CHL1   H7A 1566   6.363   2.885   9.782  0.8812 -1.2847 -0.2330
   22CHL1   H7B 1567   6.379   3.062   9.759 -0.7718 -0.8250 -3.3100
   22CHL1    C8 1568   6.536   2.941   9.671 -0.5535  0.5018 -0.2140
   22CHL1    H8 1569   6.552   2.831   9.670 -0.8288  0.4618 -0.3369
   22CHL1   C14 1570   6.474   2.971   9.541  0.2794  0.3542  0.4482
   22CHL1   H14 1571   6.449   3.079   9.545  0.2093  0.4144 -1.0653
   22CHL1   C15 1572   6.341   2.902   9.497  0.5922  0.4972 -0.2327
   22CHL1  H15A 1573   6.350   2.793   9.517 -0.1350  0.3121 -0.8766
   22CHL1  H15B 1574   6.251   2.944   9.548  1.2517 -0.7834  2.1235
   22CHL1   C16 1575   6.331   2.938   9.349  0.5217 -0.8546  0.0718
   22CHL1  H16A 1576   6.310   2.841   9.299  0.3096 -1.2783  0.9828
   22CHL1  H16B 1577   6.240   2.994   9.319  0.6967 -1.1461 -1.0523
   22CHL1   C17 1578   6.467   3.003   9.301  0.1916 -0.1260 -0.5882
   22CHL1   H17 1579   6.459   3.113   9.319  0.7957 -0.2802  0.7234
   22CHL1   C13 1580   6.558   2.957   9.418  0.0764 -0.1800  0.2274
   22CHL1   C18 1581   6.588   2.812   9.394  0.1310 -0.1255  0.3499
   22CHL1  H18A 1582   6.500   2.750   9.366 -1.6352  3.4536 -3.0286
   22CHL1  H18B 1583   6.659   2.793   9.310  2.0093 -0.9245  2.0515
   22CHL1  H18C 1584   6.637   2.761   9.479  0.5608 -0.4754 -0.1013
   22CHL1   C12 1585   6.687   3.032   9.431  0.3542  0.2087  0.1965
   22CHL1  H12A 1586   6.758   3.005   9.350 -0.0909 -2.0964  0.4983
   22CHL1  H12B 1587   6.655   3.139   9.432  0.2099  0.2183  2.9932
   22CHL1   C11 1588   6.758   3.007   9.567 -0.0607  0.4609  0.1535
   22CHL1  H11A 1589   6.798   2.904   9.554  0.9064  0.4236  2.7136
   22CHL1  H11B 1590   6.840   3.081   9.563 -0.1087  0.4487 -1.4148
   22CHL1    C9 1591   6.663   3.016   9.690  0.4584  0.1949  0.4264
   22CHL1    H9 1592   6.625   3.120   9.686  0.3449  0.1182 -1.1551
   22CHL1   C10 1593   6.735   2.992   9.826  0.0924 -0.1480 -0.1823
   22CHL1   C19 1594   6.813   2.860   9.825 -0.2930  0.6874  0.0141
   22CHL1  H19A 1595   6.893   2.862   9.749 -1.4017 -1.2583 -1.2937
   22CHL1  H19B 1596   6.878   2.837   9.912  1.0602  1.4767 -0.7611
   22CHL1  H19C 1597   6.748   2.774   9.797  2.1489 -0.7872 -1.3892
   22CHL1    C1 1598   6.831   3.108   9.858  0.1136 -0.6107  0.0116
   22CHL1   H1A 1599   6.918   3.092   9.791  0.0779 -0.2826 -0.1135
   22CHL1   H1B 1600   6.782   3.204   9.830 -0.5689 -0.5958  1.1726
   22CHL1    C2 1601   6.875   3.115  10.007  0.0060  0.4257  0.0337
   22CHL1   H2A 1602   6.924   3.213  10.025 -0.1779  0.5853 -0.3329
   22CHL1   H2B 1603   6.942   3.026  10.019  2.1433  1.7419 -1.4503
   22CHL1   C20 1604   6.498   2.982   9.154  0.4230  1.0137  0.1665
   22CHL1   H20 1605   6.530   2.876   9.139 -0.3540  0.1152  3.8893
   22CHL1   C21 1606   6.614   3.072   9.112  0.0545 -0.3397 -0.1662
   22CHL1  H21A 1607   6.711   3.054   9.163  0.6039 -1.1569 -1.4316
   22CHL1  H21B 1608   6.583   3.173   9.146 -0.0203 -0.7269  0.9361
   22CHL1  H21C 1609   6.621   3.059   9.002 -0.1185 -0.2165 -0.1927
   22CHL1   C22 1610   6.367   3.016   9.067  0.7061 -0.3801 -0.1600
   22CHL1  H22A 1611   6.283   2.948   9.092  0.7475 -0.3711  0.0055
   22CHL1  H22B 1612   6.339   3.123   9.084  2.9244  0.5298 -1.6771
   22CHL1   C23 1613   6.382   3.018   8.914  0.1392 -0.1472  0.3115
   22CHL1  H23A 1614   6.458   3.096   8.891  0.1689  0.0352  1.0061
   22CHL1  H23B 1615   6.429   2.927   8.871 -0.2948 -0.6522  0.8873
   22CHL1   C24 1616   6.254   3.053   8.837 -0.1903 -0.0910  0.2588
   22CHL1  H24A 1617   6.177   2.976   8.863  1.2683 -1.7219 -0.0767
   22CHL1  H24B 1618   6.210   3.149   8.871  0.5547 -0.3797  2.1475
   22CHL1   C25 1619   6.264   3.058   8.681  0.5127 -0.4405  0.4887
   22CHL1   H25 1620   6.281   2.953   8.648  1.2728  0.3214 -1.7099
   22CHL1   C26 1621   6.128   3.105   8.616  0.7923  0.3215  0.5082
   22CHL1  H26A 1622   6.139   3.111   8.505  0.5281  1.3932  0.5345
   22CHL1  H26B 1623   6.044   3.039   8.647 -0.2753  0.6359 -1.5188
   22CHL1  H26C 1624   6.092   3.202   8.655  0.3536 -0.6694  2.7094
   22CHL1   C27 1625   6.375   3.146   8.636  0.3490  0.0354  0.1260
   22CHL1  H27A 1626   6.371   3.250   8.674 -1.6907  0.0419  0.0104
   22CHL1  H27B 1627   6.478   3.108   8.654 -0.0437 -0.4189  1.6013
   22CHL1  H27C 1628   6.369   3.146   8.525  0.6676 -0.1208  0.1070
   23CHL1    C3 1629   1.798   5.981  10.176 -0.4220 -0.2491 -0.0860
   23CHL1    H3 1630   1.904   5.950  10.164 -0.1721  0.1515  0.9658
   23CHL1    O3 1631   1.780   6.031  10.303  0.1051 -0.3186 -0.6265
   23CHL1   H3' 1632   1.776   5.956  10.362 -0.0924  0.1242 -0.0739
   23CHL1    C4 1633   1.789   6.094  10.077 -0.0271 -0.0647  0.5550
   23CHL1   H4A 1634   1.700   6.155  10.104  0.1848 -0.1665  1.5242
   23CHL1   H4B 1635   1.879   6.156  10.090 -1.2426  2.2527 -1.3634
   23CHL1    C5 1636   1.772   6.052   9.931  0.0005  0.3228 -0.1897
   23CHL1    C6 1637   1.855   6.105   9.843 -0.0055 -0.4158 -0.7121
   23CHL1    H6 1638   1.932   6.173   9.883 -0.5521 -0.0028 -0.3476
   23CHL1    C7 1639   1.861   6.081   9.690  0.0807  0.8680 -0.4765
   23CHL1   H7A 1640   1.862   6.176   9.633  1.4134  0.9686 -0.3071
   23CHL1   H7B 1641   1.956   6.034   9.656 -0.8878 -1.2272 -0.4707
   23CHL1    C8 1642   1.734   5.994   9.656  0.1175  0.5579 -0.0659
   23CHL1    H8 1643   1.650   6.065   9.642 -0.4195 -0.0752 -0.1219
   23CHL1   C14 1644   1.761   5.939   9.523  0.1321 -0.5783  0.4376
   23CHL1   H14 1645   1.846   5.870   9.539  1.2298  0.2115 -1.6633
   23CHL1   C15 1646   1.792   6.045   9.407 -0.0778 -0.3200 -0.3860
   23CHL1  H15A 1647   1.724   6.132   9.419 -1.6968 -1.7272  1.2586
   23CHL1  H15B 1648   1.900   6.069   9.417 -0.2340 -0.3382  2.0625
   23CHL1   C16 1649   1.762   5.964   9.277 -0.7621 -0.8605 -0.3114
   23CHL1  H16A 1650   1.689   6.011   9.208 -0.9417  0.1388  0.5187
   23CHL1  H16B 1651   1.861   5.951   9.228  0.6958  0.7740  1.9787
   23CHL1   C17 1652   1.709   5.830   9.328 -0.2015 -0.0109  0.0398
   23CHL1   H17 1653   1.790   5.768   9.371 -3.4447 -1.9441  4.0214
   23CHL1   C13 1654   1.647   5.860   9.463  0.0229 -0.5762  0.5456
   23CHL1   C18 1655   1.517   5.944   9.431  0.2936 -0.4766 -0.1423
   23CHL1  H18A 1656   1.481   5.994   9.523  1.7899  3.6629 -1.5623
   23CHL1  H18B 1657   1.524   6.020   9.351 -0.6200  0.1884  0.3905
   23CHL1  H18C 1658   1.425   5.884   9.413 -0.9224  1.1146  0.5263
   23CHL1   C12 1659   1.609   5.750   9.557 -0.9004 -0.2750  0.5349
   23CHL1  H12A 1660   1.528   5.689   9.511  1.1106 -1.8985 -1.1011
   23CHL1  H12B 1661   1.696   5.681   9.560 -1.1966 -0.6263  1.1872
   23CHL1   C11 1662   1.589   5.787   9.704 -0.8296  0.2676  0.1533
   23CHL1  H11A 1663   1.506   5.861   9.698 -0.6053  0.4634 -0.7314
   23CHL1  H11B 1664   1.558   5.701   9.767 -0.5014 -0.5200 -0.7275
   23CHL1    C9 1665   1.701   5.882   9.761 -0.8799  0.4479  0.1959
   23CHL1    H9 1666   1.793   5.819   9.768  0.5884  2.5728  0.9112
   23CHL1   C10 1667   1.676   5.935   9.902 -0.1878  0.8300 -0.6583
   23CHL1   C19 1668   1.532   5.985   9.920 -0.0579  0.2117  0.3918
   23CHL1  H19A 1669   1.463   5.902   9.947 -0.3343  0.7414  1.3807
   23CHL1  H19B 1670   1.525   6.057  10.005  1.2934  0.7062  0.1116
   23CHL1  H19C 1671   1.499   6.040   9.830  1.9818 -0.0206 -0.5624
   23CHL1    C1 1672   1.700   5.822  10.012  0.3268  0.4454  0.0184
   23CHL1   H1A 1673   1.625   5.742   9.998  1.1334 -0.2834 -0.2570
   23CHL1   H1B 1674   1.802   5.782   9.991  0.2554  1.1296 -1.8062
   23CHL1    C2 1675   1.688   5.870  10.160 -1.0594 -0.4961  0.1160
   23CHL1   H2A 1676   1.712   5.783  10.226  0.2675 -0.6509 -0.5213
   23CHL1   H2B 1677   1.587   5.907  10.186 -1.6242 -1.1570 -1.0344
   23CHL1   C20 1678   1.634   5.731   9.235 -0.5828  0.3332 -0.7867
   23CHL1   H20 1679   1.560   5.677   9.298 -0.6560  1.7814  0.4391
   23CHL1   C21 1680   1.731   5.628   9.178  0.2846 -0.0556 -0.0817
   23CHL1  H21A 1681   1.670   5.560   9.116 -0.7003  0.5585  0.1947
   23CHL1  H21B 1682   1.776   5.571   9.262 -0.7516 -1.9179 -0.7413
   23CHL1  H21C 1683   1.817   5.670   9.121 -0.7661  0.3218 -1.4319
   23CHL1   C22 1684   1.538   5.799   9.129 -0.5126  0.2085 -0.4988
   23CHL1  H22A 1685   1.461   5.857   9.183 -1.0751 -0.4896 -0.5381
   23CHL1  H22B 1686   1.611   5.861   9.073 -1.2608  2.0584  0.4978
   23CHL1   C23 1687   1.454   5.700   9.037 -1.4700 -0.5835 -0.7313
   23CHL1  H23A 1688   1.533   5.645   8.982  1.8137  3.6688 -0.7503
   23CHL1  H23B 1689   1.373   5.650   9.094 -3.1782  0.0476 -2.5090
   23CHL1   C24 1690   1.369   5.770   8.933  0.5167 -0.7937  0.2362
   23CHL1  H24A 1691   1.321   5.698   8.863  0.1002  0.7612 -1.1416
   23CHL1  H24B 1692   1.288   5.817   8.992 -0.3445  0.0426 -1.5270
   23CHL1   C25 1693   1.434   5.892   8.863  0.8401 -0.4755  0.4881
   23CHL1   H25 1694   1.494   5.954   8.933  0.6800  0.3841 -0.1245
   23CHL1   C26 1695   1.544   5.851   8.768 -0.2661  1.2096  0.7533
   23CHL1  H26A 1696   1.501   5.779   8.695  1.8440 -0.4065  0.9965
   23CHL1  H26B 1697   1.591   5.938   8.718 -0.6310  0.0264 -1.8321
   23CHL1  H26C 1698   1.621   5.786   8.816 -0.4404  0.5755  0.1968
   23CHL1   C27 1699   1.321   5.972   8.788  0.0261  0.4957  0.0414
   23CHL1  H27A 1700   1.350   6.078   8.783 -1.0746  0.8397  0.5565
   23CHL1  H27B 1701   1.292   5.932   8.688 -0.0610  0.3988  0.1053
   23CHL1  H27C 1702   1.229   5.968   8.850  0.0774 -2.5905  0.1171
   24CHL1    C3 1703   1.758   0.214  10.079 -0.1899 -0.1341 -0.6830
   24CHL1    H3 1704   1.757   0.102  10.082 -0.2386 -0.1152  0.9202
   24CHL1    O3 1705   1.749   0.259  10.212 -0.0291  0.0978 -0.4352
   24CHL1   H3' 1706   1.667   0.226  10.250  0.9726 -0.7160  1.1312
   24CHL1    C4 1707   1.886   0.257   9.997  0.2883  0.1993 -0.4723
   24CHL1   H4A 1708   1.890   0.368   9.993  4.3694  0.2499  1.1361
   24CHL1   H4B 1709   1.977   0.228  10.053  0.9452 -0.3725 -1.7892
   24CHL1    C5 1710   1.883   0.201   9.857  1.0980  0.4911 -0.2533
   24CHL1    C6 1711   1.986   0.140   9.805 -0.5268 -0.6896 -0.7332
   24CHL1    H6 1712   2.075   0.140   9.869 -1.9868 -0.6328  1.4365
   24CHL1    C7 1713   1.990   0.100   9.655 -0.4613 -0.3987  0.0706
   24CHL1   H7A 1714   2.090   0.114   9.608  0.0334  0.3334  1.2783
   24CHL1   H7B 1715   1.971  -0.009   9.661  2.6679 -1.1134 -1.1771
   24CHL1    C8 1716   1.878   0.156   9.573 -0.3012  0.1617  0.2843
   24CHL1    H8 1717   1.901   0.264   9.559 -2.4196  0.6098 -0.1897
   24CHL1   C14 1718   1.872   0.086   9.441  0.3873  0.7087  0.2818
   24CHL1   H14 1719   1.854  -0.021   9.467  0.4513  0.3097 -1.2595
   24CHL1   C15 1720   1.995   0.076   9.354 -0.6530 -0.1935 -0.3019
   24CHL1  H15A 1721   2.061   0.161   9.376  1.0164 -1.4194 -0.3917
   24CHL1  H15B 1722   2.044  -0.018   9.387 -0.9300 -0.0067  0.6816
   24CHL1   C16 1723   1.936   0.054   9.210  0.1192  0.5615  0.3687
   24CHL1  H16A 1724   1.964   0.142   9.148 -2.2703  1.7617  0.8828
   24CHL1  H16B 1725   1.975  -0.040   9.166  1.2883  0.2075  2.0828
   24CHL1   C17 1726   1.787   0.051   9.219  0.2455 -0.0186  0.3865
   24CHL1   H17 1727   1.763  -0.055   9.240 -1.4867  0.1216 -0.7401
   24CHL1   C13 1728   1.758   0.130   9.354  0.9324 -0.5540 -0.7630
   24CHL1   C18 1729   1.780   0.281   9.317  0.4558  0.6563 -0.2887
   24CHL1  H18A 1730   1.758   0.354   9.397 -2.2602 -1.4986  1.0932
   24CHL1  H18B 1731   1.881   0.308   9.281 -0.6196  2.6835 -1.9763
   24CHL1  H18C 1732   1.717   0.315   9.232  2.8233  1.7403 -1.7172
   24CHL1   C12 1733   1.621   0.107   9.428 -0.4451 -0.5669  0.3480
   24CHL1  H12A 1734   1.536   0.143   9.367 -0.8150  0.0316  1.2028
   24CHL1  H12B 1735   1.601   0.001   9.454 -1.8176 -0.5310 -0.4900
   24CHL1   C11 1736   1.615   0.188   9.554 -0.0331 -0.1825 -0.0825
   24CHL1  H11A 1737   1.638   0.293   9.529  1.8145 -0.5601 -0.1292
   24CHL1  H11B 1738   1.518   0.173   9.606  0.5742 -0.5307  0.9905
   24CHL1    C9 1739   1.741   0.149   9.648 -0.0711  0.1801  0.4417
   24CHL1    H9 1740   1.717   0.042   9.664 -1.9646  0.3561 -0.8236
   24CHL1   C10 1741   1.746   0.229   9.785  1.1070 -0.2896  0.0395
   24CHL1   C19 1742   1.737   0.378   9.751 -0.1640 -0.5603  0.6821
   24CHL1  H19A 1743   1.823   0.411   9.689 -0.3689  1.4382  1.3870
   24CHL1  H19B 1744   1.638   0.400   9.704  0.6669  1.3914 -0.2630
   24CHL1  H19C 1745   1.731   0.444   9.840 -0.3083  1.1683 -0.5510
   24CHL1    C1 1746   1.620   0.194   9.868 -0.3731 -0.0790  0.3087
   24CHL1   H1A 1747   1.540   0.239   9.805 -0.8731  1.7669  2.1474
   24CHL1   H1B 1748   1.606   0.084   9.874  0.8961 -0.3784 -1.4562
   24CHL1    C2 1749   1.622   0.248  10.011 -0.4807 -0.4458 -0.0860
   24CHL1   H2A 1750   1.548   0.182  10.061 -0.4115  0.4004  1.1840
   24CHL1   H2B 1751   1.602   0.357  10.023 -0.4460 -0.5478  1.0037
   24CHL1   C20 1752   1.728   0.093   9.085 -0.3219  0.1467  0.6345
   24CHL1   H20 1753   1.765   0.196   9.068  1.7603 -0.6452  0.0599
   24CHL1   C21 1754   1.575   0.092   9.092  0.3936 -0.2638 -0.3106
   24CHL1  H21A 1755   1.545  -0.013   9.114 -1.5445  0.4067  0.3846
   24CHL1  H21B 1756   1.528   0.121   8.995 -0.5464 -0.1973  0.1601
   24CHL1  H21C 1757   1.530   0.152   9.173  0.5193 -0.5460 -0.0261
   24CHL1   C22 1758   1.782   0.004   8.966  0.9270 -0.2891 -0.1090
   24CHL1  H22A 1759   1.890   0.019   8.946  0.9149  1.9079  1.1496
   24CHL1  H22B 1760   1.752  -0.099   8.994 -1.2973  0.3189 -0.0858
   24CHL1   C23 1761   1.699   0.032   8.836 -0.6830  0.3133 -0.0091
   24CHL1  H23A 1762   1.611  -0.036   8.844 -2.4486  2.4954 -0.1791
   24CHL1  H23B 1763   1.673   0.139   8.836 -0.0661  0.4858 -1.3873
   24CHL1   C24 1764   1.770  -0.011   8.709 -0.4857 -0.1870 -0.3242
   24CHL1  H24A 1765   1.848   0.067   8.696  0.1391 -0.8042 -0.3338
   24CHL1  H24B 1766   1.816  -0.111   8.722  1.8099  1.0090  1.4238
   24CHL1   C25 1767   1.682  -0.012   8.586 -0.2766  0.1007  0.0217
   24CHL1   H25 1768   1.597  -0.082   8.601 -1.3390  0.8479 -2.1434
   24CHL1   C26 1769   1.625   0.132   8.564  0.4460 -0.3140 -0.1779
   24CHL1  H26A 1770   1.563   0.165   8.651 -1.2691 -0.0215 -1.4502
   24CHL1  H26B 1771   1.708   0.205   8.556 -0.8538  1.3228  0.4982
   24CHL1  H26C 1772   1.556   0.134   8.476 -0.0704  2.9487  0.1511
   24CHL1   C27 1773   1.760  -0.050   8.457 -0.2734 -0.2440 -0.1632
   24CHL1  H27A 1774   1.762  -0.161   8.449  2.2847 -0.3517  1.0827
   24CHL1  H27B 1775   1.717  -0.013   8.361  1.2151  0.5999 -0.5279
   24CHL1  H27C 1776   1.863  -0.010   8.458 -0.0996 -0.6885  1.4331
   25CHL1    C3 1777   4.407   1.091  10.368 -0.5612  0.0068  0.1025
   25CHL1    H3 1778   4.481   1.014  10.337 -1.1148  0.0697 -1.4407
   25CHL1    O3 1779   4.403   1.078  10.510 -0.8029 -0.1365  0.1577
   25CHL1   H3' 1780   4.333   1.141  10.528 -1.1935 -0.7831  0.9465
   25CHL1    C4 1781   4.439   1.227  10.311 -0.6611 -0.9499 -0.2322
   25CHL1   H4A 1782   4.364   1.298  10.353 -1.6806 -0.6763 -2.4125
   25CHL1   H4B 1783   4.535   1.263  10.353 -1.1890 -0.5716  0.6759
   25CHL1    C5 1784   4.444   1.219  10.157  0.6301  0.1073  0.4859
   25CHL1    C6 1785   4.554   1.244  10.087  0.4678 -0.0530  0.3064
   25CHL1    H6 1786   4.644   1.281  10.138 -1.7035  0.2257  4.3436
   25CHL1    C7 1787   4.565   1.235   9.937 -0.6036  1.0403 -0.5889
   25CHL1   H7A 1788   4.625   1.312   9.883 -1.9472  3.3212  0.9721
   25CHL1   H7B 1789   4.604   1.132   9.922  1.5282  1.0515  3.3738
   25CHL1    C8 1790   4.424   1.240   9.877  0.5429 -0.2951 -0.0433
   25CHL1    H8 1791   4.386   1.345   9.877  0.9190 -0.1026  2.1499
   25CHL1   C14 1792   4.428   1.203   9.735 -0.6715  0.5357  0.6345
   25CHL1   H14 1793   4.455   1.095   9.735 -1.5974  0.2864  1.3833
   25CHL1   C15 1794   4.537   1.268   9.643 -0.1810 -0.8397 -0.2371
   25CHL1  H15A 1795   4.553   1.377   9.657  0.0634 -0.3604 -3.4200
   25CHL1  H15B 1796   4.637   1.227   9.671  0.4543  2.0442  2.2696
   25CHL1   C16 1797   4.493   1.243   9.499  0.2582 -0.7354  0.2983
   25CHL1  H16A 1798   4.469   1.339   9.449  1.3202 -1.4001 -1.6160
   25CHL1  H16B 1799   4.566   1.177   9.447 -0.3942 -0.1111 -1.4637
   25CHL1   C17 1800   4.356   1.161   9.511 -0.1068  0.1706 -0.0629
   25CHL1   H17 1801   4.375   1.052   9.518 -1.8929 -0.1092  1.3445
   25CHL1   C13 1802   4.299   1.204   9.649 -0.4153 -0.7998 -0.5853
   25CHL1   C18 1803   4.232   1.346   9.651 -1.0751  0.0402 -0.2489
   25CHL1  H18A 1804   4.273   1.421   9.579 -2.1252  0.5276 -0.3675
   25CHL1  H18B 1805   4.129   1.330   9.612 -1.0160 -0.3728 -0.2366
   25CHL1  H18C 1806   4.224   1.378   9.757 -0.3864 -1.4113  0.2585
   25CHL1   C12 1807   4.195   1.114   9.721  0.3999  0.1274 -0.1325
   25CHL1  H12A 1808   4.095   1.118   9.673  0.3082 -0.7225 -0.0324
   25CHL1  H12B 1809   4.230   1.009   9.715  0.6250  0.0133  2.2688
   25CHL1   C11 1810   4.179   1.145   9.874  0.7929  0.6523 -0.9306
   25CHL1  H11A 1811   4.119   1.238   9.883 -0.1105  0.0065 -0.0580
   25CHL1  H11B 1812   4.122   1.063   9.922 -0.4321  1.2776 -1.2669
   25CHL1    C9 1813   4.317   1.152   9.947  0.0061  0.1961  0.1546
   25CHL1    H9 1814   4.350   1.047   9.934  0.9484  0.5569 -0.5358
   25CHL1   C10 1815   4.306   1.179  10.098  0.3676  0.2755 -0.1973
   25CHL1   C19 1816   4.209   1.300  10.127  1.0882 -0.5766 -0.0244
   25CHL1  H19A 1817   4.182   1.305  10.235 -3.5511  1.8790 -1.0264
   25CHL1  H19B 1818   4.263   1.391  10.094 -1.4778  0.9613 -0.2626
   25CHL1  H19C 1819   4.113   1.279  10.076  1.1875 -0.9045 -0.0765
   25CHL1    C1 1820   4.256   1.052  10.166  0.1459 -0.0748  0.3776
   25CHL1   H1A 1821   4.149   1.045  10.138  0.5200  0.6387 -1.3907
   25CHL1   H1B 1822   4.311   0.964  10.127 -0.0468 -0.4610  0.9790
   25CHL1    C2 1823   4.271   1.049  10.322  0.1633  0.3527 -1.4238
   25CHL1   H2A 1824   4.253   0.948  10.363 -0.7862  0.9014 -0.4516
   25CHL1   H2B 1825   4.191   1.108  10.372  0.0738 -0.8124 -0.1376
   25CHL1   C20 1826   4.255   1.189   9.391 -0.3182  0.3482  0.7094
   25CHL1   H20 1827   4.230   1.297   9.378  1.1078  0.5634 -0.5932
   25CHL1   C21 1828   4.112   1.112   9.410  0.3912  0.5734  0.0754
   25CHL1  H21A 1829   4.049   1.156   9.490 -0.9391 -0.8487 -0.1465
   25CHL1  H21B 1830   4.135   1.005   9.426 -1.9088  0.2835  2.0547
   25CHL1  H21C 1831   4.063   1.123   9.311 -0.7022 -0.6994  0.4484
   25CHL1   C22 1832   4.310   1.156   9.251 -0.4196  0.7650  0.0962
   25CHL1  H22A 1833   4.407   1.209   9.262 -0.0617 -0.2591  2.4222
   25CHL1  H22B 1834   4.332   1.048   9.269 -0.5022  0.8385  0.6562
   25CHL1   C23 1835   4.228   1.199   9.125  0.1493 -0.4860  0.5952
   25CHL1  H23A 1836   4.142   1.130   9.115 -0.0133 -0.0061 -1.8028
   25CHL1  H23B 1837   4.192   1.302   9.144  0.3949 -0.1290 -0.7857
   25CHL1   C24 1838   4.313   1.210   8.997  0.3781  0.5760 -0.6094
   25CHL1  H24A 1839   4.389   1.289   9.014  0.8250  0.1321 -0.5241
   25CHL1  H24B 1840   4.360   1.110   8.986 -0.9919 -0.3542  1.3025
   25CHL1   C25 1841   4.243   1.251   8.870  0.4600  0.1158 -0.3724
   25CHL1   H25 1842   4.209   1.356   8.879 -0.1329 -0.0327 -0.8048
   25CHL1   C26 1843   4.336   1.257   8.755 -0.6174 -0.4658  1.4056
   25CHL1  H26A 1844   4.388   1.160   8.740  0.9288  0.2813  1.6994
   25CHL1  H26B 1845   4.285   1.278   8.659  1.2149  0.5233  0.6058
   25CHL1  H26C 1846   4.413   1.337   8.766  2.4015 -2.8181 -0.8846
   25CHL1   C27 1847   4.112   1.169   8.844 -1.2734 -0.5475 -0.8513
   25CHL1  H27A 1848   4.032   1.205   8.913 -0.0775  4.1924 -1.5391
   25CHL1  H27B 1849   4.084   1.186   8.737 -3.0076 -0.4659 -0.4229
   25CHL1  H27C 1850   4.130   1.060   8.851  1.2248 -0.2298 -1.3822
   26CHL1    C3 1851   1.065   2.432   9.940 -0.0494  0.6032  0.4615
   26CHL1    H3 1852   1.159   2.378   9.916 -0.6467 -0.3438  0.2280
   26CHL1    O3 1853   1.044   2.448  10.076 -0.0604 -0.0054 -0.2152
   26CHL1   H3' 1854   1.018   2.361  10.108  2.4158 -1.3704 -1.5211
   26CHL1    C4 1855   1.075   2.569   9.875  0.1423 -0.4209  0.1777
   26CHL1   H4A 1856   0.983   2.627   9.900  2.2732  2.8536  0.9893
   26CHL1   H4B 1857   1.159   2.624   9.922  0.1389  1.0238 -1.4382
   26CHL1    C5 1858   1.099   2.558   9.724 -0.6292 -0.4497 -0.9600
   26CHL1    C6 1859   1.204   2.624   9.668  0.4993  0.3550  0.8386
   26CHL1    H6 1860   1.275   2.689   9.721  0.6144  1.5947 -0.7255
   26CHL1    C7 1861   1.226   2.620   9.518  0.3225  0.1104  0.7642
   26CHL1   H7A 1862   1.231   2.722   9.474  1.0225 -0.7439 -1.2243
   26CHL1   H7B 1863   1.313   2.555   9.497 -0.2658  0.0811 -2.0495
   26CHL1    C8 1864   1.112   2.551   9.440 -0.6033 -0.6332  0.3861
   26CHL1    H8 1865   1.023   2.617   9.432 -1.1806 -1.4907 -0.5057
   26CHL1   C14 1866   1.163   2.518   9.289  0.0614 -0.1051 -0.5498
   26CHL1   H14 1867   1.242   2.442   9.306 -1.6022 -1.8987 -0.4700
   26CHL1   C15 1868   1.224   2.622   9.199  0.1425 -1.3578  0.1608
   26CHL1  H15A 1869   1.158   2.711   9.196  1.0833 -0.6638 -1.2814
   26CHL1  H15B 1870   1.327   2.647   9.232  0.3013 -1.3537 -0.3273
   26CHL1   C16 1871   1.226   2.557   9.060 -0.2381 -0.0107  0.4434
   26CHL1  H16A 1872   1.178   2.624   8.985  0.2275 -2.8841 -2.6801
   26CHL1  H16B 1873   1.322   2.532   9.010 -0.3375 -1.3728  0.9104
   26CHL1   C17 1874   1.138   2.431   9.073 -0.8787  0.2097 -0.6856
   26CHL1   H17 1875   1.214   2.350   9.087 -0.4594  0.5962 -0.7088
   26CHL1   C13 1876   1.059   2.449   9.206  0.1903  1.0486 -0.1632
   26CHL1   C18 1877   0.932   2.535   9.180 -0.2400  0.1658 -0.0141
   26CHL1  H18A 1878   0.965   2.626   9.125 -2.0064  0.1795 -1.1690
   26CHL1  H18B 1879   0.859   2.477   9.119 -1.7306  2.6351 -0.7251
   26CHL1  H18C 1880   0.882   2.571   9.273  0.2823 -0.1153  0.3762
   26CHL1   C12 1881   1.024   2.314   9.283 -0.0230 -0.0765  0.6076
   26CHL1  H12A 1882   0.980   2.248   9.205  0.8962 -0.7961  0.6709
   26CHL1  H12B 1883   1.115   2.255   9.310 -0.6397 -1.4573 -0.2391
   26CHL1   C11 1884   0.960   2.333   9.423  0.9508 -0.2067  0.2144
   26CHL1  H11A 1885   0.857   2.375   9.412  1.0571 -0.2866 -1.2392
   26CHL1  H11B 1886   0.959   2.235   9.475  1.6503  0.3909  1.3937
   26CHL1    C9 1887   1.054   2.423   9.511 -0.9186  0.0379 -1.3988
   26CHL1    H9 1888   1.147   2.369   9.540 -2.0650 -1.0978  0.2935
   26CHL1   C10 1889   1.000   2.461   9.650 -0.7739 -0.4665 -0.9385
   26CHL1   C19 1890   0.865   2.537   9.637 -0.2458  0.1848  0.1709
   26CHL1  H19A 1891   0.831   2.597   9.725 -0.6772  2.0603 -1.2209
   26CHL1  H19B 1892   0.865   2.605   9.549  0.3825  2.3811  1.7596
   26CHL1  H19C 1893   0.782   2.466   9.616 -0.5766  0.1864  1.3788
   26CHL1    C1 1894   0.985   2.330   9.732  0.0926 -0.5997  0.0297
   26CHL1   H1A 1895   0.896   2.273   9.697 -1.3427  1.5829 -0.0767
   26CHL1   H1B 1896   1.076   2.267   9.717  1.0006  0.4577  0.8986
   26CHL1    C2 1897   0.958   2.343   9.881  0.7470 -0.2956  0.2169
   26CHL1   H2A 1898   0.965   2.240   9.922 -0.1586 -1.2258 -1.8381
   26CHL1   H2B 1899   0.851   2.362   9.903  0.6520 -1.2447  0.6094
   26CHL1   C20 1900   1.059   2.411   8.936 -0.7159 -0.1027  0.2378
   26CHL1   H20 1901   0.983   2.492   8.926  0.0507  0.4228 -1.6946
   26CHL1   C21 1902   0.979   2.287   8.938  0.9283  0.0588  0.0852
   26CHL1  H21A 1903   1.036   2.192   8.948 -2.0242 -2.0269 -1.5081
   26CHL1  H21B 1904   0.924   2.286   8.842  0.9364  1.0543  0.0635
   26CHL1  H21C 1905   0.903   2.281   9.019  0.9489  0.3115  0.1215
   26CHL1   C22 1906   1.158   2.410   8.811 -0.7187 -0.0776 -0.0556
   26CHL1  H22A 1907   1.090   2.392   8.725 -0.1471 -0.5100 -0.4247
   26CHL1  H22B 1908   1.207   2.510   8.808  2.1495 -1.4014 -0.1841
   26CHL1   C23 1909   1.271   2.305   8.805  0.5247  0.3886 -0.3043
   26CHL1  H23A 1910   1.342   2.326   8.888 -0.6435  0.7824  0.6219
   26CHL1  H23B 1911   1.226   2.207   8.829  2.6015 -0.6781 -0.5523
   26CHL1   C24 1912   1.330   2.294   8.665  0.3169  0.0788  0.2536
   26CHL1  H24A 1913   1.400   2.209   8.677 -1.2381 -1.3152 -0.1090
   26CHL1  H24B 1914   1.255   2.243   8.600  2.4006 -0.5168 -1.8090
   26CHL1   C25 1915   1.405   2.415   8.606 -0.5382 -0.0600  0.5122
   26CHL1   H25 1916   1.333   2.499   8.602  1.2276  1.5187  0.6713
   26CHL1   C26 1917   1.518   2.459   8.697  0.0937 -0.3895 -0.6551
   26CHL1  H26A 1918   1.564   2.543   8.641  0.5593 -0.6534 -0.6696
   26CHL1  H26B 1919   1.464   2.489   8.790  0.0096 -1.1227 -0.4596
   26CHL1  H26C 1920   1.596   2.384   8.719 -0.1857 -0.2443  0.9398
   26CHL1   C27 1921   1.455   2.387   8.461  0.5093  0.4893  0.5978
   26CHL1  H27A 1922   1.537   2.313   8.474 -1.2031 -1.2244  2.6327
   26CHL1  H27B 1923   1.370   2.349   8.400  0.1572 -2.1140  2.5522
   26CHL1  H27C 1924   1.495   2.483   8.422 -1.2991  0.2112 -2.2862
   27CHL1    C3 1925   4.614   0.627  10.357 -0.1208 -0.6945 -0.6912
   27CHL1    H3 1926   4.645   0.521  10.347  1.2848 -0.2132 -1.7353
   27CHL1    O3 1927   4.584   0.646  10.495 -0.0663 -0.2158  0.2573
   27CHL1   H3' 1928   4.604   0.733  10.531  0.3794  0.5899 -1.7846
   27CHL1    C4 1929   4.729   0.721  10.326 -0.8326  0.7787 -0.0869
   27CHL1   H4A 1930   4.713   0.829  10.346 -2.6252  1.2703 -3.3177
   27CHL1   H4B 1931   4.818   0.691  10.385 -0.7153  0.0185 -0.6287
   27CHL1    C5 1932   4.759   0.713  10.177 -0.8000  0.8724 -0.4811
   27CHL1    C6 1933   4.878   0.677  10.129  0.4909 -0.1938  0.5179
   27CHL1    H6 1934   4.956   0.643  10.198  1.3059  1.0595  0.2314
   27CHL1    C7 1935   4.919   0.685   9.983 -0.4945  0.2438 -0.6501
   27CHL1   H7A 1936   5.019   0.733   9.970  0.6661 -1.9811 -0.3258
   27CHL1   H7B 1937   4.938   0.587   9.935  0.9141  1.2327 -2.2473
   27CHL1    C8 1938   4.816   0.762   9.898 -0.0171 -0.2657  0.0137
   27CHL1    H8 1939   4.824   0.869   9.924 -0.7441  0.1208 -1.2503
   27CHL1   C14 1940   4.835   0.739   9.743  0.5185  0.0313  0.3234
   27CHL1   H14 1941   4.816   0.630   9.741  2.0103 -0.4451  3.8845
   27CHL1   C15 1942   4.973   0.762   9.685  0.5319  0.2806  0.5831
   27CHL1  H15A 1943   5.001   0.869   9.699  0.5306  0.3738 -0.0793
   27CHL1  H15B 1944   5.052   0.702   9.735  0.3896 -0.9673 -0.6651
   27CHL1   C16 1945   4.941   0.742   9.537 -0.2363  0.1033  0.0982
   27CHL1  H16A 1946   5.002   0.813   9.477  0.5311 -0.0750  0.6525
   27CHL1  H16B 1947   4.975   0.642   9.501  3.3506  0.9574  0.6723
   27CHL1   C17 1948   4.786   0.755   9.515  0.0482  0.9042 -0.8493
   27CHL1   H17 1949   4.741   0.654   9.500  1.6770  0.1433 -0.9051
   27CHL1   C13 1950   4.728   0.807   9.649 -0.0410  0.3031 -0.7524
   27CHL1   C18 1951   4.745   0.955   9.659 -0.9519  0.2719  0.6649
   27CHL1  H18A 1952   4.753   0.992   9.763 -3.2810  1.1129  0.5933
   27CHL1  H18B 1953   4.845   0.979   9.615 -0.9522  1.4246  1.2576
   27CHL1  H18C 1954   4.659   1.010   9.616 -0.5340  1.2868  1.1067
   27CHL1   C12 1955   4.596   0.753   9.698 -0.3397  0.0516 -0.8315
   27CHL1  H12A 1956   4.510   0.792   9.640 -1.7963 -1.4520  0.2223
   27CHL1  H12B 1957   4.607   0.644   9.679  0.8584  0.3415 -1.9579
   27CHL1   C11 1958   4.579   0.786   9.848  0.7211  0.1947  0.6489
   27CHL1  H11A 1959   4.567   0.896   9.849 -1.5209  0.0327 -0.6425
   27CHL1  H11B 1960   4.475   0.749   9.864  0.5125  0.1133 -0.6954
   27CHL1    C9 1961   4.681   0.726   9.938  0.7335 -0.0908 -0.4575
   27CHL1    H9 1962   4.676   0.615   9.926  0.0592  0.1423 -2.7521
   27CHL1   C10 1963   4.644   0.749  10.085 -0.7122  0.4403 -0.0612
   27CHL1   C19 1964   4.611   0.900  10.111 -0.0092 -0.2692 -0.7068
   27CHL1  H19A 1965   4.688   0.963  10.061  1.5233 -0.8278  0.8382
   27CHL1  H19B 1966   4.512   0.933  10.073  0.1069  0.4934 -0.3839
   27CHL1  H19C 1967   4.605   0.926  10.219  0.0656 -1.0061 -0.5214
   27CHL1    C1 1968   4.530   0.649  10.121 -0.5556 -0.3012 -0.3158
   27CHL1   H1A 1969   4.438   0.663  10.059 -0.5336 -0.1251 -0.3073
   27CHL1   H1B 1970   4.558   0.543  10.099  0.2626 -0.1918  0.1857
   27CHL1    C2 1971   4.498   0.661  10.270  0.4945 -0.1860 -0.3789
   27CHL1   H2A 1972   4.413   0.590  10.286  2.0882 -1.8810  1.0794
   27CHL1   H2B 1973   4.465   0.766  10.284 -0.3958 -0.5702  0.5804
   27CHL1   C20 1974   4.749   0.820   9.376  0.1539 -0.2140 -0.6371
   27CHL1   H20 1975   4.785   0.924   9.370 -2.4343  0.8343  0.4182
   27CHL1   C21 1976   4.602   0.829   9.365  0.4459  0.1240 -0.7717
   27CHL1  H21A 1977   4.559   0.731   9.394 -0.4378  1.1808  1.7493
   27CHL1  H21B 1978   4.568   0.852   9.262 -1.0101  1.0844 -0.1157
   27CHL1  H21C 1979   4.566   0.916   9.424 -0.1233 -1.5138  1.4153
   27CHL1   C22 1980   4.812   0.735   9.263  0.1790  0.0572 -0.0789
   27CHL1  H22A 1981   4.923   0.744   9.275  0.2002 -0.3284  0.0351
   27CHL1  H22B 1982   4.793   0.628   9.286  1.8067 -0.1611  0.4585
   27CHL1   C23 1983   4.772   0.786   9.123  0.6037 -0.4141  0.2409
   27CHL1  H23A 1984   4.838   0.719   9.065 -2.2686 -1.5682 -1.9137
   27CHL1  H23B 1985   4.662   0.770   9.114  0.3972 -0.3800  2.1485
   27CHL1   C24 1986   4.799   0.943   9.085 -0.2261 -0.0808  0.4507
   27CHL1  H24A 1987   4.720   1.001   9.136 -0.9737 -0.3625 -0.3547
   27CHL1  H24B 1988   4.894   0.972   9.135 -0.1559  0.5470 -0.0404
   27CHL1   C25 1989   4.800   0.972   8.929 -0.5740  0.1899  0.1525
   27CHL1   H25 1990   4.883   0.929   8.869 -1.1785  0.3047 -0.7892
   27CHL1   C26 1991   4.669   0.902   8.876  0.0863 -0.0177  0.5040
   27CHL1  H26A 1992   4.579   0.937   8.930  0.5673  2.8719 -0.3869
   27CHL1  H26B 1993   4.662   0.940   8.772  1.3092 -0.3124  0.2900
   27CHL1  H26C 1994   4.685   0.793   8.858 -0.5215  0.0663 -0.6437
   27CHL1   C27 1995   4.796   1.116   8.891 -0.1312 -1.3297  0.0701
   27CHL1  H27A 1996   4.765   1.122   8.785 -0.8771 -0.5392  0.3171
   27CHL1  H27B 1997   4.722   1.175   8.949 -0.8273 -2.2012  0.0968
   27CHL1  H27C 1998   4.894   1.168   8.898 -1.4055  1.2721 -0.1897
   28CHL1    C3 1999   4.194   6.311   9.885  0.3229  0.5960 -0.7426
   28CHL1    H3 2000   4.083   6.310   9.890  0.3404  0.8882 -0.1450
   28CHL1    O3 2001   4.261   6.302  10.013  0.4983 -0.3281 -0.1218
   28CHL1   H3' 2002   4.335   6.245   9.995  0.0105 -1.1483  0.3754
   28CHL1    C4 2003   4.222   6.185   9.807 -0.1175  0.3258 -0.5878
   28CHL1   H4A 2004   4.330   6.162   9.814 -0.3407 -0.4242  0.8636
   28CHL1   H4B 2005   4.174   6.100   9.862  0.7341  0.0007 -0.3411
   28CHL1    C5 2006   4.189   6.187   9.660 -0.0151 -0.1130 -0.3443
   28CHL1    C6 2007   4.117   6.087   9.597  0.4314  0.6989  0.6402
   28CHL1    H6 2008   4.073   6.005   9.657  0.8266 -0.0801 -0.1075
   28CHL1    C7 2009   4.076   6.084   9.450 -0.3515 -0.4868  0.1029
   28CHL1   H7A 2010   4.122   5.989   9.416  0.2697 -0.1842  0.0781
   28CHL1   H7B 2011   3.965   6.083   9.443 -0.6761 -0.6104  3.5633
   28CHL1    C8 2012   4.164   6.194   9.373 -0.3036 -0.2173 -0.1189
   28CHL1    H8 2013   4.266   6.152   9.365 -0.5158 -0.6038 -0.9838
   28CHL1   C14 2014   4.111   6.217   9.232  0.1068 -1.1647 -0.1819
   28CHL1   H14 2015   4.019   6.270   9.262  1.4433 -0.4887  3.0991
   28CHL1   C15 2016   4.070   6.094   9.156 -0.2281  0.0360 -0.3835
   28CHL1  H15A 2017   4.162   6.031   9.151 -0.8041 -1.0336  1.3427
   28CHL1  H15B 2018   3.980   6.039   9.193  0.6953  0.0198  1.9709
   28CHL1   C16 2019   4.041   6.143   9.014 -0.0797 -0.8307 -0.5771
   28CHL1  H16A 2020   4.099   6.080   8.944 -0.5540 -2.2239  0.2219
   28CHL1  H16B 2021   3.930   6.141   9.008  0.0116 -0.7246 -3.1134
   28CHL1   C17 2022   4.091   6.296   9.011 -0.5801 -0.2714 -0.1752
   28CHL1   H17 2023   4.001   6.350   9.047 -0.5422 -0.1558 -0.2524
   28CHL1   C13 2024   4.184   6.314   9.137 -0.2518  0.3638  0.1661
   28CHL1   C18 2025   4.321   6.259   9.095 -0.1977 -1.1296 -1.0808
   28CHL1  H18A 2026   4.380   6.222   9.182 -0.8989 -0.0505 -0.1004
   28CHL1  H18B 2027   4.311   6.172   9.028  0.4124 -4.3493  2.6449
   28CHL1  H18C 2028   4.378   6.347   9.056  0.7652 -1.1243  0.2655
   28CHL1   C12 2029   4.196   6.444   9.212 -0.1928  0.2346  0.3222
   28CHL1  H12A 2030   4.253   6.522   9.157  1.5075  0.2497  2.0058
   28CHL1  H12B 2031   4.092   6.484   9.212 -0.0847  0.5974 -1.3623
   28CHL1   C11 2032   4.257   6.433   9.350  0.0331 -0.2987  1.2203
   28CHL1  H11A 2033   4.364   6.403   9.340  0.3881  1.1763  0.1797
   28CHL1  H11B 2034   4.259   6.538   9.386  0.0780 -0.0486  0.5048
   28CHL1    C9 2035   4.180   6.332   9.446 -0.2946 -0.3211  0.2041
   28CHL1    H9 2036   4.076   6.370   9.448 -0.1621  0.1133 -0.7180
   28CHL1   C10 2037   4.240   6.317   9.593  0.7456  0.3253  0.2557
   28CHL1   C19 2038   4.391   6.303   9.600 -1.2348 -1.2563  0.0135
   28CHL1  H19A 2039   4.417   6.216   9.536  0.4400 -0.5931 -0.2545
   28CHL1  H19B 2040   4.444   6.390   9.555 -1.4215 -1.4535 -0.5947
   28CHL1  H19C 2041   4.431   6.281   9.701 -3.2191  0.2295  1.1947
   28CHL1    C1 2042   4.207   6.446   9.680  0.2185  0.2310 -0.4159
   28CHL1   H1A 2043   4.248   6.537   9.630  1.3685 -0.8348 -1.4801
   28CHL1   H1B 2044   4.098   6.464   9.679 -0.0905 -1.4675 -0.7146
   28CHL1    C2 2045   4.250   6.436   9.827 -0.2346  0.7779 -0.2804
   28CHL1   H2A 2046   4.204   6.522   9.881 -1.5783 -0.7318  1.0967
   28CHL1   H2B 2047   4.361   6.445   9.827 -0.2723  1.4166  0.7023
   28CHL1   C20 2048   4.124   6.373   8.876  0.4338 -0.0582 -0.8177
   28CHL1   H20 2049   4.226   6.343   8.846  0.3381 -0.3847 -0.8210
   28CHL1   C21 2050   4.148   6.519   8.911  0.8563  0.0700  0.1376
   28CHL1  H21A 2051   4.155   6.563   8.809 -0.0233 -0.1064 -0.0005
   28CHL1  H21B 2052   4.254   6.532   8.941  1.3550 -2.3626 -0.3747
   28CHL1  H21C 2053   4.075   6.568   8.978  1.0618 -0.2465  0.5914
   28CHL1   C22 2054   4.027   6.350   8.760  0.8446 -0.3764  0.1413
   28CHL1  H22A 2055   4.058   6.409   8.671 -3.6818 -0.5849 -1.8687
   28CHL1  H22B 2056   4.029   6.244   8.727 -1.8370 -1.3089  2.5146
   28CHL1   C23 2057   3.880   6.393   8.783 -0.1728 -0.1065  0.4820
   28CHL1  H23A 2058   3.833   6.330   8.862 -1.0749  2.0883  1.7827
   28CHL1  H23B 2059   3.884   6.495   8.828  3.8132 -1.1883  3.0621
   28CHL1   C24 2060   3.784   6.393   8.663  0.0503  1.0313 -0.0441
   28CHL1  H24A 2061   3.677   6.408   8.690 -0.6472  0.8801 -2.4886
   28CHL1  H24B 2062   3.808   6.474   8.591 -2.2317  0.9703 -0.9695
   28CHL1   C25 2063   3.801   6.258   8.587 -0.1149  0.0160  0.3181
   28CHL1   H25 2064   3.902   6.256   8.540 -0.5354 -1.0619 -0.5874
   28CHL1   C26 2065   3.776   6.131   8.670 -0.4885 -0.0570  0.7567
   28CHL1  H26A 2066   3.683   6.147   8.729 -1.7262  0.1183 -1.1643
   28CHL1  H26B 2067   3.755   6.046   8.602 -0.6123  0.1540  0.5303
   28CHL1  H26C 2068   3.860   6.119   8.742 -0.0787  0.2388  0.3278
   28CHL1   C27 2069   3.695   6.252   8.475  0.1421  0.9061 -0.6044
   28CHL1  H27A 2070   3.673   6.151   8.433 -1.8195  0.9212  0.2420
   28CHL1  H27B 2071   3.596   6.280   8.518 -0.3751 -3.5360  1.7437
   28CHL1  H27C 2072   3.723   6.319   8.392  0.5402  0.3866 -0.8967
   29CHL1    C3 2073   3.200   0.620   6.693 -0.0248 -0.1857 -0.2932
   29CHL1    H3 2074   3.107   0.681   6.690  0.5652  0.8164  0.8015
   29CHL1    O3 2075   3.239   0.594   6.555  0.0193 -0.2217  0.7087
   29CHL1   H3' 2076   3.317   0.539   6.566  1.1658  1.0975 -0.4496
   29CHL1    C4 2077   3.306   0.716   6.756  0.2847  0.7637  0.2756
   29CHL1   H4A 2078   3.407   0.675   6.731 -0.6267 -1.0144 -0.7543
   29CHL1   H4B 2079   3.300   0.809   6.695  1.5466  0.3712 -0.4918
   29CHL1    C5 2080   3.296   0.735   6.909 -0.6771  0.2758  0.2164
   29CHL1    C6 2081   3.291   0.855   6.962  0.5539  0.1885  0.1349
   29CHL1    H6 2082   3.289   0.945   6.899 -1.1511 -0.0670 -0.2323
   29CHL1    C7 2083   3.273   0.867   7.109 -0.2345  0.3994  0.5473
   29CHL1   H7A 2084   3.338   0.945   7.155 -0.5163 -0.0159  1.7016
   29CHL1   H7B 2085   3.171   0.907   7.127  0.1598  1.1456  1.2215
   29CHL1    C8 2086   3.303   0.741   7.193  0.8007  0.4244 -0.2601
   29CHL1    H8 2087   3.414   0.737   7.201  1.0926  3.6584 -1.3494
   29CHL1   C14 2088   3.233   0.755   7.329  0.4418 -0.4233  0.5323
   29CHL1   H14 2089   3.124   0.761   7.310  0.7735  0.2481 -1.3844
   29CHL1   C15 2090   3.252   0.886   7.411 -0.0576  0.5961 -0.1727
   29CHL1  H15A 2091   3.357   0.921   7.399 -0.7561  2.2032 -2.5006
   29CHL1  H15B 2092   3.194   0.967   7.361  0.3454 -0.6345 -2.8001
   29CHL1   C16 2093   3.221   0.855   7.557 -0.6501  0.0624  0.1579
   29CHL1  H16A 2094   3.307   0.867   7.627  1.6269 -2.1411 -2.0294
   29CHL1  H16B 2095   3.144   0.928   7.589  0.5118  1.6920 -0.5958
   29CHL1   C17 2096   3.188   0.701   7.556  0.2131  0.7831  1.1086
   29CHL1   H17 2097   3.077   0.695   7.543  0.2566 -1.5343  1.3014
   29CHL1   C13 2098   3.252   0.641   7.424 -0.1064  0.3625 -0.4964
   29CHL1   C18 2099   3.406   0.615   7.456  0.2110 -0.4056 -0.4822
   29CHL1  H18A 2100   3.464   0.591   7.364 -1.0094  0.7598 -1.6235
   29CHL1  H18B 2101   3.440   0.708   7.507 -0.7375 -1.0398  1.3902
   29CHL1  H18C 2102   3.415   0.533   7.530  2.7452 -0.0121 -0.2619
   29CHL1   C12 2103   3.197   0.512   7.353  0.0649 -0.4596 -0.8246
   29CHL1  H12A 2104   3.222   0.428   7.421  1.5902 -0.2978 -1.1643
   29CHL1  H12B 2105   3.086   0.516   7.345  0.0384 -1.9636 -1.3738
   29CHL1   C11 2106   3.261   0.489   7.215 -0.4376 -0.4726 -0.3890
   29CHL1  H11A 2107   3.367   0.465   7.237 -0.4055  1.4187  1.9919
   29CHL1  H11B 2108   3.218   0.398   7.168  1.1587 -1.2388 -0.4505
   29CHL1    C9 2109   3.244   0.610   7.124 -0.2256 -0.0022 -0.6029
   29CHL1    H9 2110   3.134   0.624   7.128 -0.1120  0.6856  1.7552
   29CHL1   C10 2111   3.282   0.595   6.976 -0.1941 -0.4368 -0.1066
   29CHL1   C19 2112   3.413   0.513   6.977  0.2040 -0.1297 -0.2010
   29CHL1  H19A 2113   3.485   0.544   7.056  2.2595 -0.9855 -1.6613
   29CHL1  H19B 2114   3.394   0.404   6.991  2.9846 -0.7087 -0.4024
   29CHL1  H19C 2115   3.452   0.518   6.874  1.1982 -2.7274 -0.0433
   29CHL1    C1 2116   3.168   0.510   6.915  0.3373  0.0351 -0.6774
   29CHL1   H1A 2117   3.163   0.413   6.969 -1.8376  0.7359  0.5215
   29CHL1   H1B 2118   3.075   0.567   6.938  2.2818  2.5050  1.6164
   29CHL1    C2 2119   3.191   0.488   6.768  0.4177 -0.1946 -0.0336
   29CHL1   H2A 2120   3.109   0.423   6.729 -0.3008 -0.8599  2.4420
   29CHL1   H2B 2121   3.286   0.433   6.753  0.9457  0.8850 -0.7908
   29CHL1   C20 2122   3.214   0.635   7.695  0.1819  0.4681 -0.0667
   29CHL1   H20 2123   3.324   0.631   7.713  0.0438  2.6459  1.6110
   29CHL1   C21 2124   3.163   0.486   7.688 -0.2787  0.0117  0.3052
   29CHL1  H21A 2125   3.139   0.441   7.787  2.3459 -0.6243  0.7181
   29CHL1  H21B 2126   3.254   0.436   7.650  1.1582  2.1024  0.8060
   29CHL1  H21C 2127   3.072   0.486   7.624 -0.5117  2.1761  0.5590
   29CHL1   C22 2128   3.157   0.712   7.816 -0.0018 -0.4411 -0.3279
   29CHL1  H22A 2129   3.193   0.817   7.810  1.5617 -1.0335 -2.2841
   29CHL1  H22B 2130   3.046   0.708   7.808 -0.2179 -0.5962  2.0583
   29CHL1   C23 2131   3.204   0.659   7.951  0.4510 -0.0439 -0.0417
   29CHL1  H23A 2132   3.164   0.556   7.966  1.0482 -0.3333 -0.3641
   29CHL1  H23B 2133   3.314   0.650   7.935  0.4042  0.2094 -0.5246
   29CHL1   C24 2134   3.185   0.747   8.075 -0.0496  0.6389 -0.2923
   29CHL1  H24A 2135   3.252   0.834   8.060  0.6631  0.6873  2.6324
   29CHL1  H24B 2136   3.081   0.786   8.081 -0.1209  0.1895  3.9106
   29CHL1   C25 2137   3.209   0.677   8.205 -0.0842 -0.1874 -0.1514
   29CHL1   H25 2138   3.164   0.575   8.203  0.1778 -0.2896 -0.7386
   29CHL1   C26 2139   3.355   0.650   8.229  0.3538  0.2081 -0.4533
   29CHL1  H26A 2140   3.410   0.743   8.203 -0.5605  0.9160  0.0866
   29CHL1  H26B 2141   3.361   0.617   8.336 -0.0892  0.5522 -0.3220
   29CHL1  H26C 2142   3.400   0.574   8.161  1.1260  1.1557 -1.0309
   29CHL1   C27 2143   3.149   0.757   8.319 -0.0531  0.9458  0.0798
   29CHL1  H27A 2144   3.041   0.773   8.300 -0.2472 -0.2466  0.1128
   29CHL1  H27B 2145   3.157   0.694   8.410 -2.4426 -0.8783 -0.9010
   29CHL1  H27C 2146   3.205   0.853   8.328 -0.0466  0.9389  0.1136
   30CHL1    C3 2147   6.631   4.959   7.212 -0.5422  0.1268  0.3623
   30CHL1    H3 2148   6.574   5.049   7.183 -2.0535 -1.4877 -1.9734
   30CHL1    O3 2149   6.623   4.865   7.104 -0.0379 -0.5005  0.0386
   30CHL1   H3' 2150   6.530   4.851   7.085 -0.0143 -1.5412  0.6362
   30CHL1    C4 2151   6.774   5.000   7.237 -0.2829  0.1347  0.7021
   30CHL1   H4A 2152   6.839   4.910   7.241 -0.3107  0.1567  1.9761
   30CHL1   H4B 2153   6.818   5.049   7.147 -1.0030 -2.5421 -1.2386
   30CHL1    C5 2154   6.789   5.081   7.358 -0.6630 -0.5345 -0.2983
   30CHL1    C6 2155   6.850   5.202   7.357  0.2136  0.4932 -0.0039
   30CHL1    H6 2156   6.882   5.240   7.259  2.6730  1.8389  1.2424
   30CHL1    C7 2157   6.869   5.297   7.470 -0.5918  0.1533 -0.5785
   30CHL1   H7A 2158   6.971   5.340   7.483 -0.2805 -0.9507  0.9865
   30CHL1   H7B 2159   6.802   5.384   7.455 -2.8900 -1.4193 -0.0570
   30CHL1    C8 2160   6.840   5.233   7.605  0.3492 -0.4265  0.1350
   30CHL1    H8 2161   6.929   5.172   7.633 -0.0284 -0.1151  2.2454
   30CHL1   C14 2162   6.820   5.333   7.716  0.8815  0.4626 -0.1582
   30CHL1   H14 2163   6.730   5.394   7.694  0.2462  0.0170  1.0809
   30CHL1   C15 2164   6.928   5.436   7.743  0.2075 -0.2394 -0.2730
   30CHL1  H15A 2165   7.032   5.397   7.734 -0.9960 -4.1301  0.5928
   30CHL1  H15B 2166   6.918   5.513   7.664  2.0248 -0.3759 -0.6793
   30CHL1   C16 2167   6.908   5.482   7.887  0.6109  0.5430  0.2439
   30CHL1  H16A 2168   6.993   5.440   7.944  2.3576  2.5798 -0.7368
   30CHL1  H16B 2169   6.898   5.591   7.907  0.2277  0.1662  2.3738
   30CHL1   C17 2170   6.773   5.406   7.926  0.2552 -0.5712 -0.1222
   30CHL1   H17 2171   6.683   5.459   7.887 -0.9798 -1.5593  1.2466
   30CHL1   C13 2172   6.769   5.271   7.841 -0.1978 -0.6661 -0.2064
   30CHL1   C18 2173   6.870   5.173   7.900 -0.1374 -0.1128  0.0730
   30CHL1  H18A 2174   6.894   5.088   7.832  2.4087  0.7298 -0.1921
   30CHL1  H18B 2175   6.972   5.216   7.910 -0.0475 -0.5952  1.4977
   30CHL1  H18C 2176   6.844   5.135   8.001 -1.0727  3.3695  1.2876
   30CHL1   C12 2177   6.631   5.208   7.824  0.6227 -0.0418  0.0042
   30CHL1  H12A 2178   6.594   5.172   7.923 -0.4345  2.3933  0.5817
   30CHL1  H12B 2179   6.564   5.290   7.791  0.0417 -1.2004 -1.8224
   30CHL1   C11 2180   6.637   5.097   7.716 -0.4272  0.0244  0.0746
   30CHL1  H11A 2181   6.700   5.017   7.760  4.8590  1.9953 -2.9788
   30CHL1  H11B 2182   6.533   5.069   7.692 -0.8463  1.5573 -0.0034
   30CHL1    C9 2183   6.712   5.153   7.593 -0.6192 -0.2589 -0.2271
   30CHL1    H9 2184   6.634   5.223   7.555 -1.3988 -1.4925 -0.9720
   30CHL1   C10 2185   6.724   5.036   7.485 -0.5538 -0.1403  0.1351
   30CHL1   C19 2186   6.814   4.915   7.534 -0.0788 -0.1367 -0.0684
   30CHL1  H19A 2187   6.802   4.827   7.468  0.3747  0.4112 -0.9085
   30CHL1  H19B 2188   6.924   4.932   7.539  0.3698 -2.0865 -1.9387
   30CHL1  H19C 2189   6.775   4.869   7.628 -0.2611  0.7024  0.2767
   30CHL1    C1 2190   6.582   4.982   7.453 -0.1009 -0.1459  0.7952
   30CHL1   H1A 2191   6.561   4.915   7.539  1.2825  0.5791  1.7228
   30CHL1   H1B 2192   6.507   5.064   7.452 -0.6782 -0.6614  0.3200
   30CHL1    C2 2193   6.568   4.895   7.329  0.1264  0.1898  0.9637
   30CHL1   H2A 2194   6.460   4.883   7.303  0.5202  1.2691 -1.4692
   30CHL1   H2B 2195   6.623   4.800   7.346 -0.1026 -0.3513 -0.9706
   30CHL1   C20 2196   6.744   5.405   8.079 -0.1290 -0.0735  0.2606
   30CHL1   H20 2197   6.671   5.323   8.097  0.6085 -0.6216  0.8763
   30CHL1   C21 2198   6.680   5.533   8.108  0.2473 -1.4680 -0.4644
   30CHL1  H21A 2199   6.581   5.565   8.069  0.8382  1.1673  0.0606
   30CHL1  H21B 2200   6.748   5.619   8.093 -3.1593  1.3302 -1.0141
   30CHL1  H21C 2201   6.672   5.528   8.219 -1.5223  0.9915 -0.3958
   30CHL1   C22 2202   6.869   5.368   8.171 -0.1078  0.2426 -0.8347
   30CHL1  H22A 2203   6.898   5.263   8.151  1.0108 -0.3679  3.1756
   30CHL1  H22B 2204   6.945   5.443   8.139 -0.5950  0.3017 -1.9197
   30CHL1   C23 2205   6.845   5.358   8.323  0.2091  0.1783 -0.2523
   30CHL1  H23A 2206   6.940   5.325   8.371 -0.8070 -1.0424  1.0120
   30CHL1  H23B 2207   6.804   5.451   8.369 -2.1060 -0.6610 -0.4795
   30CHL1   C24 2208   6.755   5.235   8.353 -0.4522 -0.5696  0.0055
   30CHL1  H24A 2209   6.648   5.241   8.324  0.1571  0.8860 -2.2089
   30CHL1  H24B 2210   6.803   5.151   8.300 -1.3296 -0.8006 -0.4340
   30CHL1   C25 2211   6.755   5.182   8.506  0.5122 -0.3638  0.1514
   30CHL1   H25 2212   6.858   5.152   8.536  1.3182  0.2451 -1.8177
   30CHL1   C26 2213   6.688   5.294   8.601 -0.0230  0.0540  0.5427
   30CHL1  H26A 2214   6.755   5.381   8.614 -2.3979  1.7961  1.7731
   30CHL1  H26B 2215   6.602   5.334   8.543  1.0380  0.2699 -0.9635
   30CHL1  H26C 2216   6.647   5.253   8.695 -1.7349 -0.0127 -0.1976
   30CHL1   C27 2217   6.669   5.049   8.509 -1.2112 -0.0548  0.6638
   30CHL1  H27A 2218   6.573   5.058   8.453 -0.9366  0.5140  0.2678
   30CHL1  H27B 2219   6.727   4.962   8.471 -1.5676 -0.1021  0.2201
   30CHL1  H27C 2220   6.652   5.018   8.614 -0.6425 -1.1149  0.4495
   31CHL1    C3 2221   0.354   0.773   6.735  0.0831 -0.2702  0.7125
   31CHL1    H3 2222   0.254   0.742   6.771  0.5248 -2.5615  0.1341
   31CHL1    O3 2223   0.362   0.753   6.590  0.2122 -0.1052  0.0126
   31CHL1   H3' 2224   0.297   0.688   6.563 -2.2004  1.2933  2.0217
   31CHL1    C4 2225   0.384   0.923   6.769  0.1261  0.0290  0.0157
   31CHL1   H4A 2226   0.481   0.952   6.725  0.0645 -1.7023 -1.3762
   31CHL1   H4B 2227   0.297   0.972   6.718 -0.2644  1.7631  2.1799
   31CHL1    C5 2228   0.382   0.945   6.917  0.0916  0.3164  0.0778
   31CHL1    C6 2229   0.296   1.030   6.976 -0.0250  0.1406 -0.6835
   31CHL1    H6 2230   0.220   1.092   6.925 -0.4177  0.4615  0.2610
   31CHL1    C7 2231   0.294   1.054   7.122 -0.1201  0.4453 -0.1831
   31CHL1   H7A 2232   0.275   1.161   7.146 -0.9403  0.4211 -0.6874
   31CHL1   H7B 2233   0.211   0.998   7.169  0.0822  0.6271  0.3927
   31CHL1    C8 2234   0.422   1.010   7.190  0.0474 -0.1699 -0.0179
   31CHL1    H8 2235   0.501   1.078   7.151 -1.3364  1.7929  0.4927
   31CHL1   C14 2236   0.416   1.028   7.339 -0.3662  0.3665  0.2054
   31CHL1   H14 2237   0.333   0.959   7.362  1.0064 -0.7577  2.0691
   31CHL1   C15 2238   0.370   1.163   7.407  0.1907 -0.3170 -0.2905
   31CHL1  H15A 2239   0.420   1.254   7.369 -0.4362  1.3221  2.5085
   31CHL1  H15B 2240   0.260   1.182   7.412 -0.0680 -0.5761 -3.1467
   31CHL1   C16 2241   0.413   1.144   7.551  0.2731 -0.4206 -0.1070
   31CHL1  H16A 2242   0.490   1.221   7.570 -0.1672  0.2127 -0.8456
   31CHL1  H16B 2243   0.344   1.158   7.637 -1.1855 -0.2660 -1.2475
   31CHL1   C17 2244   0.469   1.004   7.563 -0.0317 -0.6446 -0.3608
   31CHL1   H17 2245   0.380   0.942   7.587 -1.1537  1.4386  1.2568
   31CHL1   C13 2246   0.528   0.974   7.422 -0.1940 -0.2904 -0.8806
   31CHL1   C18 2247   0.666   1.038   7.403 -0.2298  0.1310 -0.2479
   31CHL1  H18A 2248   0.663   1.149   7.411  0.7486  0.5899 -4.3373
   31CHL1  H18B 2249   0.745   1.005   7.473 -1.8046  0.3185  1.7149
   31CHL1  H18C 2250   0.705   1.012   7.303 -0.0152  2.5160 -0.8455
   31CHL1   C12 2251   0.534   0.823   7.398 -0.0361  0.6986  0.7679
   31CHL1  H12A 2252   0.618   0.769   7.447  0.0292  0.6690  0.6263
   31CHL1  H12B 2253   0.444   0.772   7.436 -0.3592  0.1001 -0.7295
   31CHL1   C11 2254   0.553   0.800   7.242  0.0775 -0.5729  0.5291
   31CHL1  H11A 2255   0.649   0.844   7.210  0.1442 -1.4673 -0.5579
   31CHL1  H11B 2256   0.564   0.690   7.228  2.2936 -0.0983 -2.1642
   31CHL1    C9 2257   0.446   0.864   7.159  0.2237  0.1845 -0.1449
   31CHL1    H9 2258   0.351   0.813   7.186  0.4129 -0.2945 -0.3709
   31CHL1   C10 2259   0.471   0.852   7.003 -0.2603  0.3671  0.2913
   31CHL1   C19 2260   0.613   0.911   6.981  0.2399  0.0608  0.2739
   31CHL1  H19A 2261   0.680   0.839   7.032  0.4797  1.1308  1.5234
   31CHL1  H19B 2262   0.642   0.896   6.875 -0.2717 -0.3982  0.1908
   31CHL1  H19C 2263   0.636   1.018   7.002 -1.6289  0.3786  0.9540
   31CHL1    C1 2264   0.449   0.700   6.951  0.6432 -0.3300 -0.0856
   31CHL1   H1A 2265   0.528   0.633   6.989  0.9299 -0.1620 -0.3751
   31CHL1   H1B 2266   0.354   0.653   6.981  0.9678 -1.4521 -0.7698
   31CHL1    C2 2267   0.453   0.683   6.800  0.6575  0.1067 -0.0480
   31CHL1   H2A 2268   0.428   0.577   6.774 -0.7073  0.6266 -0.9770
   31CHL1   H2B 2269   0.556   0.707   6.768 -0.4619  1.3505 -3.0973
   31CHL1   C20 2270   0.570   0.992   7.683 -0.0360  0.0250  0.0537
   31CHL1   H20 2271   0.670   1.023   7.645  0.4980 -0.0422  1.3539
   31CHL1   C21 2272   0.574   0.840   7.726  0.6620 -0.3553 -0.5214
   31CHL1  H21A 2273   0.572   0.763   7.646 -2.5799 -2.6551  1.5388
   31CHL1  H21B 2274   0.477   0.802   7.764  0.2247 -0.1002 -1.3403
   31CHL1  H21C 2275   0.661   0.802   7.783 -0.3863 -1.0367  0.6661
   31CHL1   C22 2276   0.536   1.083   7.805 -1.1596  0.3884 -0.2282
   31CHL1  H22A 2277   0.519   1.189   7.776 -0.0381  0.3684 -1.0034
   31CHL1  H22B 2278   0.439   1.040   7.838 -0.0842 -1.4890  0.6652
   31CHL1   C23 2279   0.645   1.074   7.913 -0.1584  0.2690  0.2742
   31CHL1  H23A 2280   0.641   0.974   7.961  0.3510  0.6809  1.2163
   31CHL1  H23B 2281   0.745   1.087   7.866  0.3616 -0.6076  1.1090
   31CHL1   C24 2282   0.619   1.180   8.017 -0.0748 -0.3233 -0.3901
   31CHL1  H24A 2283   0.618   1.285   7.981  2.4023 -0.1444 -0.0591
   31CHL1  H24B 2284   0.512   1.162   8.041 -0.0083 -0.4946 -0.2271
   31CHL1   C25 2285   0.706   1.165   8.153 -0.1375 -0.6498 -0.1110
   31CHL1   H25 2286   0.721   1.057   8.175  0.5540 -0.3516  0.9822
   31CHL1   C26 2287   0.851   1.225   8.139 -0.8147 -0.1458  0.7151
   31CHL1  H26A 2288   0.911   1.198   8.230 -2.8776 -1.5830  1.7384
   31CHL1  H26B 2289   0.897   1.169   8.055 -2.4725  0.3614 -0.5721
   31CHL1  H26C 2290   0.856   1.331   8.108 -0.6741  0.1368  1.6650
   31CHL1   C27 2291   0.640   1.222   8.272  0.2285 -0.0378  0.0124
   31CHL1  H27A 2292   0.595   1.322   8.257  1.1464  0.4504  0.4436
   31CHL1  H27B 2293   0.704   1.229   8.363  0.9429 -0.8838 -0.4089
   31CHL1  H27C 2294   0.560   1.148   8.294  1.3790 -1.0537  0.9651
   32CHL1    C3 2295   1.853   3.995   6.870  0.7267 -0.0567  0.2525
   32CHL1    H3 2296   1.814   4.093   6.904 -1.6695 -0.6221 -0.6662
   32CHL1    O3 2297   1.805   3.972   6.739 -0.3439 -0.3828 -0.8605
   32CHL1   H3' 2298   1.714   4.002   6.737  0.5293  2.6964 -0.4010
   32CHL1    C4 2299   2.006   4.007   6.869 -0.3300 -0.7264 -0.0852
   32CHL1   H4A 2300   2.036   3.917   6.812 -4.0230 -0.9995 -1.8938
   32CHL1   H4B 2301   2.041   4.093   6.808  1.8454 -0.2156  1.7524
   32CHL1    C5 2302   2.056   4.014   7.014 -0.2958  0.4546 -0.1634
   32CHL1    C6 2303   2.132   4.112   7.067  0.1313 -0.4024  0.1968
   32CHL1    H6 2304   2.164   4.193   7.000  1.4253  0.5750  1.9480
   32CHL1    C7 2305   2.206   4.109   7.195  0.0623  0.1045  0.0167
   32CHL1   H7A 2306   2.309   4.148   7.180  0.4564  0.7203  3.4509
   32CHL1   H7B 2307   2.154   4.172   7.271 -0.3577 -1.3516  0.9793
   32CHL1    C8 2308   2.212   3.965   7.251 -0.1984 -0.2769  0.2461
   32CHL1    H8 2309   2.278   3.915   7.178  0.9379  2.3763 -0.6875
   32CHL1   C14 2310   2.262   3.970   7.391 -0.0080  0.2290  0.2001
   32CHL1   H14 2311   2.190   4.039   7.439  0.8818  1.4428 -0.1762
   32CHL1   C15 2312   2.394   4.039   7.424 -0.7292  0.0243 -0.3110
   32CHL1  H15A 2313   2.460   4.001   7.343 -1.0996  0.3375 -0.7640
   32CHL1  H15B 2314   2.383   4.150   7.422  0.0748  0.1051 -0.6731
   32CHL1   C16 2315   2.440   3.985   7.557  0.0995  0.0037  0.1439
   32CHL1  H16A 2316   2.532   3.923   7.555  0.9339  1.1246  1.7030
   32CHL1  H16B 2317   2.454   4.064   7.634  1.4312 -1.5730  1.5729
   32CHL1   C17 2318   2.325   3.888   7.600  0.5674  0.2246 -0.5118
   32CHL1   H17 2319   2.242   3.945   7.647  0.1091  0.4968 -1.6163
   32CHL1   C13 2320   2.265   3.840   7.464  0.2928 -0.5002 -0.4427
   32CHL1   C18 2321   2.364   3.739   7.400  0.1060 -0.3634  0.2571
   32CHL1  H18A 2322   2.342   3.723   7.293  0.4495  0.9664 -0.0281
   32CHL1  H18B 2323   2.471   3.765   7.414  0.0944  0.3337 -0.8474
   32CHL1  H18C 2324   2.341   3.639   7.444 -0.5348 -0.9728 -1.4054
   32CHL1   C12 2325   2.113   3.791   7.466 -0.6341  0.0784  0.6964
   32CHL1  H12A 2326   2.106   3.699   7.529 -3.0055 -0.0929  0.2954
   32CHL1  H12B 2327   2.056   3.870   7.519 -0.8836  1.3786 -1.4037
   32CHL1   C11 2328   2.068   3.768   7.326 -0.4188  0.4524  0.0638
   32CHL1  H11A 2329   2.128   3.692   7.272  1.1000  1.1440  0.7302
   32CHL1  H11B 2330   1.963   3.736   7.344 -0.0125 -1.0131 -0.0533
   32CHL1    C9 2331   2.076   3.898   7.245 -0.4041 -0.7402  0.1049
   32CHL1    H9 2332   1.999   3.959   7.296  1.9826 -0.3133  3.6181
   32CHL1   C10 2333   2.025   3.891   7.099  0.4189  0.7380 -0.0078
   32CHL1   C19 2334   2.082   3.755   7.033 -0.7987  0.0928  0.4216
   32CHL1  H19A 2335   2.038   3.662   7.074  0.1212  0.3207  1.9953
   32CHL1  H19B 2336   2.068   3.750   6.923 -3.5150 -0.4963  0.7209
   32CHL1  H19C 2337   2.190   3.761   7.056 -0.2690 -2.0900 -1.1963
   32CHL1    C1 2338   1.873   3.879   7.099  0.6334 -0.1098 -0.2970
   32CHL1   H1A 2339   1.835   3.788   7.149 -2.3856  0.7446 -0.8155
   32CHL1   H1B 2340   1.840   3.965   7.162 -1.0409 -2.0944  1.6721
   32CHL1    C2 2341   1.808   3.880   6.965  0.5848  0.2032  0.3879
   32CHL1   H2A 2342   1.697   3.874   6.971  0.5394 -0.3027 -0.6655
   32CHL1   H2B 2343   1.834   3.783   6.916  1.2698  0.4048  0.3415
   32CHL1   C20 2344   2.376   3.784   7.698  0.0826 -0.4017  0.1741
   32CHL1   H20 2345   2.456   3.724   7.649  0.5398 -0.8559  1.4261
   32CHL1   C21 2346   2.267   3.685   7.741 -0.6343 -0.4523 -0.4393
   32CHL1  H21A 2347   2.178   3.747   7.765 -0.6301 -0.3436 -0.7038
   32CHL1  H21B 2348   2.309   3.626   7.825  0.1804  0.4853 -0.1697
   32CHL1  H21C 2349   2.242   3.615   7.658 -3.0240 -1.0046  0.6515
   32CHL1   C22 2350   2.447   3.838   7.823 -0.2532  0.1125  0.6194
   32CHL1  H22A 2351   2.489   3.759   7.889  0.5887 -2.6677 -2.9114
   32CHL1  H22B 2352   2.545   3.882   7.795 -0.4362 -0.6961 -1.5435
   32CHL1   C23 2353   2.356   3.936   7.904 -0.1807 -0.4074 -0.4931
   32CHL1  H23A 2354   2.330   4.020   7.836 -0.0823 -0.5677 -0.7341
   32CHL1  H23B 2355   2.263   3.890   7.944  0.4765 -0.8970  0.5011
   32CHL1   C24 2356   2.428   3.994   8.029  0.7214 -0.4496  0.0936
   32CHL1  H24A 2357   2.434   3.916   8.107 -1.1658  0.0281  0.7607
   32CHL1  H24B 2358   2.531   4.017   7.994  0.4973 -0.7234 -0.7889
   32CHL1   C25 2359   2.356   4.120   8.095  0.5127 -1.0078 -0.1559
   32CHL1   H25 2360   2.423   4.165   8.171  0.2725  0.2525 -0.6686
   32CHL1   C26 2361   2.342   4.236   7.997 -0.0154  0.0731 -0.2347
   32CHL1  H26A 2362   2.292   4.316   8.055 -0.5451 -0.0831 -0.4694
   32CHL1  H26B 2363   2.440   4.274   7.961 -0.0862  2.9074  2.1867
   32CHL1  H26C 2364   2.265   4.218   7.919  0.2734 -0.1972 -0.4617
   32CHL1   C27 2365   2.221   4.092   8.165  0.5685  0.3350  0.1098
   32CHL1  H27A 2366   2.195   4.190   8.211  0.8431  0.4112  0.1045
   32CHL1  H27B 2367   2.146   4.051   8.094  1.2206 -2.0484  0.6973
   32CHL1  H27C 2368   2.239   4.015   8.243  0.3628 -0.3567 -0.5223
   33CHL1    C3 2369   2.532   2.580   6.844 -0.4775 -1.2052 -0.2734
   33CHL1    H3 2370   2.427   2.611   6.820 -0.1061  0.3094 -0.0590
   33CHL1    O3 2371   2.581   2.510   6.728  0.3319  0.4180  0.3000
   33CHL1   H3' 2372   2.661   2.463   6.754 -0.3008 -0.2584  1.0693
   33CHL1    C4 2373   2.614   2.706   6.869  0.3698  1.0088 -0.1116
   33CHL1   H4A 2374   2.724   2.693   6.861  0.2896 -1.6035  1.7498
   33CHL1   H4B 2375   2.583   2.771   6.784 -2.3153 -0.7965 -0.6451
   33CHL1    C5 2376   2.583   2.779   6.990  0.1340  0.9919  0.5504
   33CHL1    C6 2377   2.527   2.897   6.980  0.5828 -0.1157 -0.2240
   33CHL1    H6 2378   2.502   2.943   6.883  0.5147 -0.1843 -0.2388
   33CHL1    C7 2379   2.482   2.975   7.098 -0.5574  0.0769 -1.2208
   33CHL1   H7A 2380   2.513   3.082   7.097  0.6630 -0.2359 -0.0249
   33CHL1   H7B 2381   2.371   2.966   7.101 -0.3985 -3.1116  2.1842
   33CHL1    C8 2382   2.536   2.921   7.233 -0.6705 -0.6196 -0.3855
   33CHL1    H8 2383   2.643   2.950   7.245 -0.5349 -0.6342 -1.4712
   33CHL1   C14 2384   2.471   2.977   7.356  0.1699 -0.0251 -0.0892
   33CHL1   H14 2385   2.370   2.931   7.355  0.7127 -1.3432  0.9971
   33CHL1   C15 2386   2.440   3.129   7.369  0.5851  0.0094 -0.1293
   33CHL1  H15A 2387   2.520   3.201   7.339 -0.2711  0.3300 -1.7575
   33CHL1  H15B 2388   2.348   3.144   7.310  1.0078 -1.2683 -1.1779
   33CHL1   C16 2389   2.406   3.158   7.516 -0.2934  0.1736 -0.1259
   33CHL1  H16A 2390   2.466   3.244   7.553 -0.3518 -0.3448  1.2351
   33CHL1  H16B 2391   2.297   3.173   7.527 -0.4798  0.7737 -2.3185
   33CHL1   C17 2392   2.435   3.024   7.591 -0.3440  0.2581 -0.2524
   33CHL1   H17 2393   2.342   2.963   7.593  1.6651 -3.0298  1.6237
   33CHL1   C13 2394   2.528   2.934   7.496  0.7854  0.9176  0.2796
   33CHL1   C18 2395   2.668   2.976   7.519  0.1608  0.1150  0.2476
   33CHL1  H18A 2396   2.705   2.946   7.619  0.1426 -0.6387  0.0314
   33CHL1  H18B 2397   2.733   2.924   7.445 -2.5636 -1.6886 -1.0274
   33CHL1  H18C 2398   2.677   3.085   7.501  0.7249  0.1424  0.6557
   33CHL1   C12 2399   2.511   2.783   7.499 -0.3639 -0.0938 -0.5999
   33CHL1  H12A 2400   2.534   2.753   7.604 -3.2103 -0.3937  0.0451
   33CHL1  H12B 2401   2.403   2.763   7.483 -0.4270 -1.1034  0.8530
   33CHL1   C11 2402   2.581   2.718   7.384 -0.0538  0.3929  0.5081
   33CHL1  H11A 2403   2.692   2.713   7.387 -0.0875 -0.1773  0.7711
   33CHL1  H11B 2404   2.536   2.616   7.381 -1.4924  0.9803  0.9595
   33CHL1    C9 2405   2.526   2.765   7.250 -0.1996 -0.2273 -0.1155
   33CHL1    H9 2406   2.417   2.743   7.251 -0.1649 -0.4100 -0.2110
   33CHL1   C10 2407   2.599   2.697   7.118  0.4267 -0.1750 -0.2419
   33CHL1   C19 2408   2.752   2.676   7.138 -0.6087 -0.3746 -0.4783
   33CHL1  H19A 2409   2.771   2.599   7.215 -0.1748 -1.9792 -2.1043
   33CHL1  H19B 2410   2.805   2.650   7.044  0.9509  2.1065 -0.3636
   33CHL1  H19C 2411   2.795   2.770   7.178 -0.1245 -0.2160 -1.3428
   33CHL1    C1 2412   2.523   2.565   7.092  0.4354  0.0837 -0.5919
   33CHL1   H1A 2413   2.542   2.497   7.178 -2.2509  1.0606  0.8910
   33CHL1   H1B 2414   2.413   2.577   7.094  0.3277 -0.6697 -1.3069
   33CHL1    C2 2415   2.549   2.490   6.965  0.9126  0.4712 -0.2555
   33CHL1   H2A 2416   2.472   2.410   6.959 -1.1697  2.3531 -0.0198
   33CHL1   H2B 2417   2.650   2.444   6.961 -0.2482 -2.5538  1.6407
   33CHL1   C20 2418   2.478   3.054   7.737 -0.3927  0.3504 -0.0758
   33CHL1   H20 2419   2.570   3.116   7.722  0.1470 -0.1883  0.9369
   33CHL1   C21 2420   2.505   2.922   7.815  0.2217 -0.0816  1.0863
   33CHL1  H21A 2421   2.545   2.941   7.916  0.0025  3.6741  0.6141
   33CHL1  H21B 2422   2.586   2.862   7.768  0.1684 -0.9938  2.1336
   33CHL1  H21C 2423   2.409   2.866   7.815 -0.7512  1.2740 -2.3894
   33CHL1   C22 2424   2.370   3.132   7.823 -0.1370 -0.3641  0.0107
   33CHL1  H22A 2425   2.331   3.220   7.767 -0.7537 -0.4388  0.3184
   33CHL1  H22B 2426   2.285   3.066   7.850 -2.1827  1.3914 -1.6802
   33CHL1   C23 2427   2.443   3.198   7.935 -0.9964  0.0047 -1.0194
   33CHL1  H23A 2428   2.484   3.117   7.999  1.4137  1.2500 -0.8587
   33CHL1  H23B 2429   2.529   3.245   7.882  0.7321 -1.6714  0.1570
   33CHL1   C24 2430   2.362   3.303   8.011 -0.6759  0.3648 -0.4684
   33CHL1  H24A 2431   2.336   3.373   7.929 -1.1097 -1.6722 -2.1740
   33CHL1  H24B 2432   2.274   3.246   8.047 -0.5463  1.4346  1.7309
   33CHL1   C25 2433   2.423   3.382   8.126 -0.3386 -0.0774  0.8886
   33CHL1   H25 2434   2.496   3.457   8.088 -1.4790  0.2871 -0.6915
   33CHL1   C26 2435   2.325   3.466   8.203 -0.4649 -0.5816 -0.1163
   33CHL1  H26A 2436   2.271   3.538   8.137 -0.2688  0.8480  1.2290
   33CHL1  H26B 2437   2.249   3.399   8.247 -0.4046  0.8575  2.3697
   33CHL1  H26C 2438   2.368   3.519   8.291 -0.0474 -0.5602 -0.3261
   33CHL1   C27 2439   2.485   3.291   8.225 -0.3567 -0.1847 -0.5999
   33CHL1  H27A 2440   2.573   3.233   8.190  1.0748  0.5829  1.5499
   33CHL1  H27B 2441   2.522   3.350   8.312  2.9504  0.3257 -2.2043
   33CHL1  H27C 2442   2.399   3.227   8.255 -1.8730  1.3657 -1.4862
   34CHL1    C3 2443   4.256   1.853   7.040  0.3665 -0.0377  0.8471
   34CHL1    H3 2444   4.151   1.871   7.073  0.4957  1.4968  0.4826
   34CHL1    O3 2445   4.264   1.875   6.901  0.0926 -0.0209 -0.1155
   34CHL1   H3' 2446   4.313   1.951   6.870  1.1076 -1.2671 -1.7675
   34CHL1    C4 2447   4.354   1.949   7.107 -0.2689  0.5782 -0.2247
   34CHL1   H4A 2448   4.455   1.928   7.067 -0.0996  1.1643 -0.1132
   34CHL1   H4B 2449   4.329   2.052   7.073 -5.0573 -0.2936 -0.0031
   34CHL1    C5 2450   4.350   1.928   7.257 -0.3960 -0.8113  0.1955
   34CHL1    C6 2451   4.301   2.025   7.337 -0.6182  0.5452 -0.1726
   34CHL1    H6 2452   4.265   2.121   7.297 -0.2434  1.4458  1.5301
   34CHL1    C7 2453   4.302   2.021   7.488  0.1186 -0.5171 -0.2648
   34CHL1   H7A 2454   4.336   2.114   7.539  2.4798 -0.9834 -0.8457
   34CHL1   H7B 2455   4.197   2.000   7.517  0.7438 -4.7621 -0.4767
   34CHL1    C8 2456   4.392   1.903   7.538  0.2440 -0.1146  0.2555
   34CHL1    H8 2457   4.494   1.939   7.514  0.5520 -2.1061 -1.8176
   34CHL1   C14 2458   4.369   1.876   7.683 -0.4501 -0.2834  0.8050
   34CHL1   H14 2459   4.262   1.850   7.697 -0.2600 -1.1252  0.7441
   34CHL1   C15 2460   4.396   1.997   7.773 -0.1255 -0.1174  0.3890
   34CHL1  H15A 2461   4.483   2.060   7.743  0.3866 -0.6458  0.7569
   34CHL1  H15B 2462   4.317   2.073   7.794  1.0262  0.9483  0.9736
   34CHL1   C16 2463   4.437   1.933   7.906 -0.3028  0.0296  0.4112
   34CHL1  H16A 2464   4.542   1.964   7.924 -0.6808  0.6035  1.8357
   34CHL1  H16B 2465   4.374   1.967   7.991 -0.2874 -1.6820  1.1474
   34CHL1   C17 2466   4.429   1.779   7.891 -0.4251  0.2554  0.1438
   34CHL1   H17 2467   4.324   1.751   7.913  0.4375 -1.7949  1.9767
   34CHL1   C13 2468   4.450   1.762   7.736  0.6921  0.1825  0.0258
   34CHL1   C18 2469   4.605   1.777   7.712 -0.1452 -0.9973  0.4983
   34CHL1  H18A 2470   4.633   1.818   7.613 -0.6326  0.3199  0.8947
   34CHL1  H18B 2471   4.644   1.851   7.785  0.5413  0.3125 -1.1274
   34CHL1  H18C 2472   4.652   1.676   7.709 -0.4383 -1.1085 -1.5059
   34CHL1   C12 2473   4.402   1.635   7.669  0.3584  0.4472 -0.2789
   34CHL1  H12A 2474   4.457   1.548   7.709 -0.3742 -0.3457 -0.9751
   34CHL1  H12B 2475   4.295   1.622   7.694  0.3141  1.4425  0.1057
   34CHL1   C11 2476   4.420   1.644   7.513 -0.3168 -0.1617 -0.5209
   34CHL1  H11A 2477   4.527   1.636   7.484  0.0787 -2.0557  1.2442
   34CHL1  H11B 2478   4.375   1.552   7.471  0.1691 -0.1072 -1.1906
   34CHL1    C9 2479   4.362   1.776   7.453  0.5854 -0.2009 -0.3575
   34CHL1    H9 2480   4.252   1.761   7.459  0.7339 -1.9613 -1.3824
   34CHL1   C10 2481   4.394   1.796   7.298 -0.2462  0.7047 -0.2695
   34CHL1   C19 2482   4.548   1.772   7.283 -0.4474  0.9316  0.2857
   34CHL1  H19A 2483   4.610   1.805   7.370 -1.3944 -1.5284  1.9920
   34CHL1  H19B 2484   4.564   1.663   7.271  0.0456  0.9169  1.0083
   34CHL1  H19C 2485   4.580   1.807   7.183 -1.1302 -1.9261 -1.0236
   34CHL1    C1 2486   4.319   1.688   7.218 -0.3008 -0.0469 -0.6096
   34CHL1   H1A 2487   4.369   1.591   7.232  1.7935  0.8438 -1.4490
   34CHL1   H1B 2488   4.219   1.681   7.265 -0.8899 -0.8093 -1.9127
   34CHL1    C2 2489   4.306   1.710   7.070 -0.5668  0.6211  0.4344
   34CHL1   H2A 2490   4.239   1.637   7.019  1.5645 -1.2563  0.1275
   34CHL1   H2B 2491   4.403   1.697   7.018 -1.3436 -0.7957 -0.7361
   34CHL1   C20 2492   4.518   1.699   7.987 -0.8484 -0.1518  0.2893
   34CHL1   H20 2493   4.621   1.679   7.950 -1.4941 -0.4561 -1.4196
   34CHL1   C21 2494   4.456   1.565   8.011  0.6784 -0.3342 -0.2683
   34CHL1  H21A 2495   4.521   1.493   8.064 -0.1576 -0.3165  0.8208
   34CHL1  H21B 2496   4.438   1.516   7.913  0.2479  1.7610 -1.3098
   34CHL1  H21C 2497   4.360   1.576   8.065  0.6047 -0.5756 -0.3519
   34CHL1   C22 2498   4.541   1.778   8.117 -0.1270 -0.4627 -0.8626
   34CHL1  H22A 2499   4.600   1.870   8.094  0.3668 -1.0541 -2.0387
   34CHL1  H22B 2500   4.447   1.804   8.170  0.6685  0.6590  0.0593
   34CHL1   C23 2501   4.621   1.691   8.222 -0.3037 -0.0723 -0.2612
   34CHL1  H23A 2502   4.564   1.608   8.269  2.5098 -1.5482  0.7439
   34CHL1  H23B 2503   4.712   1.656   8.170  0.4601  2.7545 -0.9903
   34CHL1   C24 2504   4.660   1.779   8.343  0.4899 -0.2554 -0.3654
   34CHL1  H24A 2505   4.677   1.882   8.305  0.9318  0.5747  1.8930
   34CHL1  H24B 2506   4.573   1.789   8.412 -0.2988  0.8094 -1.4803
   34CHL1   C25 2507   4.765   1.703   8.431  0.0135 -0.2025 -0.2998
   34CHL1   H25 2508   4.726   1.600   8.448  0.5508 -0.2502  0.7195
   34CHL1   C26 2509   4.905   1.706   8.368  0.7474 -0.3816  0.4757
   34CHL1  H26A 2510   4.910   1.661   8.266  0.7077  0.7071 -0.0279
   34CHL1  H26B 2511   4.957   1.804   8.373  1.4413 -0.7375  0.3322
   34CHL1  H26C 2512   4.975   1.647   8.430  0.1717 -1.4622  0.1276
   34CHL1   C27 2513   4.771   1.773   8.572  0.2540 -0.6519  0.1276
   34CHL1  H27A 2514   4.681   1.761   8.636  0.3731 -0.5598  0.3115
   34CHL1  H27B 2515   4.851   1.726   8.633 -0.3186 -1.2352  0.4423
   34CHL1  H27C 2516   4.792   1.882   8.562  0.2604 -0.6136  0.5470
   35CHL1    C3 2517   6.136   6.109   7.346 -0.1561  0.0440  0.1137
   35CHL1    H3 2518   6.171   6.016   7.396  0.7133  0.5988  0.5406
   35CHL1    O3 2519   6.181   6.093   7.210  0.3589  0.0568  0.0283
   35CHL1   H3' 2520   6.107   6.095   7.148  2.3699  1.8826 -2.5126
   35CHL1    C4 2521   5.986   6.125   7.355 -0.7516  0.4460 -0.4622
   35CHL1   H4A 2522   5.971   6.227   7.312  2.3834  1.6571  0.9449
   35CHL1   H4B 2523   5.936   6.046   7.295 -1.0513 -0.2638  0.7019
   35CHL1    C5 2524   5.931   6.140   7.496 -0.4617  0.4225 -0.2785
   35CHL1    C6 2525   5.827   6.064   7.537 -1.0436  0.8739  0.3430
   35CHL1    H6 2526   5.775   6.003   7.462 -1.7851 -0.3258  1.7773
   35CHL1    C7 2527   5.760   6.072   7.670 -0.1018 -0.8669 -0.2286
   35CHL1   H7A 2528   5.649   6.084   7.664 -0.2960 -2.1516  0.3507
   35CHL1   H7B 2529   5.772   5.975   7.724 -0.4146 -0.2067  1.0806
   35CHL1    C8 2530   5.813   6.186   7.763 -0.2649 -0.3197 -0.2216
   35CHL1    H8 2531   5.756   6.275   7.732 -0.4798  1.0994  3.7535
   35CHL1   C14 2532   5.797   6.165   7.912 -0.1657  0.3060  0.1285
   35CHL1   H14 2533   5.883   6.100   7.939 -0.6774 -1.0997 -1.4951
   35CHL1   C15 2534   5.684   6.086   7.981 -0.2867 -0.4108  0.2669
   35CHL1  H15A 2535   5.586   6.106   7.933  0.9310  2.2238 -1.3571
   35CHL1  H15B 2536   5.714   5.980   7.967  3.3868  0.7912 -2.6513
   35CHL1   C16 2537   5.681   6.128   8.128  0.4493  0.7716 -0.0089
   35CHL1  H16A 2538   5.584   6.176   8.153  0.7989  0.2574  2.7470
   35CHL1  H16B 2539   5.691   6.032   8.183  2.3357 -0.1304 -1.8250
   35CHL1   C17 2540   5.797   6.236   8.147  0.1181  0.5586 -0.3202
   35CHL1   H17 2541   5.883   6.172   8.177  0.5035  0.2312 -2.0242
   35CHL1   C13 2542   5.827   6.289   8.003  0.1050 -0.3717  0.0111
   35CHL1   C18 2543   5.729   6.403   7.976 -0.8051  0.0524  0.1444
   35CHL1  H18A 2544   5.746   6.491   8.042  1.6171 -2.0852  2.6355
   35CHL1  H18B 2545   5.735   6.447   7.875 -0.1164 -0.0406  0.1432
   35CHL1  H18C 2546   5.625   6.368   7.999 -1.7348  0.6442 -2.7971
   35CHL1   C12 2547   5.971   6.334   7.969 -0.7141 -0.2440  0.9323
   35CHL1  H12A 2548   5.995   6.431   8.016 -2.1126  0.0704  1.0332
   35CHL1  H12B 2549   6.047   6.257   7.995  0.1693 -0.5526 -2.0970
   35CHL1   C11 2550   5.998   6.352   7.815  0.1306  0.3541 -0.6621
   35CHL1  H11A 2551   5.924   6.426   7.776  0.0791  0.0596 -1.1375
   35CHL1  H11B 2552   6.096   6.403   7.809  1.2384 -0.6890  4.3770
   35CHL1    C9 2553   5.958   6.229   7.732  0.4373  0.2623 -0.0146
   35CHL1    H9 2554   6.018   6.141   7.763 -1.8956 -1.6102 -0.5337
   35CHL1   C10 2555   5.994   6.252   7.579  0.0784  0.5280 -0.3854
   35CHL1   C19 2556   5.933   6.387   7.538 -0.0935  0.4196  0.8551
   35CHL1  H19A 2557   5.997   6.466   7.584 -1.4849  3.5444 -2.0692
   35CHL1  H19B 2558   5.951   6.408   7.430  0.7021 -0.4052  0.8162
   35CHL1  H19C 2559   5.823   6.391   7.553 -0.3843 -1.3408 -0.4783
   35CHL1    C1 2560   6.148   6.231   7.552  0.1011 -0.6647 -0.1616
   35CHL1   H1A 2561   6.203   6.307   7.612 -1.1194  1.0644 -1.1107
   35CHL1   H1B 2562   6.166   6.131   7.596 -1.9831 -1.1941 -0.4311
   35CHL1    C2 2563   6.201   6.226   7.410  1.0565 -0.0775 -0.3203
   35CHL1   H2A 2564   6.312   6.222   7.405  1.1180  1.0215 -0.0035
   35CHL1   H2B 2565   6.190   6.321   7.353 -0.2282  0.2831  0.4847
   35CHL1   C20 2566   5.777   6.325   8.277 -0.1830  0.3968 -0.1226
   35CHL1   H20 2567   5.693   6.396   8.255 -0.4213 -0.3694 -1.8924
   35CHL1   C21 2568   5.900   6.414   8.296  0.3384  0.3052 -0.2240
   35CHL1  H21A 2569   5.901   6.481   8.207  0.2228 -1.7024 -1.8187
   35CHL1  H21B 2570   5.999   6.364   8.292  0.8403  1.3417 -1.8914
   35CHL1  H21C 2571   5.898   6.458   8.398 -1.6633  2.0091 -0.9133
   35CHL1   C22 2572   5.739   6.243   8.402 -0.1461  0.0747 -0.0937
   35CHL1  H22A 2573   5.657   6.174   8.378 -2.7549  2.5629  1.0750
   35CHL1  H22B 2574   5.826   6.183   8.437  1.3736  1.7416 -0.8193
   35CHL1   C23 2575   5.676   6.334   8.520 -1.3005 -0.4777  0.3588
   35CHL1  H23A 2576   5.757   6.405   8.546 -0.3466 -1.3660 -0.0996
   35CHL1  H23B 2577   5.586   6.387   8.482 -1.9956 -2.1465 -0.4215
   35CHL1   C24 2578   5.653   6.258   8.653 -0.2714 -0.3947 -0.7175
   35CHL1  H24A 2579   5.565   6.192   8.641  0.1482 -0.9094 -1.0274
   35CHL1  H24B 2580   5.737   6.186   8.667 -0.3165 -0.3824 -0.3733
   35CHL1   C25 2581   5.641   6.359   8.773  0.0880  0.0982 -0.8404
   35CHL1   H25 2582   5.724   6.433   8.773  0.1138  0.0849  0.1649
   35CHL1   C26 2583   5.504   6.433   8.777  0.2262 -0.0073  0.1300
   35CHL1  H26A 2584   5.482   6.482   8.680 -0.1234  2.5974  1.4317
   35CHL1  H26B 2585   5.421   6.369   8.814  1.8547 -1.5991  1.2059
   35CHL1  H26C 2586   5.501   6.518   8.848 -0.2927 -0.2192  0.3703
   35CHL1   C27 2587   5.656   6.273   8.903 -0.3153  0.1140 -0.3393
   35CHL1  H27A 2588   5.598   6.180   8.918 -0.2484  0.3123  1.3545
   35CHL1  H27B 2589   5.648   6.345   8.988  2.5261 -0.9303  0.9239
   35CHL1  H27C 2590   5.761   6.239   8.915 -0.6759 -0.8243  0.2727
   36CHL1    C3 2591   6.707   5.545   6.924  0.1649 -0.9524 -1.2368
   36CHL1    H3 2592   6.755   5.641   6.895  0.1315 -0.8127 -0.8332
   36CHL1    O3 2593   6.722   5.456   6.815 -0.0214  0.5010 -0.0525
   36CHL1   H3' 2594   6.678   5.375   6.841 -0.3834  0.1206 -1.6874
   36CHL1    C4 2595   6.782   5.493   7.050  0.7609 -0.3963  0.0499
   36CHL1   H4A 2596   6.757   5.384   7.049 -1.3678  0.0639 -1.1361
   36CHL1   H4B 2597   6.890   5.502   7.024  1.3434 -0.3480  2.3081
   36CHL1    C5 2598   6.752   5.567   7.175  0.3971 -0.2540 -0.3725
   36CHL1    C6 2599   6.840   5.617   7.268 -0.4464 -0.0383 -0.5833
   36CHL1    H6 2600   6.949   5.607   7.255 -0.7093  0.0301 -3.6866
   36CHL1    C7 2601   6.806   5.691   7.396 -0.3402 -0.7760 -1.5007
   36CHL1   H7A 2602   6.880   5.671   7.476 -2.9241 -0.5986  1.0992
   36CHL1   H7B 2603   6.822   5.798   7.372  1.3191 -0.7226 -0.3464
   36CHL1    C8 2604   6.658   5.663   7.442  0.3443  0.1760 -0.0758
   36CHL1    H8 2605   6.639   5.557   7.468 -1.3571  0.4120 -0.2429
   36CHL1   C14 2606   6.629   5.754   7.563  0.4190  0.4046  0.5041
   36CHL1   H14 2607   6.644   5.857   7.525  0.4574 -0.2972 -1.4951
   36CHL1   C15 2608   6.712   5.729   7.688 -0.2325 -0.3608  0.0442
   36CHL1  H15A 2609   6.706   5.623   7.720  0.2623 -0.7768 -1.1849
   36CHL1  H15B 2610   6.822   5.743   7.682 -0.3284  0.5614  0.2801
   36CHL1   C16 2611   6.627   5.806   7.795 -0.4378  0.2544  0.6680
   36CHL1  H16A 2612   6.617   5.734   7.878  0.7988 -1.2921 -0.4602
   36CHL1  H16B 2613   6.666   5.904   7.831 -1.2952 -0.0912  2.6335
   36CHL1   C17 2614   6.487   5.831   7.737  0.6108  0.3548 -0.0381
   36CHL1   H17 2615   6.474   5.932   7.692 -0.5320 -0.2811 -1.1938
   36CHL1   C13 2616   6.486   5.753   7.601  1.1055 -0.2816 -0.5507
   36CHL1   C18 2617   6.432   5.609   7.639  0.0829  0.5928  0.4350
   36CHL1  H18A 2618   6.324   5.606   7.665  0.2150  0.3510  0.9502
   36CHL1  H18B 2619   6.453   5.539   7.556  0.5228 -0.1578  1.1768
   36CHL1  H18C 2620   6.484   5.558   7.722 -0.6694 -0.3432  0.3450
   36CHL1   C12 2621   6.408   5.811   7.482  0.8517 -0.0223 -0.1119
   36CHL1  H12A 2622   6.298   5.813   7.499  0.7958 -1.1887 -0.2750
   36CHL1  H12B 2623   6.449   5.912   7.459  0.7087  0.4094  1.4419
   36CHL1   C11 2624   6.429   5.725   7.357  0.4591 -0.2628 -0.5286
   36CHL1  H11A 2625   6.375   5.629   7.375  0.3715 -0.0774  0.2200
   36CHL1  H11B 2626   6.384   5.778   7.271 -1.6948 -3.2664 -1.4166
   36CHL1    C9 2627   6.573   5.695   7.321 -0.0567  0.8719 -0.7778
   36CHL1    H9 2628   6.607   5.792   7.278 -0.2329  1.3767  0.1940
   36CHL1   C10 2629   6.598   5.593   7.207  0.2236  1.1333  0.1429
   36CHL1   C19 2630   6.524   5.459   7.242 -0.1110  0.0531  0.5957
   36CHL1  H19A 2631   6.552   5.390   7.160 -3.6325 -0.9235  0.0275
   36CHL1  H19B 2632   6.565   5.397   7.325 -0.9322 -0.6674  0.4896
   36CHL1  H19C 2633   6.413   5.458   7.235 -0.1236 -0.3327  0.7977
   36CHL1    C1 2634   6.530   5.644   7.072 -0.3728 -0.5260  0.1179
   36CHL1   H1A 2635   6.420   5.640   7.082 -0.4886 -1.3564 -1.2136
   36CHL1   H1B 2636   6.565   5.746   7.047 -0.4804 -0.1608  1.3698
   36CHL1    C2 2637   6.561   5.560   6.941 -0.0472 -0.8825 -0.4957
   36CHL1   H2A 2638   6.510   5.621   6.864  0.2483  1.4929  1.0677
   36CHL1   H2B 2639   6.516   5.459   6.946 -1.1944 -0.4131 -1.1044
   36CHL1   C20 2640   6.368   5.817   7.841 -0.8866  0.5820  0.2955
   36CHL1   H20 2641   6.362   5.710   7.872 -0.1771  1.0012  1.9622
   36CHL1   C21 2642   6.236   5.862   7.780  1.0067  0.3413 -0.3539
   36CHL1  H21A 2643   6.224   5.970   7.757 -0.3722  0.7906  2.1282
   36CHL1  H21B 2644   6.158   5.847   7.859  2.0333 -1.6843  0.3542
   36CHL1  H21C 2645   6.191   5.791   7.707 -0.8260 -0.1446  1.1480
   36CHL1   C22 2646   6.390   5.893   7.974  0.6688 -0.0081  0.3009
   36CHL1  H22A 2647   6.300   5.880   8.038 -1.0651 -0.3545 -2.0969
   36CHL1  H22B 2648   6.470   5.833   8.022  0.7729  0.2804  0.4908
   36CHL1   C23 2649   6.424   6.037   7.964 -0.5330 -0.2614  0.0344
   36CHL1  H23A 2650   6.489   6.046   7.875  1.8166 -0.9037  1.6091
   36CHL1  H23B 2651   6.330   6.094   7.943  0.7591  1.5857 -1.0128
   36CHL1   C24 2652   6.508   6.090   8.083 -0.1789  0.3354 -0.3596
   36CHL1  H24A 2653   6.466   6.044   8.175  0.1544  0.7854  0.0197
   36CHL1  H24B 2654   6.614   6.055   8.081  0.2718  0.9116  3.9920
   36CHL1   C25 2655   6.506   6.245   8.097  0.0471  1.2625 -0.3867
   36CHL1   H25 2656   6.554   6.273   8.193 -0.2582 -0.9011  0.4603
   36CHL1   C26 2657   6.584   6.309   7.973 -0.1327  0.1595 -0.0644
   36CHL1  H26A 2658   6.680   6.254   7.980  0.9981  2.1249  0.4328
   36CHL1  H26B 2659   6.532   6.300   7.875 -0.1063  0.2821 -0.0895
   36CHL1  H26C 2660   6.596   6.416   8.000 -1.1811 -0.4056  3.1057
   36CHL1   C27 2661   6.366   6.308   8.111 -0.4101  0.0325  0.2332
   36CHL1  H27A 2662   6.380   6.416   8.133  0.1141  0.1152 -0.4765
   36CHL1  H27B 2663   6.303   6.304   8.019 -0.8233  0.8820  0.4692
   36CHL1  H27C 2664   6.305   6.266   8.193 -0.2409  1.6175  1.2049
   37CHL1    C3 2665   4.261   0.564   6.644 -0.5901  0.6215 -0.8129
   37CHL1    H3 2666   4.159   0.531   6.614 -0.6777  0.1195 -0.0129
   37CHL1    O3 2667   4.336   0.590   6.528  0.4843 -0.8611  0.5571
   37CHL1   H3' 2668   4.407   0.525   6.529 -0.5124 -2.0927 -1.6047
   37CHL1    C4 2669   4.265   0.686   6.739 -0.3187 -0.6570 -0.1353
   37CHL1   H4A 2670   4.372   0.715   6.744 -0.1692 -1.1833 -0.1587
   37CHL1   H4B 2671   4.208   0.770   6.695  0.1922  0.1339  0.6851
   37CHL1    C5 2672   4.227   0.663   6.881 -0.2807  0.7801 -0.0889
   37CHL1    C6 2673   4.130   0.743   6.940 -0.6127  0.2511  0.0869
   37CHL1    H6 2674   4.083   0.828   6.888 -1.8328 -1.4552 -1.7137
   37CHL1    C7 2675   4.094   0.727   7.087  0.4378 -0.0178  0.2937
   37CHL1   H7A 2676   4.114   0.822   7.140  1.1183 -1.6110  3.0597
   37CHL1   H7B 2677   3.987   0.701   7.098  0.5078 -1.2579 -1.4984
   37CHL1    C8 2678   4.173   0.621   7.158 -0.1064 -0.0686  0.4691
   37CHL1    H8 2679   4.271   0.664   7.189  0.2195 -0.9031  0.6287
   37CHL1   C14 2680   4.120   0.593   7.296  0.1542 -0.4512  0.0207
   37CHL1   H14 2681   4.022   0.542   7.284  1.4334 -3.1981  0.4728
   37CHL1   C15 2682   4.102   0.717   7.386  0.0007  0.1819 -0.0264
   37CHL1  H15A 2683   4.194   0.780   7.388 -0.2125  0.4786  0.4593
   37CHL1  H15B 2684   4.021   0.784   7.350  0.3983  0.4896 -0.3607
   37CHL1   C16 2685   4.096   0.655   7.525  0.3634 -0.2766 -0.4218
   37CHL1  H16A 2686   4.179   0.687   7.592 -0.4413  0.2975  0.3184
   37CHL1  H16B 2687   4.000   0.678   7.576  0.5533 -1.1949  0.4048
   37CHL1   C17 2688   4.117   0.501   7.506 -0.1845 -0.4704  0.2841
   37CHL1   H17 2689   4.017   0.458   7.482 -0.9397  1.2221  0.2546
   37CHL1   C13 2690   4.197   0.486   7.375 -0.2072 -0.3012 -0.3078
   37CHL1   C18 2691   4.347   0.520   7.399 -0.0604  0.1873  0.4889
   37CHL1  H18A 2692   4.412   0.430   7.410  1.6941  1.3714  0.1516
   37CHL1  H18B 2693   4.399   0.584   7.325  0.3290  0.3567  0.9033
   37CHL1  H18C 2694   4.360   0.582   7.490 -0.0486 -0.4868  0.9555
   37CHL1   C12 2695   4.190   0.354   7.294 -0.6818 -1.0759 -0.1711
   37CHL1  H12A 2696   4.252   0.277   7.345 -1.6051 -1.7322 -0.0243
   37CHL1  H12B 2697   4.084   0.329   7.272 -1.0086  1.5164 -1.9656
   37CHL1   C11 2698   4.244   0.369   7.154 -0.7677 -0.0643 -0.2921
   37CHL1  H11A 2699   4.353   0.385   7.170 -0.9539  0.7310  0.2877
   37CHL1  H11B 2700   4.223   0.277   7.096 -2.6019  1.8684 -2.9231
   37CHL1    C9 2701   4.197   0.497   7.071  0.1132  0.3091 -0.7769
   37CHL1    H9 2702   4.094   0.476   7.035 -0.5576  0.9184  0.7068
   37CHL1   C10 2703   4.279   0.532   6.944  0.1918 -0.7089 -0.9035
   37CHL1   C19 2704   4.437   0.529   6.973  0.9840 -0.0271  0.1337
   37CHL1  H19A 2705   4.490   0.589   6.896  3.5861 -0.9636  1.1003
   37CHL1  H19B 2706   4.462   0.577   7.070 -0.3582 -1.6496  1.3496
   37CHL1  H19C 2707   4.481   0.427   6.970 -1.1979 -1.0183 -0.4036
   37CHL1    C1 2708   4.256   0.412   6.847 -0.3464  0.1234  0.7263
   37CHL1   H1A 2709   4.293   0.320   6.897 -0.4044 -0.2783  0.0429
   37CHL1   H1B 2710   4.149   0.387   6.828 -1.0094  0.9064  3.1726
   37CHL1    C2 2711   4.327   0.436   6.707  0.1329 -0.5652 -0.0081
   37CHL1   H2A 2712   4.307   0.355   6.633  0.3668  0.9472 -1.7818
   37CHL1   H2B 2713   4.438   0.437   6.712  0.2138 -0.7002 -1.3497
   37CHL1   C20 2714   4.151   0.423   7.640  0.3703 -0.4846 -0.1175
   37CHL1   H20 2715   4.262   0.427   7.650  0.4064 -0.6627 -0.4218
   37CHL1   C21 2716   4.120   0.273   7.624 -0.4214  0.0135 -0.1833
   37CHL1  H21A 2717   4.012   0.268   7.649 -0.7088  2.1147 -0.8168
   37CHL1  H21B 2718   4.183   0.220   7.699 -0.1921  0.0125 -0.3772
   37CHL1  H21C 2719   4.139   0.235   7.521 -1.9987 -1.7456  0.1160
   37CHL1   C22 2720   4.095   0.484   7.773 -0.5695  0.9459  0.3795
   37CHL1  H22A 2721   4.134   0.587   7.787  2.3127  0.2100 -1.4144
   37CHL1  H22B 2722   3.985   0.488   7.759 -0.5441  1.1081  0.2197
   37CHL1   C23 2723   4.116   0.398   7.892  0.2745  0.6673 -0.1623
   37CHL1  H23A 2724   4.051   0.308   7.888 -0.4725  1.2051 -0.2616
   37CHL1  H23B 2725   4.223   0.369   7.888  0.1063  0.0579 -0.3272
   37CHL1   C24 2726   4.075   0.463   8.028  0.0650 -0.4073  0.3737
   37CHL1  H24A 2727   4.114   0.567   8.026  0.6099 -0.5919  0.9949
   37CHL1  H24B 2728   3.964   0.466   8.034 -0.0513 -1.9703 -0.4291
   37CHL1   C25 2729   4.137   0.394   8.147  0.0903 -0.7241  0.1275
   37CHL1   H25 2730   4.247   0.379   8.141  0.1868 -0.4969  1.0721
   37CHL1   C26 2731   4.121   0.497   8.266  0.1376 -0.0652  0.2447
   37CHL1  H26A 2732   4.160   0.462   8.364 -3.6629  0.3427  2.1080
   37CHL1  H26B 2733   4.168   0.589   8.226  1.3153 -1.7802 -2.6245
   37CHL1  H26C 2734   4.011   0.516   8.272  0.3709  1.1164  1.1222
   37CHL1   C27 2735   4.065   0.264   8.191  0.2838 -0.2741 -0.2266
   37CHL1  H27A 2736   3.973   0.281   8.251  0.5353 -1.1013  0.4148
   37CHL1  H27B 2737   4.034   0.203   8.103 -1.2582  2.1876 -1.5162
   37CHL1  H27C 2738   4.134   0.207   8.258  2.4193  2.3011 -0.0896
   38CHL1    C3 2739   2.104   5.898   6.866 -0.0962 -0.1561 -0.5184
   38CHL1    H3 2740   2.182   5.830   6.904 -0.1148 -0.2468 -0.6399
   38CHL1    O3 2741   2.120   5.908   6.720  0.0805 -0.2294  0.1627
   38CHL1   H3' 2742   2.040   5.949   6.686  0.2386 -1.0143 -1.2599
   38CHL1    C4 2743   1.960   5.833   6.904 -0.9068  0.2001 -0.3473
   38CHL1   H4A 2744   1.888   5.910   6.869 -1.9415 -0.7353 -0.3378
   38CHL1   H4B 2745   1.943   5.738   6.848 -2.5801 -0.7352  1.6091
   38CHL1    C5 2746   1.940   5.814   7.052 -0.7732 -0.2805 -0.6665
   38CHL1    C6 2747   1.921   5.692   7.113  0.4084  0.4919  0.8658
   38CHL1    H6 2748   1.922   5.598   7.056  2.6071  0.5011  0.8006
   38CHL1    C7 2749   1.905   5.669   7.261 -0.2474  0.0694 -0.1495
   38CHL1   H7A 2750   1.817   5.607   7.291 -0.7365  0.7019 -0.2357
   38CHL1   H7B 2751   2.000   5.619   7.289  0.3711  0.7351 -1.0208
   38CHL1    C8 2752   1.894   5.810   7.331  0.6935 -0.0979  0.2058
   38CHL1    H8 2753   1.793   5.849   7.309  0.7702 -0.0672 -0.0943
   38CHL1   C14 2754   1.911   5.795   7.484 -0.1118 -0.7672 -0.1304
   38CHL1   H14 2755   2.016   5.761   7.499  0.1920  0.7124  1.3478
   38CHL1   C15 2756   1.819   5.693   7.558 -0.1645 -0.2101  0.6218
   38CHL1  H15A 2757   1.717   5.709   7.518  0.6497  0.6214 -1.2343
   38CHL1  H15B 2758   1.839   5.584   7.549  2.2253  0.0488  1.9445
   38CHL1   C16 2759   1.821   5.738   7.702  0.2597 -0.5615  0.2216
   38CHL1  H16A 2760   1.714   5.754   7.729  0.1369 -0.6730 -0.1959
   38CHL1  H16B 2761   1.867   5.663   7.770 -0.5515 -1.3036 -0.0338
   38CHL1   C17 2762   1.898   5.874   7.705 -0.4826 -0.0244  0.3653
   38CHL1   H17 2763   2.004   5.847   7.721  0.1702  1.7983 -0.6160
   38CHL1   C13 2764   1.899   5.929   7.561 -0.1177  0.0904 -0.2311
   38CHL1   C18 2765   1.756   5.991   7.538 -0.1091  0.0947  0.2588
   38CHL1  H18A 2766   1.747   6.027   7.433 -1.5841 -0.2827  0.2436
   38CHL1  H18B 2767   1.672   5.933   7.581  0.2610 -0.5871  0.0655
   38CHL1  H18C 2768   1.736   6.084   7.595 -1.4028 -0.4888  0.7968
   38CHL1   C12 2769   2.021   6.021   7.517  0.8157  0.3273  0.5578
   38CHL1  H12A 2770   2.018   6.126   7.553  1.5120  1.2010 -1.7262
   38CHL1  H12B 2771   2.112   5.971   7.557 -0.5989 -3.1324 -0.2399
   38CHL1   C11 2772   2.019   6.039   7.366 -0.4646 -0.0353 -0.1525
   38CHL1  H11A 2773   1.943   6.120   7.353 -0.1861  0.3964  0.7712
   38CHL1  H11B 2774   2.120   6.078   7.340 -0.1299 -1.3255 -0.8422
   38CHL1    C9 2775   1.993   5.915   7.281  0.4890  0.7374 -0.1084
   38CHL1    H9 2776   2.093   5.869   7.292 -0.4466 -1.3120  0.2597
   38CHL1   C10 2777   1.965   5.949   7.130 -0.0312 -0.6747  0.1157
   38CHL1   C19 2778   1.835   6.036   7.115  0.0205  0.1997  0.0607
   38CHL1  H19A 2779   1.743   5.993   7.160 -0.0634  0.1004 -0.2082
   38CHL1  H19B 2780   1.854   6.138   7.157 -0.9769  1.5273 -2.4833
   38CHL1  H19C 2781   1.820   6.043   7.005 -1.5613 -1.8045  0.0846
   38CHL1    C1 2782   2.086   6.029   7.077 -0.0671 -0.1505 -0.2612
   38CHL1   H1A 2783   2.085   6.134   7.113  0.5654 -0.4900  0.8079
   38CHL1   H1B 2784   2.178   5.983   7.118  0.4309 -0.6904 -1.9291
   38CHL1    C2 2785   2.106   6.039   6.928 -0.2255  0.1423  0.1398
   38CHL1   H2A 2786   2.190   6.108   6.906 -0.2056  0.2667  0.6147
   38CHL1   H2B 2787   2.019   6.091   6.882 -0.2659 -0.0056  0.0481
   38CHL1   C20 2788   1.856   5.963   7.824 -0.0571  0.6927 -0.6842
   38CHL1   H20 2789   1.749   5.991   7.833  0.1664  1.0089  1.3613
   38CHL1   C21 2790   1.920   6.094   7.810  0.0856 -0.4445 -0.3278
   38CHL1  H21A 2791   1.870   6.155   7.733  1.3255  0.3702 -0.5187
   38CHL1  H21B 2792   2.028   6.084   7.786  0.1851 -1.1033  0.3257
   38CHL1  H21C 2793   1.930   6.153   7.904  0.4843  0.4998 -0.9486
   38CHL1   C22 2794   1.901   5.896   7.954  0.0409 -0.4429  0.0776
   38CHL1  H22A 2795   1.892   5.786   7.948 -2.1543 -0.2091 -2.4391
   38CHL1  H22B 2796   2.011   5.910   7.953  0.0266 -0.3682 -0.4904
   38CHL1   C23 2797   1.838   5.943   8.085 -0.1350  0.6905 -0.6827
   38CHL1  H23A 2798   1.862   6.051   8.100 -1.2221  0.7546  0.7988
   38CHL1  H23B 2799   1.729   5.923   8.078 -0.4945  2.0385  0.6061
   38CHL1   C24 2800   1.892   5.858   8.203  0.7318 -0.1236 -0.1683
   38CHL1  H24A 2801   1.872   5.750   8.190  1.0643 -0.4586  1.8043
   38CHL1  H24B 2802   2.002   5.878   8.208  0.7620 -0.4988  3.3476
   38CHL1   C25 2803   1.840   5.890   8.342  0.2031 -0.3953 -0.1277
   38CHL1   H25 2804   1.908   5.853   8.422  2.2279  2.4209 -0.4345
   38CHL1   C26 2805   1.831   6.041   8.365  0.8581 -0.0423  0.0975
   38CHL1  H26A 2806   1.789   6.081   8.459  2.8020  1.5334  0.3701
   38CHL1  H26B 2807   1.925   6.098   8.348 -0.6298  2.1357 -1.4326
   38CHL1  H26C 2808   1.765   6.086   8.288  0.6009  0.0510  0.3742
   38CHL1   C27 2809   1.707   5.819   8.350  0.6067 -0.0390 -1.0740
   38CHL1  H27A 2810   1.724   5.710   8.339 -0.9154 -0.3603 -0.3923
   38CHL1  H27B 2811   1.655   5.849   8.443  0.7189  2.5541 -1.7705
   38CHL1  H27C 2812   1.644   5.863   8.270 -0.7451 -1.6165 -0.9334
   39CHL1    C3 2813   0.237   0.278   6.793  0.6247 -0.1033 -0.1464
   39CHL1    H3 2814   0.263   0.385   6.782  1.0192 -0.2639 -0.8231
   39CHL1    O3 2815   0.154   0.251   6.686 -0.2300  0.0607  0.3211
   39CHL1   H3' 2816   0.214   0.266   6.612 -0.0469  0.5323  0.5562
   39CHL1    C4 2817   0.364   0.184   6.798 -0.0017 -0.4057  0.7344
   39CHL1   H4A 2818   0.323   0.082   6.815 -1.2671 -0.1115 -0.3667
   39CHL1   H4B 2819   0.410   0.171   6.697 -0.4142  1.4830  0.2618
   39CHL1    C5 2820   0.460   0.224   6.911 -0.0942 -0.2998  0.2963
   39CHL1    C6 2821   0.588   0.255   6.876  0.5217 -0.1367 -0.2358
   39CHL1    H6 2822   0.618   0.258   6.770 -0.8819 -1.7779 -0.7238
   39CHL1    C7 2823   0.690   0.297   6.985 -0.4710  0.0284 -0.2843
   39CHL1   H7A 2824   0.788   0.247   6.969 -0.0128  0.9478 -0.3898
   39CHL1   H7B 2825   0.699   0.407   6.988  2.4653 -0.1388  0.1577
   39CHL1    C8 2826   0.639   0.262   7.132  0.8345  0.3628 -0.1047
   39CHL1    H8 2827   0.646   0.152   7.141  5.1213  0.4688 -0.1520
   39CHL1   C14 2828   0.724   0.341   7.237 -0.1707  0.3369  0.3515
   39CHL1   H14 2829   0.701   0.446   7.208 -1.5554 -0.1625 -0.4741
   39CHL1   C15 2830   0.878   0.333   7.240 -0.0995  0.3123  0.1606
   39CHL1  H15A 2831   0.919   0.230   7.234  0.6106  0.6490 -1.3140
   39CHL1  H15B 2832   0.918   0.396   7.157 -0.2189  0.6887  0.3878
   39CHL1   C16 2833   0.918   0.392   7.378 -0.0808  0.0115 -0.0227
   39CHL1  H16A 2834   0.968   0.311   7.435 -0.3820  1.5182  2.5833
   39CHL1  H16B 2835   0.991   0.475   7.386  1.0348 -1.0872  1.9743
   39CHL1   C17 2836   0.783   0.417   7.462  0.0992  0.4188  0.0795
   39CHL1   H17 2837   0.737   0.518   7.458 -0.3179  0.2453  0.4842
   39CHL1   C13 2838   0.680   0.328   7.380  0.6625 -0.2232  0.4046
   39CHL1   C18 2839   0.694   0.180   7.421  0.1410  0.5329  0.4107
   39CHL1  H18A 2840   0.630   0.118   7.354 -1.1263  1.6587  0.5182
   39CHL1  H18B 2841   0.798   0.149   7.399  1.0116  2.8043  1.0405
   39CHL1  H18C 2842   0.666   0.170   7.528 -0.6384 -0.0739  0.1653
   39CHL1   C12 2843   0.538   0.385   7.389  0.8988 -0.5360  0.1755
   39CHL1  H12A 2844   0.498   0.368   7.491 -1.0331  0.7924 -0.3014
   39CHL1  H12B 2845   0.545   0.494   7.369  1.8052 -0.4560  0.8498
   39CHL1   C11 2846   0.437   0.314   7.296 -0.8869  0.0194 -0.2375
   39CHL1  H11A 2847   0.443   0.210   7.334  0.8853  0.0102 -0.4290
   39CHL1  H11B 2848   0.336   0.358   7.309 -0.9130 -0.0057 -0.3516
   39CHL1    C9 2849   0.489   0.301   7.145 -0.2415  0.4796  1.1950
   39CHL1    H9 2850   0.490   0.408   7.114 -1.0744 -0.2249 -1.5442
   39CHL1   C10 2851   0.398   0.227   7.041  0.0470  0.2773 -0.0883
   39CHL1   C19 2852   0.375   0.076   7.076 -0.7270  0.3545  0.3667
   39CHL1  H19A 2853   0.357   0.066   7.185 -0.1933  0.0410  0.4302
   39CHL1  H19B 2854   0.276   0.040   7.038 -1.5898 -0.8463  3.4697
   39CHL1  H19C 2855   0.459   0.005   7.055  0.8637  2.4304 -0.6403
   39CHL1    C1 2856   0.257   0.298   7.040 -0.0773 -0.3331 -0.3385
   39CHL1   H1A 2857   0.211   0.261   7.134  0.8508  1.9110  1.0808
   39CHL1   H1B 2858   0.269   0.409   7.038  0.3611 -0.2897  2.0131
   39CHL1    C2 2859   0.159   0.261   6.921 -0.6732  0.2047  0.1723
   39CHL1   H2A 2860   0.068   0.324   6.917  0.2618  1.5236 -0.9735
   39CHL1   H2B 2861   0.136   0.152   6.921  0.5252 -0.0986  2.0059
   39CHL1   C20 2862   0.805   0.394   7.607  0.1670 -0.0210  0.7395
   39CHL1   H20 2863   0.865   0.301   7.617  0.7029  0.0495 -1.4412
   39CHL1   C21 2864   0.671   0.397   7.689 -0.1156 -0.0759 -0.3509
   39CHL1  H21A 2865   0.610   0.305   7.679  0.3546 -0.2525 -1.6697
   39CHL1  H21B 2866   0.614   0.491   7.670 -0.4044 -0.2352 -0.2806
   39CHL1  H21C 2867   0.698   0.391   7.797 -0.7065  0.7204 -0.1464
   39CHL1   C22 2868   0.899   0.495   7.670  0.4518  0.1607  0.0642
   39CHL1  H22A 2869   0.984   0.517   7.603  1.1888 -0.9607  0.6071
   39CHL1  H22B 2870   0.837   0.586   7.684  1.1355  0.7875 -0.8885
   39CHL1   C23 2871   0.956   0.462   7.807  0.4186 -0.0900  0.7821
   39CHL1  H23A 2872   1.002   0.556   7.845  0.1286  1.0598 -1.5295
   39CHL1  H23B 2873   0.874   0.432   7.876 -1.8917  0.0929 -1.7107
   39CHL1   C24 2874   1.057   0.345   7.805  0.0700  0.1266  0.1375
   39CHL1  H24A 2875   1.017   0.244   7.783  1.7738 -0.2513 -1.5418
   39CHL1  H24B 2876   1.129   0.377   7.726 -0.3653 -1.3755 -0.9112
   39CHL1   C25 2877   1.137   0.330   7.936 -0.1705  0.2658  0.1048
   39CHL1   H25 2878   1.162   0.434   7.966 -2.9877  1.1119 -0.1437
   39CHL1   C26 2879   1.058   0.260   8.046 -0.0788  0.1351 -0.1763
   39CHL1  H26A 2880   1.038   0.155   8.018  0.9414 -0.3080  0.7189
   39CHL1  H26B 2881   1.108   0.268   8.144  1.2016  0.0263 -0.8073
   39CHL1  H26C 2882   0.954   0.301   8.050 -1.2673 -2.7267  1.3743
   39CHL1   C27 2883   1.261   0.247   7.910 -0.0351 -0.2826 -0.1695
   39CHL1  H27A 2884   1.337   0.296   7.845 -1.1588  0.9999 -0.5539
   39CHL1  H27B 2885   1.302   0.211   8.007 -2.6272 -1.9598  0.3763
   39CHL1  H27C 2886   1.225   0.148   7.874  2.3546 -1.3208  0.0657
   40CHL1    C3 2887   3.079   4.648   7.057 -0.3288 -0.1700 -0.6540
   40CHL1    H3 2888   3.175   4.659   7.111  0.3038 -0.1937 -1.7696
   40CHL1    O3 2889   3.105   4.634   6.915  0.7064 -0.1072  0.1828
   40CHL1   H3' 2890   3.032   4.670   6.866  1.1264 -1.5893 -1.6227
   40CHL1    C4 2891   3.005   4.519   7.104 -0.2585  0.1949 -0.5679
   40CHL1   H4A 2892   2.909   4.501   7.050  1.1013 -2.4390 -2.3384
   40CHL1   H4B 2893   3.069   4.431   7.082  0.5676  0.7732 -0.4995
   40CHL1    C5 2894   2.989   4.523   7.255  0.0235  0.2058 -0.4520
   40CHL1    C6 2895   3.046   4.430   7.333  0.7259 -0.5388  0.8400
   40CHL1    H6 2896   3.081   4.340   7.281 -0.3930 -0.1056 -0.7521
   40CHL1    C7 2897   3.020   4.424   7.481  0.2244  0.9785  0.3074
   40CHL1   H7A 2898   2.981   4.323   7.505  1.5221  0.6496  1.1523
   40CHL1   H7B 2899   3.115   4.439   7.535  1.2229  2.7904 -1.7524
   40CHL1    C8 2900   2.911   4.529   7.527 -0.8160  0.1497 -0.0473
   40CHL1    H8 2901   2.808   4.498   7.499 -1.6937  3.3550 -0.6939
   40CHL1   C14 2902   2.931   4.556   7.675  0.0400  0.2210 -0.0972
   40CHL1   H14 2903   3.035   4.594   7.677  0.8219 -1.7769 -0.4638
   40CHL1   C15 2904   2.945   4.436   7.768  0.7054  0.3473  1.1485
   40CHL1  H15A 2905   2.860   4.368   7.749  0.4858  1.0581 -0.6161
   40CHL1  H15B 2906   3.036   4.375   7.750  1.4381  2.0401 -1.4175
   40CHL1   C16 2907   2.935   4.500   7.907  0.8259 -0.5414 -0.0411
   40CHL1  H16A 2908   2.865   4.452   7.978 -1.2390  0.4757 -1.2922
   40CHL1  H16B 2909   3.037   4.500   7.951  0.3271 -0.8324  1.1420
   40CHL1   C17 2910   2.886   4.645   7.887 -0.0568  0.6361 -0.9001
   40CHL1   H17 2911   2.982   4.701   7.893  1.0329 -1.2678  1.6993
   40CHL1   C13 2912   2.843   4.650   7.740 -0.3863 -0.1398  0.7905
   40CHL1   C18 2913   2.695   4.609   7.733  0.3578  0.5206 -0.3570
   40CHL1  H18A 2914   2.669   4.510   7.775  0.0835  0.7679  0.0554
   40CHL1  H18B 2915   2.638   4.684   7.792 -1.7167 -0.7727 -0.6377
   40CHL1  H18C 2916   2.654   4.615   7.630 -0.1817  2.3393 -0.0644
   40CHL1   C12 2917   2.865   4.789   7.667 -0.6728  0.6752  0.4697
   40CHL1  H12A 2918   2.794   4.868   7.700 -0.2140  0.7185  1.4161
   40CHL1  H12B 2919   2.963   4.833   7.695 -0.2630 -0.7589  1.4161
   40CHL1   C11 2920   2.852   4.781   7.518 -0.4754  0.2669 -0.1113
   40CHL1  H11A 2921   2.743   4.765   7.507 -0.4960  1.1189 -1.2583
   40CHL1  H11B 2922   2.882   4.877   7.471 -0.2114  0.9285  1.3477
   40CHL1    C9 2923   2.934   4.665   7.456  0.3045  0.3490  0.4178
   40CHL1    H9 2924   3.040   4.692   7.474 -0.1825  3.2681 -0.4866
   40CHL1   C10 2925   2.910   4.645   7.308  0.4831 -0.0401  0.2371
   40CHL1   C19 2926   2.756   4.630   7.268 -0.4182  0.0255  0.3128
   40CHL1  H19A 2927   2.713   4.543   7.322  2.5064  0.4737  3.6948
   40CHL1  H19B 2928   2.698   4.720   7.297  0.2358 -0.2290  2.5327
   40CHL1  H19C 2929   2.749   4.612   7.158  0.9418  1.5827 -0.0644
   40CHL1    C1 2930   2.963   4.775   7.240  0.0053 -0.1744 -0.2254
   40CHL1   H1A 2931   2.888   4.852   7.267  0.4866  0.7205 -1.3971
   40CHL1   H1B 2932   3.061   4.809   7.282  0.5271 -0.0278 -1.5333
   40CHL1    C2 2933   2.988   4.765   7.085 -0.1624 -0.3372  0.0766
   40CHL1   H2A 2934   3.034   4.859   7.048 -1.0059 -0.5197 -1.5227
   40CHL1   H2B 2935   2.890   4.762   7.032 -0.0745  0.1812 -0.1233
   40CHL1   C20 2936   2.807   4.702   8.005  0.2554 -0.2235 -0.4117
   40CHL1   H20 2937   2.714   4.642   8.016  2.1280 -3.8823 -2.6235
   40CHL1   C21 2938   2.764   4.848   7.971 -0.0861  0.1750 -0.7095
   40CHL1  H21A 2939   2.838   4.910   7.916 -0.7728 -0.1138 -1.9996
   40CHL1  H21B 2940   2.732   4.909   8.059 -0.7956  1.0948 -1.5744
   40CHL1  H21C 2941   2.679   4.836   7.900  0.9302 -1.5968 -1.6987
   40CHL1   C22 2942   2.877   4.686   8.138  0.0236 -0.2163 -0.5653
   40CHL1  H22A 2943   2.927   4.588   8.150  0.0519 -0.1296  0.0788
   40CHL1  H22B 2944   2.966   4.750   8.149  1.5342 -2.4152  0.8443
   40CHL1   C23 2945   2.795   4.722   8.264  0.5692  0.8120  0.1402
   40CHL1  H23A 2946   2.770   4.830   8.263 -0.2607  0.6730  2.0364
   40CHL1  H23B 2947   2.700   4.665   8.259  0.1244  1.5890 -0.4504
   40CHL1   C24 2948   2.883   4.709   8.393 -0.1593 -0.4000 -0.0371
   40CHL1  H24A 2949   2.981   4.748   8.358 -0.6988 -0.6941 -2.0089
   40CHL1  H24B 2950   2.852   4.777   8.475  0.4906  0.0943 -0.1924
   40CHL1   C25 2951   2.905   4.565   8.436 -0.0046 -0.5363  0.0271
   40CHL1   H25 2952   2.911   4.495   8.351 -1.7707 -0.8939  0.1503
   40CHL1   C26 2953   3.039   4.556   8.512  0.3459 -0.1766 -0.0338
   40CHL1  H26A 2954   3.044   4.459   8.565 -2.0474 -0.1204  0.4402
   40CHL1  H26B 2955   3.130   4.568   8.449  1.6334  0.7881  1.9233
   40CHL1  H26C 2956   3.047   4.638   8.586  2.4142 -1.0825  0.8157
   40CHL1   C27 2957   2.780   4.528   8.524 -0.7073  0.5543 -0.6153
   40CHL1  H27A 2958   2.681   4.525   8.472 -0.2941  0.0717 -1.4019
   40CHL1  H27B 2959   2.794   4.423   8.559 -2.2226  1.0567  1.6643
   40CHL1  H27C 2960   2.782   4.593   8.613  1.8385 -0.3965  0.1163
   41CHL1    C3 2961   2.691   5.040   7.022  0.9137  0.3735 -0.6544
   41CHL1    H3 2962   2.745   4.947   7.053  0.9243  1.1893  2.0585
   41CHL1    O3 2963   2.689   5.045   6.882 -0.1433 -0.3078 -0.5855
   41CHL1   H3' 2964   2.779   5.019   6.863  0.2409  0.6313 -0.1359
   41CHL1    C4 2965   2.549   5.034   7.075 -0.1227  0.0411 -0.7834
   41CHL1   H4A 2966   2.488   5.120   7.040 -0.9304 -0.0538  0.3414
   41CHL1   H4B 2967   2.497   4.943   7.038 -1.5413  0.7186 -0.5283
   41CHL1    C5 2968   2.543   5.046   7.227  0.4979 -0.2035  0.6103
   41CHL1    C6 2969   2.469   4.963   7.301 -0.3783 -0.0441 -0.5184
   41CHL1    H6 2970   2.418   4.878   7.255  0.0013 -0.2495 -0.5615
   41CHL1    C7 2971   2.459   4.985   7.450 -0.0992  0.6678 -0.0687
   41CHL1   H7A 2972   2.353   4.976   7.484 -0.6153 -1.7388 -2.0237
   41CHL1   H7B 2973   2.517   4.900   7.492  0.7546  1.0685 -0.4198
   41CHL1    C8 2974   2.510   5.115   7.510 -0.1051 -0.1777 -0.0566
   41CHL1    H8 2975   2.429   5.186   7.482  1.3927  1.2274 -1.0223
   41CHL1   C14 2976   2.534   5.099   7.662 -0.6691  0.4534 -0.4501
   41CHL1   H14 2977   2.621   5.031   7.677  1.0846  2.6807  0.0838
   41CHL1   C15 2978   2.418   5.068   7.750 -0.1574 -0.0795  0.0418
   41CHL1  H15A 2979   2.325   5.126   7.729  0.1589  0.6403  0.6224
   41CHL1  H15B 2980   2.392   4.959   7.749  4.6483 -1.6224  4.0703
   41CHL1   C16 2981   2.456   5.112   7.892  0.5083  0.3719 -0.7870
   41CHL1  H16A 2982   2.377   5.181   7.929  0.6824  0.7476 -1.1023
   41CHL1  H16B 2983   2.455   5.025   7.960 -1.4475 -0.4537 -1.8124
   41CHL1   C17 2984   2.595   5.173   7.878 -0.5212 -0.6641  0.8190
   41CHL1   H17 2985   2.662   5.084   7.881 -0.4692 -0.6061  1.5626
   41CHL1   C13 2986   2.589   5.225   7.735  0.1076 -0.3413  0.0982
   41CHL1   C18 2987   2.489   5.344   7.723 -0.0181  0.0815  0.3714
   41CHL1  H18A 2988   2.459   5.356   7.617  3.2505 -1.3840 -0.8454
   41CHL1  H18B 2989   2.396   5.329   7.781  0.1352 -1.6626  0.1987
   41CHL1  H18C 2990   2.538   5.442   7.746  1.7282 -0.7681  0.4336
   41CHL1   C12 2991   2.720   5.262   7.664 -0.2614 -0.2033  0.6610
   41CHL1  H12A 2992   2.760   5.350   7.719 -0.8071 -0.6087  1.7369
   41CHL1  H12B 2993   2.788   5.175   7.681 -0.2994 -0.2287  0.6842
   41CHL1   C11 2994   2.705   5.288   7.514 -0.0854 -0.6149 -0.3160
   41CHL1  H11A 2995   2.650   5.384   7.503  0.6818  0.0454  1.3161
   41CHL1  H11B 2996   2.809   5.308   7.480 -0.1175  0.9081  0.4336
   41CHL1    C9 2997   2.642   5.159   7.444 -0.1517  0.3039  0.5432
   41CHL1    H9 2998   2.714   5.077   7.463 -0.7383  0.1753  2.4306
   41CHL1   C10 2999   2.626   5.165   7.292 -0.4445 -1.0276 -0.7835
   41CHL1   C19 3000   2.562   5.294   7.252 -0.4520  0.8583 -0.4988
   41CHL1  H19A 3001   2.467   5.306   7.309 -1.0542  0.9006 -1.4915
   41CHL1  H19B 3002   2.624   5.377   7.292 -1.6435  1.4659  0.1403
   41CHL1  H19C 3003   2.552   5.309   7.143 -0.0301 -0.5719 -0.7479
   41CHL1    C1 3004   2.765   5.153   7.227  0.5098 -0.4372 -0.2571
   41CHL1   H1A 3005   2.820   5.245   7.257 -1.4744  0.9554 -0.6593
   41CHL1   H1B 3006   2.812   5.062   7.268 -0.7988 -0.2396  1.9026
   41CHL1    C2 3007   2.775   5.163   7.074 -0.3776 -0.1762 -1.3379
   41CHL1   H2A 3008   2.880   5.148   7.041 -0.2318  0.7094 -1.2855
   41CHL1   H2B 3009   2.733   5.253   7.024  0.5469  2.3120  1.9611
   41CHL1   C20 3010   2.641   5.272   7.983 -0.0211 -0.0177 -0.2743
   41CHL1   H20 3011   2.591   5.370   7.966  0.2497 -0.0290 -1.1672
   41CHL1   C21 3012   2.789   5.306   7.983 -0.4483  0.0274  0.5393
   41CHL1  H21A 3013   2.853   5.217   7.969  0.2902  0.8743 -2.0148
   41CHL1  H21B 3014   2.831   5.359   8.072  2.8294  0.6028 -1.2031
   41CHL1  H21C 3015   2.823   5.367   7.897  1.3197 -2.2182 -0.4688
   41CHL1   C22 3016   2.595   5.222   8.127  1.0562  0.3971  0.6920
   41CHL1  H22A 3017   2.489   5.189   8.114  0.8077  1.2751  0.4369
   41CHL1  H22B 3018   2.659   5.138   8.161  1.4182  1.3189  2.3718
   41CHL1   C23 3019   2.602   5.330   8.233 -0.0117 -0.0119 -0.2555
   41CHL1  H23A 3020   2.579   5.288   8.334 -0.7303  1.1829  0.0973
   41CHL1  H23B 3021   2.710   5.343   8.255  0.6306 -1.6524 -2.1585
   41CHL1   C24 3022   2.527   5.465   8.210  0.1879  0.3369 -0.6171
   41CHL1  H24A 3023   2.577   5.517   8.125  1.8121 -0.1709 -0.0213
   41CHL1  H24B 3024   2.425   5.427   8.191  0.3613 -1.0314  0.9797
   41CHL1   C25 3025   2.538   5.546   8.345  0.1136  0.5914  0.4431
   41CHL1   H25 3026   2.465   5.506   8.419 -1.0345  2.5727  0.4439
   41CHL1   C26 3027   2.672   5.542   8.421  0.4905 -0.4626  0.1027
   41CHL1  H26A 3028   2.683   5.622   8.497  5.3425  2.7890 -3.4062
   41CHL1  H26B 3029   2.678   5.439   8.464 -4.4774 -1.1025 -0.0996
   41CHL1  H26C 3030   2.750   5.572   8.348  1.6154  0.7748  1.7348
   41CHL1   C27 3031   2.489   5.681   8.323  0.3565 -0.2187  0.1687
   41CHL1  H27A 3032   2.393   5.692   8.267 -1.4707  0.2311  3.1715
   41CHL1  H27B 3033   2.485   5.719   8.427  0.5558 -0.6912  0.3505
   41CHL1  H27C 3034   2.567   5.738   8.268 -0.1233  0.0313 -0.2672
   42CHL1    C3 3035   4.105   1.134   6.991  0.4203  0.1165  0.5108
   42CHL1    H3 3036   4.057   1.038   7.020  0.2947 -0.0583 -0.2337
   42CHL1    O3 3037   4.086   1.162   6.853  0.0784  0.0822  0.1771
   42CHL1   H3' 3038   4.113   1.253   6.838  0.4861 -0.1205 -0.3199
   42CHL1    C4 3039   4.039   1.252   7.071 -0.0892 -0.4958 -0.4193
   42CHL1   H4A 3040   4.076   1.352   7.041 -2.1794  0.2804 -0.5677
   42CHL1   H4B 3041   3.934   1.244   7.036 -0.5865 -1.1753  1.1046
   42CHL1    C5 3042   4.059   1.229   7.221 -0.0834 -0.5318  0.3522
   42CHL1    C6 3043   3.951   1.219   7.299  0.1457  0.5929 -0.1897
   42CHL1    H6 3044   3.855   1.238   7.248 -1.4341 -1.5348  1.8165
   42CHL1    C7 3045   3.951   1.205   7.450  0.1929 -0.0243  0.0407
   42CHL1   H7A 3046   3.898   1.293   7.491 -0.1851 -0.7306  1.1181
   42CHL1   H7B 3047   3.893   1.117   7.485 -1.3464  1.1423  0.5270
   42CHL1    C8 3048   4.098   1.206   7.505 -0.1307  0.3878 -0.2498
   42CHL1    H8 3049   4.114   1.314   7.525 -1.1854  0.7544 -1.2928
   42CHL1   C14 3050   4.096   1.127   7.639 -0.1035  0.7696  0.4672
   42CHL1   H14 3051   4.074   1.023   7.607  2.1059  0.2968  0.2808
   42CHL1   C15 3052   3.986   1.154   7.746  0.1151  0.0560 -0.4814
   42CHL1  H15A 3053   3.977   1.265   7.746 -0.8834 -0.0024 -1.9346
   42CHL1  H15B 3054   3.890   1.104   7.722  1.0783 -1.2805 -1.6686
   42CHL1   C16 3055   4.054   1.115   7.878  0.0932  0.4240 -0.0128
   42CHL1  H16A 3056   4.081   1.207   7.934  1.4851  1.1903 -1.8386
   42CHL1  H16B 3057   3.987   1.055   7.943  0.4296  2.0038  1.8836
   42CHL1   C17 3058   4.194   1.059   7.842  0.2871  0.0881  0.3721
   42CHL1   H17 3059   4.162   0.957   7.809  2.7373 -0.8998  0.8255
   42CHL1   C13 3060   4.238   1.121   7.709 -0.2390  1.0086  0.0123
   42CHL1   C18 3061   4.288   1.268   7.740  0.0318  0.5751 -0.2335
   42CHL1  H18A 3062   4.291   1.327   7.646  2.8804 -0.9004 -1.1710
   42CHL1  H18B 3063   4.216   1.308   7.814 -1.6890 -0.3461 -1.3429
   42CHL1  H18C 3064   4.390   1.261   7.783 -0.4126 -0.4150  0.7093
   42CHL1   C12 3065   4.332   1.050   7.618 -0.3496 -0.3918 -0.4296
   42CHL1  H12A 3066   4.429   1.040   7.671 -0.2594  0.2401 -0.4654
   42CHL1  H12B 3067   4.297   0.949   7.589  1.5224 -0.7691 -1.5199
   42CHL1   C11 3068   4.340   1.123   7.483  0.4294 -0.8046  0.5920
   42CHL1  H11A 3069   4.389   1.222   7.490  2.7898 -1.8353 -0.0882
   42CHL1  H11B 3070   4.415   1.073   7.417  0.7909  1.6002 -0.9168
   42CHL1    C9 3071   4.202   1.134   7.415  0.1784 -0.6869 -0.6379
   42CHL1    H9 3072   4.159   1.033   7.399 -1.1680 -0.0629 -1.0327
   42CHL1   C10 3073   4.206   1.197   7.276  0.8062 -0.1332  0.4427
   42CHL1   C19 3074   4.283   1.329   7.275  0.3601 -0.2699 -0.0433
   42CHL1  H19A 3075   4.245   1.391   7.359  1.9806 -0.1139  0.6137
   42CHL1  H19B 3076   4.391   1.310   7.290  0.5195 -0.6150 -1.5025
   42CHL1  H19C 3077   4.276   1.376   7.175 -0.4911 -0.7259 -0.2047
   42CHL1    C1 3078   4.277   1.099   7.179  0.1802  0.5274 -0.2587
   42CHL1   H1A 3079   4.385   1.090   7.201  0.8284  2.7044 -2.1350
   42CHL1   H1B 3080   4.226   1.002   7.198 -2.5944  1.8833 -0.3328
   42CHL1    C2 3081   4.249   1.122   7.027 -0.4228 -0.5377  0.6227
   42CHL1   H2A 3082   4.287   1.034   6.972 -0.5223 -0.5165  0.5188
   42CHL1   H2B 3083   4.311   1.209   6.996 -0.3901 -0.3799  1.1209
   42CHL1   C20 3084   4.289   1.022   7.956 -0.0953 -0.1272 -0.0715
   42CHL1   H20 3085   4.387   0.986   7.920  1.6121  1.0946  2.9893
   42CHL1   C21 3086   4.217   0.911   8.035  0.1269  0.2110 -0.6742
   42CHL1  H21A 3087   4.127   0.962   8.077 -0.5574 -0.6392 -1.0684
   42CHL1  H21B 3088   4.285   0.870   8.112 -0.0283 -0.1917 -0.7485
   42CHL1  H21C 3089   4.182   0.820   7.981  0.5590  0.9822 -2.3249
   42CHL1   C22 3090   4.324   1.148   8.047  0.3584 -1.1740  0.0226
   42CHL1  H22A 3091   4.352   1.236   7.985  0.1975 -1.5724 -0.6230
   42CHL1  H22B 3092   4.227   1.177   8.091  0.5804 -0.2322 -0.0809
   42CHL1   C23 3093   4.431   1.116   8.148  0.3820  0.1001  0.5479
   42CHL1  H23A 3094   4.397   1.029   8.208  1.9613 -0.9521 -0.0341
   42CHL1  H23B 3095   4.518   1.079   8.090  1.8182 -1.0330  3.2363
   42CHL1   C24 3096   4.480   1.221   8.247 -0.0855  0.1317 -0.2516
   42CHL1  H24A 3097   4.516   1.308   8.188  2.9452 -1.2386 -0.5851
   42CHL1  H24B 3098   4.401   1.251   8.320 -1.4334 -2.3885 -0.5839
   42CHL1   C25 3099   4.602   1.177   8.332  0.1881 -0.1266  0.4263
   42CHL1   H25 3100   4.682   1.151   8.261  0.3070 -1.7944  1.1377
   42CHL1   C26 3101   4.655   1.292   8.422  0.4022 -1.0334  0.8829
   42CHL1  H26A 3102   4.687   1.379   8.360 -0.8452 -1.1833 -0.0118
   42CHL1  H26B 3103   4.573   1.321   8.491 -0.5485 -0.2535 -0.5307
   42CHL1  H26C 3104   4.746   1.266   8.479  1.1727  1.7245  1.0661
   42CHL1   C27 3105   4.582   1.053   8.426 -0.0645 -0.0562 -0.1590
   42CHL1  H27A 3106   4.517   1.089   8.509  1.4839  1.8070  0.3000
   42CHL1  H27B 3107   4.678   1.025   8.474  0.5359 -0.4407 -1.5439
   42CHL1  H27C 3108   4.529   0.974   8.367 -0.9825  1.5219 -1.5342
   43CHL1    C3 3109   2.416   0.272   6.728 -0.2895  0.7367  0.2202
   43CHL1    H3 3110   2.523   0.260   6.753  0.3536  0.7801 -2.2757
   43CHL1    O3 3111   2.405   0.281   6.590 -0.1004 -0.0314 -0.2969
   43CHL1   H3' 3112   2.316   0.315   6.578  0.1028  0.4538 -0.4426
   43CHL1    C4 3113   2.329   0.162   6.785 -0.7070  0.2660 -0.6772
   43CHL1   H4A 3114   2.222   0.178   6.760 -0.9907  2.0349  1.3333
   43CHL1   H4B 3115   2.350   0.064   6.738  2.4600  0.4022  0.2213
   43CHL1    C5 3116   2.336   0.150   6.935 -0.3353  0.0126  0.1348
   43CHL1    C6 3117   2.380   0.036   6.992  0.1147  0.6730 -0.3522
   43CHL1    H6 3118   2.404  -0.055   6.935  0.5767  0.9788 -0.6530
   43CHL1    C7 3119   2.375   0.031   7.144  0.0112  0.5426 -0.2897
   43CHL1   H7A 3120   2.327  -0.064   7.175  0.4836  0.5784  0.5616
   43CHL1   H7B 3121   2.474   0.040   7.194 -1.3035  1.1939  2.3760
   43CHL1    C8 3122   2.282   0.134   7.211  0.8336 -0.5108  0.3268
   43CHL1    H8 3123   2.180   0.098   7.186  1.4586 -2.0601 -0.1087
   43CHL1   C14 3124   2.304   0.124   7.355 -0.8528 -1.0794 -0.2568
   43CHL1   H14 3125   2.410   0.151   7.373 -1.1589  0.3170 -0.4417
   43CHL1   C15 3126   2.270  -0.003   7.430 -0.4381  0.2758  0.3067
   43CHL1  H15A 3127   2.166  -0.033   7.405 -1.7498  2.6721  2.4083
   43CHL1  H15B 3128   2.339  -0.089   7.415 -0.1869  0.3518  1.0148
   43CHL1   C16 3129   2.276   0.035   7.578 -0.2937 -0.2105 -0.9222
   43CHL1  H16A 3130   2.180  -0.010   7.611 -1.3369 -1.2891 -4.9490
   43CHL1  H16B 3131   2.358  -0.015   7.634  0.7107  0.6993 -1.5443
   43CHL1   C17 3132   2.278   0.189   7.584 -0.0099 -0.0063  0.5402
   43CHL1   H17 3133   2.387   0.212   7.579  0.0755 -0.6260 -1.1812
   43CHL1   C13 3134   2.238   0.234   7.443 -0.3494 -0.5792  0.4767
   43CHL1   C18 3135   2.079   0.233   7.437 -0.1989 -0.6532  0.0010
   43CHL1  H18A 3136   2.027   0.321   7.479 -1.6857 -1.7850  0.6192
   43CHL1  H18B 3137   2.066   0.237   7.327  1.4210  1.1897 -0.1630
   43CHL1  H18C 3138   2.034   0.138   7.475 -1.1751 -1.5223 -3.0235
   43CHL1   C12 3139   2.293   0.372   7.399 -0.3524 -0.2961 -0.0157
   43CHL1  H12A 3140   2.233   0.458   7.435  1.3656  1.1620 -0.4589
   43CHL1  H12B 3141   2.394   0.383   7.444 -1.5797  0.4067  2.7450
   43CHL1   C11 3142   2.278   0.392   7.246 -0.0343  0.1498  0.9417
   43CHL1  H11A 3143   2.168   0.401   7.238  0.0001  0.4275  0.7663
   43CHL1  H11B 3144   2.327   0.484   7.208  0.5397 -0.0099  1.2787
   43CHL1    C9 3145   2.323   0.269   7.157  0.3374 -0.5870 -0.3715
   43CHL1    H9 3146   2.434   0.270   7.162  0.3128  0.3380  0.3210
   43CHL1   C10 3147   2.286   0.280   7.002  0.1146 -0.1948  0.5040
   43CHL1   C19 3148   2.130   0.299   6.984 -1.2389  0.2865  0.6307
   43CHL1  H19A 3149   2.104   0.316   6.877  0.4150  1.1424  0.3363
   43CHL1  H19B 3150   2.075   0.215   7.032  0.1327 -1.0553 -0.0835
   43CHL1  H19C 3151   2.095   0.393   7.031 -0.6651 -0.0731  1.8279
   43CHL1    C1 3152   2.363   0.404   6.941  0.1180 -0.1905 -0.3135
   43CHL1   H1A 3153   2.306   0.497   6.966 -0.2493 -0.1001 -1.4320
   43CHL1   H1B 3154   2.458   0.390   6.996 -1.0393 -2.0886  1.3522
   43CHL1    C2 3155   2.378   0.404   6.793  0.2987  0.1876  0.3243
   43CHL1   H2A 3156   2.453   0.476   6.753  1.6163 -2.6644 -2.7853
   43CHL1   H2B 3157   2.281   0.440   6.752  0.8286  0.7466 -0.4671
   43CHL1   C20 3158   2.213   0.259   7.701 -0.7250 -0.2437 -0.4683
   43CHL1   H20 3159   2.202   0.368   7.681 -4.3236  0.0921  2.2332
   43CHL1   C21 3160   2.320   0.255   7.806 -0.0559  0.5157 -0.7915
   43CHL1  H21A 3161   2.314   0.152   7.846 -1.2746  1.6466  2.1981
   43CHL1  H21B 3162   2.304   0.323   7.892 -0.2014 -0.8917  0.3158
   43CHL1  H21C 3163   2.418   0.277   7.757  0.8657  1.3671  1.3076
   43CHL1   C22 3164   2.082   0.211   7.760 -0.7614 -0.1044  0.5787
   43CHL1  H22A 3165   2.003   0.189   7.685 -0.7655  0.8447  0.2952
   43CHL1  H22B 3166   2.108   0.114   7.808 -0.9804 -0.3813  0.1525
   43CHL1   C23 3167   2.032   0.299   7.871 -0.5643 -0.5307 -0.2715
   43CHL1  H23A 3168   2.102   0.297   7.957 -0.3556  0.7775 -0.3913
   43CHL1  H23B 3169   2.023   0.407   7.843  0.5444 -0.3457  0.0425
   43CHL1   C24 3170   1.895   0.244   7.919 -0.6820 -0.1335  0.1054
   43CHL1  H24A 3171   1.833   0.245   7.827  2.2325 -2.1236 -2.0479
   43CHL1  H24B 3172   1.908   0.138   7.952 -0.4208  0.1406  0.9108
   43CHL1   C25 3173   1.823   0.325   8.026 -0.0122  0.8595  0.2650
   43CHL1   H25 3174   1.792   0.425   7.987 -0.2769  0.7003  0.0616
   43CHL1   C26 3175   1.691   0.263   8.069  0.2092  0.5297  0.8930
   43CHL1  H26A 3176   1.628   0.264   7.977 -0.4133  0.1281  1.3040
   43CHL1  H26B 3177   1.687   0.160   8.111 -2.5668 -1.3336 -3.2486
   43CHL1  H26C 3178   1.641   0.331   8.142 -0.7974  0.8225 -0.0340
   43CHL1   C27 3179   1.910   0.339   8.147  0.3481  0.0221 -0.1267
   43CHL1  H27A 3180   1.865   0.412   8.218 -1.5959 -0.7723 -0.4623
   43CHL1  H27B 3181   1.911   0.250   8.213  0.4394 -0.1478 -0.3542
   43CHL1  H27C 3182   2.017   0.364   8.132  1.1290 -0.2452  3.8884
   44CHL1    C3 3183   4.721   0.067   6.679 -0.1963 -0.2890 -0.6240
   44CHL1    H3 3184   4.808   0.134   6.694  0.1998 -1.2558  1.9675
   44CHL1    O3 3185   4.706   0.034   6.541  0.0583 -0.0136  0.3882
   44CHL1   H3' 3186   4.634  -0.028   6.538  0.3670 -0.3696  0.2539
   44CHL1    C4 3187   4.753  -0.061   6.753 -0.4481  0.2066  0.5028
   44CHL1   H4A 3188   4.674  -0.135   6.729 -0.5520  0.3691  0.3389
   44CHL1   H4B 3189   4.850  -0.103   6.719 -0.0029  0.7010  1.1318
   44CHL1    C5 3190   4.751  -0.042   6.905 -0.7605  0.2590  0.1362
   44CHL1    C6 3191   4.861  -0.072   6.980  0.5955  0.4067  0.5799
   44CHL1    H6 3192   4.954  -0.093   6.925 -1.0970  0.1977 -2.4284
   44CHL1    C7 3193   4.872  -0.067   7.127  0.0848 -0.6359 -0.6696
   44CHL1   H7A 3194   4.914  -0.164   7.163  0.7500 -0.3740 -0.7207
   44CHL1   H7B 3195   4.946   0.005   7.168 -0.0566 -0.1082 -1.3280
   44CHL1    C8 3196   4.731  -0.033   7.192 -0.0410  1.0147 -0.2235
   44CHL1    H8 3197   4.669  -0.125   7.189  0.3140  0.7526 -3.2758
   44CHL1   C14 3198   4.737   0.005   7.335 -0.0068 -0.1641  0.1948
   44CHL1   H14 3199   4.798   0.098   7.323 -0.0623 -0.1903 -0.3267
   44CHL1   C15 3200   4.823  -0.083   7.431 -0.1216  0.5953  0.0336
   44CHL1  H15A 3201   4.797  -0.190   7.414  1.5437  0.1430  0.1806
   44CHL1  H15B 3202   4.932  -0.078   7.411 -0.1514 -0.4638 -0.4476
   44CHL1   C16 3203   4.774  -0.042   7.575 -0.3277  0.6537 -0.3784
   44CHL1  H16A 3204   4.729  -0.136   7.615  3.5384 -0.9979  0.5187
   44CHL1  H16B 3205   4.863  -0.024   7.639  0.2088 -2.0832 -0.2368
   44CHL1   C17 3206   4.666   0.069   7.559  0.1283 -0.5567 -0.0959
   44CHL1   H17 3207   4.715   0.169   7.562 -3.9357  1.6362  1.3150
   44CHL1   C13 3208   4.613   0.043   7.417 -0.0185  0.2713 -0.5556
   44CHL1   C18 3209   4.515  -0.080   7.421 -0.1684  0.1843 -0.5795
   44CHL1  H18A 3210   4.419  -0.040   7.461  0.0579 -0.4984  0.6962
   44CHL1  H18B 3211   4.502  -0.119   7.318  0.6720  0.3362 -0.7525
   44CHL1  H18C 3212   4.562  -0.161   7.481  0.2602  1.5419  0.9829
   44CHL1   C12 3213   4.550   0.159   7.341 -0.0825  0.2362 -0.6063
   44CHL1  H12A 3214   4.446   0.177   7.375 -0.3773  0.4247 -1.5926
   44CHL1  H12B 3215   4.603   0.257   7.348 -1.2886  0.8791 -0.0540
   44CHL1   C11 3216   4.526   0.124   7.194 -0.5972  0.0563 -0.1837
   44CHL1  H11A 3217   4.446   0.046   7.193 -2.7698  2.1709 -0.2186
   44CHL1  H11B 3218   4.484   0.213   7.143  1.4333  0.1521 -1.7843
   44CHL1    C9 3219   4.650   0.068   7.112  0.5004 -0.1534  0.0825
   44CHL1    H9 3220   4.724   0.151   7.111  1.1104 -0.5983  2.2415
   44CHL1   C10 3221   4.628   0.029   6.964  0.2845  0.0509 -0.6513
   44CHL1   C19 3222   4.513  -0.077   6.965  0.4613 -0.0771 -1.0199
   44CHL1  H19A 3223   4.497  -0.109   6.860  2.3435 -0.5503 -1.2015
   44CHL1  H19B 3224   4.543  -0.170   7.017  2.0303  1.2701  0.6230
   44CHL1  H19C 3225   4.418  -0.029   6.997 -1.0082 -3.8137  0.8043
   44CHL1    C1 3226   4.591   0.154   6.879  0.3319  0.3207  0.6751
   44CHL1   H1A 3227   4.491   0.181   6.919 -0.4987  0.9427 -1.6376
   44CHL1   H1B 3228   4.666   0.230   6.909  0.1949  0.5689  0.4043
   44CHL1    C2 3229   4.588   0.129   6.731 -0.8766 -0.1901 -0.5543
   44CHL1   H2A 3230   4.555   0.219   6.675  1.6707  1.2588  0.0947
   44CHL1   H2B 3231   4.513   0.049   6.715  1.0110 -1.8544 -1.6818
   44CHL1   C20 3232   4.574   0.063   7.677  0.5833 -0.0944 -0.3447
   44CHL1   H20 3233   4.517  -0.032   7.682 -0.3297  0.4103 -0.8576
   44CHL1   C21 3234   4.477   0.175   7.668  0.2334 -0.3087  0.7895
   44CHL1  H21A 3235   4.518   0.275   7.640 -1.0803  0.4707  1.5807
   44CHL1  H21B 3236   4.419   0.178   7.763  3.1290 -1.2779  2.7469
   44CHL1  H21C 3237   4.403   0.164   7.586 -0.1395  0.9765  0.9291
   44CHL1   C22 3238   4.650   0.074   7.815  0.2699 -0.1756 -0.3114
   44CHL1  H22A 3239   4.579   0.067   7.900  0.9404  0.9491  0.3604
   44CHL1  H22B 3240   4.722  -0.010   7.831  0.3678 -0.1915 -0.8162
   44CHL1   C23 3241   4.733   0.202   7.839  0.1489  0.1736 -0.2512
   44CHL1  H23A 3242   4.815   0.207   7.766 -0.4777  0.0448 -0.9743
   44CHL1  H23B 3243   4.662   0.288   7.834 -1.6980 -1.3272 -0.9343
   44CHL1   C24 3244   4.809   0.202   7.974 -0.3607  0.0896  0.5875
   44CHL1  H24A 3245   4.743   0.188   8.062  0.7711 -1.1204  1.2791
   44CHL1  H24B 3246   4.862   0.104   7.971  0.5111  0.5226  1.3897
   44CHL1   C25 3247   4.921   0.306   7.996 -0.4661  0.3317  0.5575
   44CHL1   H25 3248   5.000   0.289   7.921 -2.4906 -2.4222 -1.1246
   44CHL1   C26 3249   4.874   0.452   7.981 -0.1902 -0.1689 -0.1799
   44CHL1  H26A 3250   4.847   0.487   7.879 -0.0136  0.8362  0.1065
   44CHL1  H26B 3251   4.786   0.462   8.049  1.0139 -0.4629  1.4728
   44CHL1  H26C 3252   4.944   0.522   8.031  0.9114 -1.1138 -0.3706
   44CHL1   C27 3253   4.980   0.283   8.137  0.4084 -0.0558 -0.3594
   44CHL1  H27A 3254   5.004   0.176   8.153 -1.0524 -0.4686 -0.8803
   44CHL1  H27B 3255   5.065   0.350   8.164  0.8935 -0.7967 -0.0063
   44CHL1  H27C 3256   4.905   0.313   8.213  1.0629 -0.2188  0.3629
   45CHL1    C3 3257   4.762   4.140   6.628  0.3578  0.3256 -0.3047
   45CHL1    H3 3258   4.814   4.047   6.660 -1.1331  0.2159  2.0763
   45CHL1    O3 3259   4.770   4.186   6.497  0.5860 -0.5021  0.6174
   45CHL1   H3' 3260   4.695   4.247   6.491  1.6532  0.7603 -0.4384
   45CHL1    C4 3261   4.610   4.108   6.644 -0.1261  0.6388  0.2069
   45CHL1   H4A 3262   4.559   4.204   6.624  1.3648  1.3217 -0.5252
   45CHL1   H4B 3263   4.576   4.034   6.568 -2.8233  2.0855 -0.1213
   45CHL1    C5 3264   4.581   4.079   6.788  0.1772 -0.0539  0.1357
   45CHL1    C6 3265   4.526   3.961   6.824 -0.1866  0.3181  0.1557
   45CHL1    H6 3266   4.519   3.888   6.742 -0.2849  0.5917 -0.0778
   45CHL1    C7 3267   4.496   3.922   6.965 -0.1392 -0.5452  0.2706
   45CHL1   H7A 3268   4.402   3.863   6.973 -1.8440  2.2265  3.1769
   45CHL1   H7B 3269   4.583   3.874   7.013 -0.8015  0.6781  2.8758
   45CHL1    C8 3270   4.483   4.042   7.057  0.0225  0.4951 -0.4401
   45CHL1    H8 3271   4.386   4.086   7.026  0.2344  1.1078 -0.2494
   45CHL1   C14 3272   4.469   4.002   7.202 -0.0810  0.3086 -0.5912
   45CHL1   H14 3273   4.568   3.968   7.240  0.0467  1.0458 -0.2360
   45CHL1   C15 3274   4.361   3.902   7.232 -0.5976 -0.0193 -1.2808
   45CHL1  H15A 3275   4.261   3.923   7.187 -1.9813  2.7210  2.4906
   45CHL1  H15B 3276   4.399   3.801   7.206  3.4739  0.1700  2.7379
   45CHL1   C16 3277   4.321   3.925   7.383 -0.2919  0.0706 -0.3186
   45CHL1  H16A 3278   4.213   3.953   7.384 -0.1838  0.7356 -2.6607
   45CHL1  H16B 3279   4.341   3.851   7.463 -0.0394  1.5343  1.0362
   45CHL1   C17 3280   4.402   4.050   7.427 -0.5065 -0.1351  0.1988
   45CHL1   H17 3281   4.494   4.000   7.466 -0.2504 -0.7392 -1.1315
   45CHL1   C13 3282   4.445   4.119   7.291  0.1408 -0.3960  0.0507
   45CHL1   C18 3283   4.314   4.202   7.251  0.3345  0.5244 -0.5506
   45CHL1  H18A 3284   4.296   4.296   7.308  2.1576 -0.1647  1.2625
   45CHL1  H18B 3285   4.334   4.229   7.145  0.0292 -1.4586 -1.1590
   45CHL1  H18C 3286   4.237   4.121   7.257  0.8058  0.0498 -0.8523
   45CHL1   C12 3287   4.573   4.211   7.293  0.5996  0.3302  0.1660
   45CHL1  H12A 3288   4.552   4.299   7.359 -1.9735 -0.0158 -0.0798
   45CHL1  H12B 3289   4.662   4.150   7.321  0.3674 -0.2215 -0.2932
   45CHL1   C11 3290   4.598   4.261   7.144 -0.0908 -0.0265 -0.0903
   45CHL1  H11A 3291   4.518   4.336   7.124  1.6978  1.5570 -1.6596
   45CHL1  H11B 3292   4.693   4.318   7.128 -0.4550  0.0629 -2.1758
   45CHL1    C9 3293   4.593   4.143   7.039 -0.3157  0.3575 -0.5224
   45CHL1    H9 3294   4.677   4.073   7.059 -0.9235 -1.2045 -3.0065
   45CHL1   C10 3295   4.621   4.191   6.893  0.0228  1.0017 -0.1784
   45CHL1   C19 3296   4.533   4.324   6.868 -0.5962  0.7894 -0.3912
   45CHL1  H19A 3297   4.431   4.295   6.902 -1.2768  0.3611 -2.6386
   45CHL1  H19B 3298   4.588   4.403   6.923 -1.2942  2.2956 -1.7885
   45CHL1  H19C 3299   4.514   4.364   6.767 -1.0830 -0.9718 -1.0353
   45CHL1    C1 3300   4.772   4.209   6.870 -0.0411 -0.0627  0.8381
   45CHL1   H1A 3301   4.801   4.292   6.939  1.8844 -0.7437  0.8819
   45CHL1   H1B 3302   4.834   4.129   6.914 -0.0197  0.2828  1.4562
   45CHL1    C2 3303   4.806   4.247   6.726  0.2382 -0.0208 -0.0958
   45CHL1   H2A 3304   4.914   4.265   6.707 -0.3779  1.7144 -2.4153
   45CHL1   H2B 3305   4.756   4.345   6.707 -2.6949 -0.9869  1.8120
   45CHL1   C20 3306   4.337   4.125   7.540 -0.2629 -0.5271  0.4469
   45CHL1   H20 3307   4.250   4.186   7.505 -1.3907 -2.0228  0.5410
   45CHL1   C21 3308   4.441   4.214   7.609  0.3662  0.8328 -0.0497
   45CHL1  H21A 3309   4.395   4.276   7.688  0.3952  2.1996 -1.0636
   45CHL1  H21B 3310   4.495   4.286   7.543  2.2390  0.9326  1.5014
   45CHL1  H21C 3311   4.514   4.144   7.656 -0.5721  0.3276  0.6749
   45CHL1   C22 3312   4.271   4.035   7.640 -0.4979  1.2923 -0.2492
   45CHL1  H22A 3313   4.172   3.998   7.607 -0.8566  3.8282 -2.3207
   45CHL1  H22B 3314   4.337   3.947   7.653  0.1324  1.8034  0.0737
   45CHL1   C23 3315   4.237   4.087   7.782 -0.1156  0.2410  0.0831
   45CHL1  H23A 3316   4.330   4.108   7.841  1.1290 -0.1788 -1.6500
   45CHL1  H23B 3317   4.171   4.175   7.775 -0.8882 -0.3347  0.0448
   45CHL1   C24 3318   4.146   3.994   7.862  0.4160  0.4609 -0.2629
   45CHL1  H24A 3319   4.054   3.977   7.802  1.8360 -0.8735 -2.1969
   45CHL1  H24B 3320   4.194   3.898   7.892  0.1142  0.3690 -0.0692
   45CHL1   C25 3321   4.118   4.053   7.996  0.5546  0.0108 -0.1801
   45CHL1   H25 3322   4.087   4.159   7.986 -0.5064 -0.4209 -1.8000
   45CHL1   C26 3323   4.009   3.980   8.078 -0.3338  0.0115  0.6679
   45CHL1  H26A 3324   3.924   3.965   8.008  1.5068  4.7242 -3.1535
   45CHL1  H26B 3325   4.059   3.887   8.112  1.8763  0.7528 -0.4012
   45CHL1  H26C 3326   3.960   4.033   8.163 -1.3503  0.4487 -0.1630
   45CHL1   C27 3327   4.246   4.054   8.085 -0.0950  0.1225  0.3588
   45CHL1  H27A 3328   4.207   4.065   8.188 -0.9236 -0.7824  0.1645
   45CHL1  H27B 3329   4.320   3.973   8.074 -0.4352  0.0869 -2.5538
   45CHL1  H27C 3330   4.311   4.142   8.063 -0.9293  0.8525  0.7416
   46CHL1    C3 3331   4.870   4.631   6.887  0.6314 -0.0812 -0.2401
   46CHL1    H3 3332   4.782   4.575   6.849  1.0089 -0.6707 -0.2646
   46CHL1    O3 3333   4.907   4.682   6.757 -0.3302  0.1959 -0.2732
   46CHL1   H3' 3334   4.998   4.710   6.775  0.2759 -1.8492  0.1286
   46CHL1    C4 3335   4.834   4.740   6.988 -1.0796 -0.8120  0.6731
   46CHL1   H4A 3336   4.916   4.814   6.989 -2.2211  0.4801  0.6316
   46CHL1   H4B 3337   4.751   4.798   6.944  0.1587  0.2186 -0.3666
   46CHL1    C5 3338   4.807   4.685   7.127 -0.3676  0.7565 -0.6072
   46CHL1    C6 3339   4.691   4.709   7.192 -0.7546 -0.4450  0.0179
   46CHL1    H6 3340   4.613   4.778   7.157 -1.3022 -0.6086  0.8760
   46CHL1    C7 3341   4.665   4.658   7.327  0.3167 -0.2787 -0.8196
   46CHL1   H7A 3342   4.591   4.722   7.380 -0.2395 -0.7326 -1.0373
   46CHL1   H7B 3343   4.626   4.554   7.322 -1.2901  0.2361  0.1667
   46CHL1    C8 3344   4.789   4.642   7.411  0.0309  0.0871  0.0152
   46CHL1    H8 3345   4.839   4.734   7.447  1.6622 -1.5574  2.2528
   46CHL1   C14 3346   4.763   4.557   7.542 -0.4070  0.5449 -0.6518
   46CHL1   H14 3347   4.724   4.457   7.512  1.1899 -0.1471 -0.5024
   46CHL1   C15 3348   4.649   4.606   7.633 -1.3193 -0.2469  0.3980
   46CHL1  H15A 3349   4.643   4.715   7.655 -0.2175  0.3068 -1.7441
   46CHL1  H15B 3350   4.559   4.576   7.575 -0.5711 -0.8275 -0.4869
   46CHL1   C16 3351   4.664   4.518   7.762  0.4815  0.4574  0.6373
   46CHL1  H16A 3352   4.658   4.595   7.842  0.8569  0.5663  0.5659
   46CHL1  H16B 3353   4.597   4.430   7.767 -0.8546  1.1721 -2.3252
   46CHL1   C17 3354   4.809   4.463   7.757 -0.0524 -0.5100  0.4186
   46CHL1   H17 3355   4.794   4.359   7.720 -3.4544  0.7000 -2.1373
   46CHL1   C13 3356   4.881   4.537   7.638  0.7060  0.8718  0.1454
   46CHL1   C18 3357   4.924   4.676   7.689 -1.0627  0.5601  0.8437
   46CHL1  H18A 3358   4.847   4.741   7.737 -0.4030  1.1756  1.1009
   46CHL1  H18B 3359   5.009   4.675   7.761  1.4610 -0.9261 -1.9276
   46CHL1  H18C 3360   4.975   4.739   7.613 -1.7541  0.6598  0.4566
   46CHL1   C12 3361   4.991   4.451   7.568  0.5812 -0.2817  0.6304
   46CHL1  H12A 3362   5.085   4.458   7.628  1.3913  0.3886 -0.6555
   46CHL1  H12B 3363   4.956   4.346   7.557 -0.9708  0.2878 -0.0864
   46CHL1   C11 3364   5.015   4.501   7.424  0.7455 -0.2590 -0.0622
   46CHL1  H11A 3365   5.083   4.588   7.441  0.3063 -0.1787  1.4800
   46CHL1  H11B 3366   5.074   4.427   7.367  1.6602 -0.2845  0.8814
   46CHL1    C9 3367   4.893   4.555   7.338 -0.7822 -0.0615  0.2613
   46CHL1    H9 3368   4.846   4.457   7.315 -2.0725  1.0799 -2.4022
   46CHL1   C10 3369   4.931   4.608   7.191 -0.0024  0.0538  0.1067
   46CHL1   C19 3370   5.059   4.697   7.208  0.1103 -0.0645 -0.3120
   46CHL1  H19A 3371   5.095   4.736   7.110  0.5771 -1.2531 -0.6367
   46CHL1  H19B 3372   5.032   4.777   7.280 -2.1542  1.2188 -2.4258
   46CHL1  H19C 3373   5.150   4.641   7.240  0.6815  0.3351 -1.1893
   46CHL1    C1 3374   4.957   4.495   7.086  0.5403 -0.0052  0.1034
   46CHL1   H1A 3375   5.045   4.441   7.129  2.1469  0.8555 -1.9295
   46CHL1   H1B 3376   4.877   4.418   7.083  2.5301 -2.2213  0.2119
   46CHL1    C2 3377   4.979   4.533   6.939  0.0478 -0.6467  0.1711
   46CHL1   H2A 3378   4.986   4.447   6.869 -0.5025  0.6220 -1.5166
   46CHL1   H2B 3379   5.060   4.609   6.932 -0.0914 -0.4690  0.4907
   46CHL1   C20 3380   4.884   4.442   7.887 -0.4006  0.1510 -0.2030
   46CHL1   H20 3381   4.992   4.443   7.861  0.0079  0.6412  1.4390
   46CHL1   C21 3382   4.847   4.297   7.949  0.0295  0.2963 -0.0051
   46CHL1  H21A 3383   4.906   4.266   8.038 -2.8629 -0.4747  1.7717
   46CHL1  H21B 3384   4.862   4.228   7.863  2.5928 -1.2420  1.5565
   46CHL1  H21C 3385   4.740   4.289   7.977 -0.0120  0.0081 -0.2307
   46CHL1   C22 3386   4.863   4.552   7.995 -0.1912  0.3942 -0.3025
   46CHL1  H22A 3387   4.863   4.657   7.959  0.4005  0.9536  1.2610
   46CHL1  H22B 3388   4.759   4.534   8.028  0.0995  0.3397  0.5927
   46CHL1   C23 3389   4.968   4.551   8.115 -0.0397 -0.2425  0.6017
   46CHL1  H23A 3390   4.953   4.453   8.165 -1.9080 -0.6062 -0.5655
   46CHL1  H23B 3391   5.068   4.556   8.065 -1.4980 -1.8707 -2.8114
   46CHL1   C24 3392   4.955   4.670   8.204  0.5009  0.4072  0.0352
   46CHL1  H24A 3393   5.032   4.653   8.282 -1.5870 -2.0198  1.7576
   46CHL1  H24B 3394   4.970   4.765   8.148  3.0727  1.6001  2.4736
   46CHL1   C25 3395   4.814   4.677   8.271 -0.3019  0.0468  0.4766
   46CHL1   H25 3396   4.740   4.663   8.190 -0.2140 -2.0535  0.7032
   46CHL1   C26 3397   4.793   4.555   8.371  0.2155 -0.5517 -0.1072
   46CHL1  H26A 3398   4.848   4.578   8.464 -1.0164  1.0701  0.2647
   46CHL1  H26B 3399   4.684   4.545   8.390  0.0248 -2.3180 -1.7464
   46CHL1  H26C 3400   4.823   4.457   8.326 -0.4247 -1.1369  0.7054
   46CHL1   C27 3401   4.779   4.801   8.352 -0.2369 -0.5653  0.5105
   46CHL1  H27A 3402   4.803   4.892   8.292  2.1188 -1.5604 -0.1613
   46CHL1  H27B 3403   4.668   4.800   8.361 -0.3855  1.1504 -0.5176
   46CHL1  H27C 3404   4.818   4.807   8.456  2.0842  1.1786 -0.3830
   47CHL1    C3 3405   5.180   3.998   6.669 -0.4446 -0.1140 -0.3101
   47CHL1    H3 3406   5.106   4.064   6.620 -0.4043  0.0778 -0.1169
   47CHL1    O3 3407   5.290   3.988   6.584 -0.0464  0.2205 -0.3680
   47CHL1   H3' 3408   5.321   4.079   6.581  0.5980  0.1847  2.3200
   47CHL1    C4 3409   5.231   4.068   6.801 -0.3923 -0.2748 -0.7387
   47CHL1   H4A 3410   5.330   4.024   6.824  0.0875  1.2906  0.4034
   47CHL1   H4B 3411   5.265   4.173   6.782  0.9845 -0.3995  0.7764
   47CHL1    C5 3412   5.153   4.051   6.923 -0.3140 -0.4355  0.3906
   47CHL1    C6 3413   5.118   4.153   7.007 -0.4023  0.0050  0.0460
   47CHL1    H6 3414   5.156   4.255   6.991  1.2634 -0.3533  1.4018
   47CHL1    C7 3415   5.033   4.146   7.129 -0.0130 -0.4054  0.1538
   47CHL1   H7A 3416   5.066   4.223   7.202 -0.4896  0.5038 -0.5736
   47CHL1   H7B 3417   4.932   4.172   7.092  1.1030 -1.4588 -4.2663
   47CHL1    C8 3418   5.035   4.010   7.182 -0.3896  0.3428 -0.3840
   47CHL1    H8 3419   5.134   3.987   7.228  0.3119  0.9063 -1.5584
   47CHL1   C14 3420   4.928   4.000   7.286  0.1528  0.2299  0.1556
   47CHL1   H14 3421   4.829   4.017   7.238  0.7753  0.0411 -1.2411
   47CHL1   C15 3422   4.932   4.105   7.403  0.1564  0.1040  1.2023
   47CHL1  H15A 3423   5.037   4.123   7.434  0.5063 -2.1910  1.5968
   47CHL1  H15B 3424   4.880   4.198   7.373  0.3521  0.6243  2.4118
   47CHL1   C16 3425   4.859   4.031   7.514  0.3199  0.0046 -0.8816
   47CHL1  H16A 3426   4.928   4.021   7.600 -1.4409  0.7847  0.6949
   47CHL1  H16B 3427   4.785   4.098   7.564 -0.5748 -1.9434  0.5291
   47CHL1   C17 3428   4.804   3.896   7.461 -0.1744  1.0128 -0.2653
   47CHL1   H17 3429   4.707   3.927   7.416 -1.5706 -2.1145  0.2911
   47CHL1   C13 3430   4.906   3.859   7.353 -0.2182  0.1228  0.3612
   47CHL1   C18 3431   5.035   3.802   7.419  0.1194  0.4243 -0.0008
   47CHL1  H18A 3432   5.117   3.775   7.349 -1.2021  4.1604 -3.3990
   47CHL1  H18B 3433   5.088   3.878   7.481 -0.6139  1.4083 -0.5571
   47CHL1  H18C 3434   5.013   3.713   7.481  1.5317  0.0965  0.0591
   47CHL1   C12 3435   4.868   3.763   7.239 -0.4721  0.8317 -0.4312
   47CHL1  H12A 3436   4.856   3.660   7.278 -0.3351  0.5668 -1.0952
   47CHL1  H12B 3437   4.775   3.799   7.189  1.2447  1.1960 -3.6002
   47CHL1   C11 3438   4.973   3.758   7.126  0.3025  0.2085  0.5767
   47CHL1  H11A 3439   5.065   3.716   7.170  1.2552  1.8465  0.2271
   47CHL1  H11B 3440   4.934   3.700   7.039  0.8855  1.3108 -0.4525
   47CHL1    C9 3441   5.010   3.905   7.072  0.1935 -0.0493 -0.3915
   47CHL1    H9 3442   4.916   3.937   7.023  1.0513 -0.2380 -2.2429
   47CHL1   C10 3443   5.107   3.914   6.948  0.5955 -0.1906 -0.8940
   47CHL1   C19 3444   5.233   3.821   6.979 -1.3336 -0.2058  0.0168
   47CHL1  H19A 3445   5.204   3.715   6.967 -1.0799 -0.3001  0.2439
   47CHL1  H19B 3446   5.311   3.837   6.901  1.4058 -2.9584  1.9493
   47CHL1  H19C 3447   5.274   3.841   7.080 -0.0735 -4.6666  0.5712
   47CHL1    C1 3448   5.045   3.855   6.818 -0.4608 -0.2319  0.1517
   47CHL1   H1A 3449   5.033   3.747   6.840 -0.3430 -0.0171  1.2956
   47CHL1   H1B 3450   4.943   3.896   6.807 -0.9603 -0.9899  1.7281
   47CHL1    C2 3451   5.122   3.854   6.689 -0.3988 -0.0746 -0.7011
   47CHL1   H2A 3452   5.068   3.824   6.597 -0.6786 -2.7664  0.2343
   47CHL1   H2B 3453   5.214   3.792   6.689  1.4548  2.5253  0.1683
   47CHL1   C20 3454   4.765   3.788   7.567  0.2217 -0.2787  0.0119
   47CHL1   H20 3455   4.852   3.760   7.629 -0.1683 -1.5266  0.0253
   47CHL1   C21 3456   4.729   3.650   7.510  0.3892 -0.8669  0.1744
   47CHL1  H21A 3457   4.664   3.591   7.579  0.3624  0.2543  1.1295
   47CHL1  H21B 3458   4.826   3.598   7.498  2.6363  3.1147 -0.6790
   47CHL1  H21C 3459   4.677   3.661   7.413  0.8319 -1.0988 -0.0936
   47CHL1   C22 3460   4.659   3.838   7.669 -0.1643 -0.9143  0.0257
   47CHL1  H22A 3461   4.677   3.942   7.704 -0.2467 -0.4069 -1.3959
   47CHL1  H22B 3462   4.558   3.842   7.624 -1.7562 -1.7933  3.2090
   47CHL1   C23 3463   4.654   3.752   7.790 -0.0590  0.0965 -0.2567
   47CHL1  H23A 3464   4.626   3.645   7.777 -1.1866 -0.4723  4.7551
   47CHL1  H23B 3465   4.752   3.762   7.841  0.2773  0.3165 -0.9321
   47CHL1   C24 3466   4.561   3.806   7.901  0.6150 -0.3980  0.7330
   47CHL1  H24A 3467   4.582   3.909   7.939  0.2030 -0.0160 -0.0499
   47CHL1  H24B 3468   4.460   3.816   7.857 -0.1113  1.4563  2.6279
   47CHL1   C25 3469   4.557   3.712   8.019  0.3020 -0.3635 -0.5266
   47CHL1   H25 3470   4.560   3.611   7.973  0.4807 -1.1553  1.1783
   47CHL1   C26 3471   4.685   3.725   8.104 -0.2367 -0.5704 -0.1725
   47CHL1  H26A 3472   4.707   3.832   8.124  2.9989 -0.4815 -3.2232
   47CHL1  H26B 3473   4.681   3.675   8.203  0.0325 -0.5797 -0.1656
   47CHL1  H26C 3474   4.774   3.682   8.052 -0.3083 -2.6810  1.3006
   47CHL1   C27 3475   4.432   3.730   8.102  0.1618  0.1258  0.2409
   47CHL1  H27A 3476   4.339   3.740   8.042  0.8503  0.0799 -0.8734
   47CHL1  H27B 3477   4.418   3.647   8.174  0.7875 -1.1580 -1.0548
   47CHL1  H27C 3478   4.446   3.821   8.162 -2.0134 -1.0368  2.7013
   48CHL1    C3 3479   0.064   2.744   6.466  0.3139  0.4523  0.4212
   48CHL1    H3 3480   0.062   2.846   6.421 -0.6785 -0.7961 -2.7079
   48CHL1    O3 3481   0.050   2.653   6.356 -0.2064  0.2008  0.7829
   48CHL1   H3' 3482   0.131   2.601   6.356 -0.7926 -0.8541 -1.7745
   48CHL1    C4 3483   0.202   2.717   6.527 -0.0830 -0.0244 -0.6821
   48CHL1   H4A 3484   0.216   2.607   6.530 -0.7718 -0.1472 -1.5768
   48CHL1   H4B 3485   0.274   2.759   6.454 -0.2301  1.5401  0.0385
   48CHL1    C5 3486   0.216   2.782   6.661 -0.1973  0.8263  0.3434
   48CHL1    C6 3487   0.325   2.854   6.694 -0.2439  0.2419 -0.0665
   48CHL1    H6 3488   0.413   2.845   6.629  1.1223  1.5092  1.5204
   48CHL1    C7 3489   0.355   2.912   6.830 -0.0852 -0.2929 -0.0383
   48CHL1   H7A 3490   0.459   2.885   6.856  0.2949  1.1010 -0.0316
   48CHL1   H7B 3491   0.341   3.022   6.828 -1.6357 -0.4392  0.8150
   48CHL1    C8 3492   0.256   2.869   6.950 -0.4912 -0.5731 -0.4125
   48CHL1    H8 3493   0.296   2.771   6.986  0.7431 -1.3145 -3.4092
   48CHL1   C14 3494   0.250   2.987   7.050 -0.6016  0.1481 -0.0719
   48CHL1   H14 3495   0.219   3.080   6.997  1.9660  0.1219 -1.8238
   48CHL1   C15 3496   0.379   3.038   7.111  0.4356 -0.6071 -0.3940
   48CHL1  H15A 3497   0.462   2.967   7.132 -0.9950 -1.8517  1.4686
   48CHL1  H15B 3498   0.417   3.107   7.033  0.2698 -0.3944 -0.2858
   48CHL1   C16 3499   0.338   3.115   7.235 -0.7450  0.9272  0.1713
   48CHL1  H16A 3500   0.394   3.069   7.319 -0.5046 -3.6731 -2.1403
   48CHL1  H16B 3501   0.358   3.224   7.234  1.7171  0.5336  0.0504
   48CHL1   C17 3502   0.189   3.087   7.262  0.2816  0.1135  0.5844
   48CHL1   H17 3503   0.134   3.166   7.207 -0.4709  0.0777  1.2667
   48CHL1   C13 3504   0.162   2.963   7.166 -0.2998  0.8490  0.4469
   48CHL1   C18 3505   0.209   2.833   7.243 -0.0752 -0.4984  0.5633
   48CHL1  H18A 3506   0.165   2.841   7.345 -4.2527 -2.1288 -0.8582
   48CHL1  H18B 3507   0.161   2.737   7.212 -2.8557  0.2866  2.0775
   48CHL1  H18C 3508   0.318   2.823   7.262  0.2945 -1.3470 -1.7244
   48CHL1   C12 3509   0.014   2.933   7.114 -0.1496  0.6067 -1.2769
   48CHL1  H12A 3510  -0.057   2.907   7.196  1.3675 -0.0991 -0.1296
   48CHL1  H12B 3511  -0.034   3.019   7.064 -2.8790  0.5553  1.0013
   48CHL1   C11 3512   0.001   2.830   7.002 -0.2039 -0.0412 -0.9695
   48CHL1  H11A 3513   0.017   2.727   7.041 -1.9568 -0.6091 -1.6253
   48CHL1  H11B 3514  -0.101   2.834   6.957  0.7166 -0.7989 -3.2525
   48CHL1    C9 3515   0.110   2.851   6.888 -0.5769  0.4055  0.1014
   48CHL1    H9 3516   0.090   2.957   6.859  0.5981  1.5249  2.9835
   48CHL1   C10 3517   0.095   2.766   6.760 -0.2454  0.7431  0.8298
   48CHL1   C19 3518   0.075   2.614   6.800  0.5029 -0.1056 -0.0774
   48CHL1  H19A 3519   0.159   2.583   6.866 -0.1296 -0.0081  0.7891
   48CHL1  H19B 3520  -0.023   2.607   6.853 -0.6641  2.1903 -1.7396
   48CHL1  H19C 3521   0.070   2.543   6.715 -0.0620 -1.1754  0.8244
   48CHL1    C1 3522  -0.034   2.813   6.689 -0.7385 -0.3786 -0.0690
   48CHL1   H1A 3523  -0.125   2.790   6.747 -1.1014 -0.6275 -0.7197
   48CHL1   H1B 3524  -0.031   2.922   6.666 -1.2904 -0.0722  1.2202
   48CHL1    C2 3525  -0.054   2.729   6.565  0.5667 -0.2339 -0.2220
   48CHL1   H2A 3526  -0.147   2.761   6.514  0.4985  0.8902  0.5496
   48CHL1   H2B 3527  -0.055   2.619   6.577 -0.6791 -0.1296  0.8232
   48CHL1   C20 3528   0.146   3.083   7.412  0.4738  0.0601  0.3328
   48CHL1   H20 3529   0.202   3.002   7.463 -1.7482 -2.2809 -0.7023
   48CHL1   C21 3530   0.002   3.035   7.428 -0.0770  0.5758  0.2944
   48CHL1  H21A 3531  -0.070   3.082   7.358 -0.7618 -0.2782  0.4091
   48CHL1  H21B 3532  -0.043   3.042   7.529 -1.9799  2.0937 -0.5797
   48CHL1  H21C 3533  -0.007   2.924   7.416  0.4147  0.7432 -1.9959
   48CHL1   C22 3534   0.157   3.225   7.478 -0.3529 -0.0465  0.4211
   48CHL1  H22A 3535   0.260   3.261   7.458 -1.3062  2.1011 -0.9435
   48CHL1  H22B 3536   0.090   3.299   7.430  0.3386  0.0603 -0.3918
   48CHL1   C23 3537   0.133   3.224   7.634 -0.4300  0.0791 -0.0393
   48CHL1  H23A 3538   0.024   3.212   7.652 -0.5500 -0.2532 -0.9252
   48CHL1  H23B 3539   0.191   3.141   7.680 -0.4252  1.4039  2.4864
   48CHL1   C24 3540   0.182   3.349   7.716  0.2313  0.1276 -0.2177
   48CHL1  H24A 3541   0.293   3.345   7.714  0.1971 -2.0456 -0.5054
   48CHL1  H24B 3542   0.141   3.440   7.669 -1.5703 -1.0053 -0.9806
   48CHL1   C25 3543   0.127   3.341   7.865 -0.3922 -0.1469 -0.4535
   48CHL1   H25 3544   0.017   3.334   7.872 -0.2198 -1.7643  1.3217
   48CHL1   C26 3545   0.183   3.231   7.948  0.1402  0.5069 -0.2674
   48CHL1  H26A 3546   0.175   3.252   8.057  1.2076 -0.9293  0.1221
   48CHL1  H26B 3547   0.113   3.147   7.931 -1.5250  0.9997  3.2634
   48CHL1  H26C 3548   0.292   3.218   7.929  0.2145 -0.9496  0.9247
   48CHL1   C27 3549   0.171   3.470   7.936  0.3879  0.5886 -0.1767
   48CHL1  H27A 3550   0.118   3.556   7.891  3.4813  2.4791 -0.5049
   48CHL1  H27B 3551   0.149   3.457   8.044 -0.2244 -0.6225 -0.4267
   48CHL1  H27C 3552   0.280   3.478   7.915  0.4833  0.0393  0.0717
   49CHL1    C3 3553   6.682   1.869   6.640 -0.4492 -0.3906 -0.2991
   49CHL1    H3 3554   6.645   1.967   6.603 -2.8607 -1.2360 -0.2964
   49CHL1    O3 3555   6.712   1.791   6.524  0.1360  0.4831 -0.6358
   49CHL1   H3' 3556   6.631   1.741   6.511  0.0853 -0.0867  1.4365
   49CHL1    C4 3557   6.808   1.889   6.725 -0.0162 -0.1152  0.2834
   49CHL1   H4A 3558   6.844   1.785   6.740  0.7591 -0.3061 -2.3535
   49CHL1   H4B 3559   6.883   1.944   6.663  0.7162  1.4258  2.4306
   49CHL1    C5 3560   6.778   1.953   6.855 -0.8525 -0.6898 -0.0792
   49CHL1    C6 3561   6.829   2.074   6.894  0.4701 -0.0719 -0.6020
   49CHL1    H6 3562   6.901   2.119   6.823 -2.2435  2.5476 -1.9179
   49CHL1    C7 3563   6.795   2.145   7.023 -0.4792  0.1509  0.0003
   49CHL1   H7A 3564   6.890   2.191   7.059 -0.4087  2.1079 -2.3810
   49CHL1   H7B 3565   6.723   2.229   7.006 -1.8799 -1.2696 -1.4097
   49CHL1    C8 3566   6.742   2.041   7.119  0.2583  0.1904 -0.2676
   49CHL1    H8 3567   6.820   1.966   7.142  1.4965  1.2072 -1.0062
   49CHL1   C14 3568   6.700   2.114   7.244  0.0507 -0.3109  0.5797
   49CHL1   H14 3569   6.614   2.180   7.217 -0.8145 -1.3049  0.8366
   49CHL1   C15 3570   6.798   2.208   7.326 -0.5502 -0.4278  0.2953
   49CHL1  H15A 3571   6.896   2.156   7.327  0.8506  1.8344 -3.0890
   49CHL1  H15B 3572   6.804   2.310   7.282 -0.5747 -0.6292 -0.1825
   49CHL1   C16 3573   6.732   2.221   7.461 -0.0023 -0.1851  0.0662
   49CHL1  H16A 3574   6.810   2.192   7.535 -0.6814  0.5169  1.0794
   49CHL1  H16B 3575   6.706   2.325   7.491  1.7625  0.4451 -0.4424
   49CHL1   C17 3576   6.614   2.124   7.463 -0.7749  0.2716 -0.8661
   49CHL1   H17 3577   6.526   2.181   7.428 -0.7983  0.3609 -0.6570
   49CHL1   C13 3578   6.629   2.029   7.350  0.3151  0.3144  0.1911
   49CHL1   C18 3579   6.738   1.927   7.397  0.7826  1.1487 -0.2188
   49CHL1  H18A 3580   6.694   1.859   7.473  0.9876 -0.2493 -1.3227
   49CHL1  H18B 3581   6.775   1.864   7.314  1.1155  1.0275  0.0195
   49CHL1  H18C 3582   6.826   1.976   7.445  0.8930  0.3897  0.3707
   49CHL1   C12 3583   6.498   1.954   7.291 -0.4612 -0.1573  0.1467
   49CHL1  H12A 3584   6.432   1.898   7.362  0.2297 -0.8546  0.2526
   49CHL1  H12B 3585   6.431   2.037   7.259  0.9169  0.5288 -1.0376
   49CHL1   C11 3586   6.533   1.884   7.155  0.6453  0.2269 -0.4242
   49CHL1  H11A 3587   6.592   1.798   7.194  0.9562  0.5178 -0.2518
   49CHL1  H11B 3588   6.444   1.837   7.109  0.7552  0.8982 -1.3353
   49CHL1    C9 3589   6.618   1.970   7.056  0.3796  0.4252 -0.4324
   49CHL1    H9 3590   6.556   2.053   7.016 -1.2547  0.2656  1.6145
   49CHL1   C10 3591   6.666   1.883   6.935  0.4630  0.1023  0.0169
   49CHL1   C19 3592   6.721   1.748   6.990  0.2806  0.0076 -0.2503
   49CHL1  H19A 3593   6.787   1.759   7.078  0.5674  0.4101 -0.5150
   49CHL1  H19B 3594   6.641   1.683   7.032 -1.4365  2.1778  0.0477
   49CHL1  H19C 3595   6.779   1.699   6.909  0.3872  0.8210 -0.6748
   49CHL1    C1 3596   6.543   1.868   6.842  0.1059 -0.7584  0.0395
   49CHL1   H1A 3597   6.460   1.807   6.883 -0.7111 -1.0923 -2.0397
   49CHL1   H1B 3598   6.495   1.967   6.824  2.4271  0.2333 -1.0838
   49CHL1    C2 3599   6.572   1.797   6.715  0.2580 -1.0172 -0.1306
   49CHL1   H2A 3600   6.483   1.784   6.650 -0.4086  1.3795  0.1878
   49CHL1   H2B 3601   6.600   1.693   6.739  2.4718 -0.0739  1.7612
   49CHL1   C20 3602   6.561   2.069   7.597 -0.7888  0.4567  0.7192
   49CHL1   H20 3603   6.511   1.973   7.574 -1.5279  1.2809 -1.3174
   49CHL1   C21 3604   6.457   2.161   7.656  1.0248  0.0034 -0.3016
   49CHL1  H21A 3605   6.370   2.172   7.588 -1.5712  1.7818  2.9830
   49CHL1  H21B 3606   6.509   2.259   7.664  1.0066 -0.0009 -0.1265
   49CHL1  H21C 3607   6.422   2.123   7.755 -0.8094  2.6604  0.1899
   49CHL1   C22 3608   6.664   2.045   7.712  0.2045  0.9140 -0.2531
   49CHL1  H22A 3609   6.766   2.017   7.677  0.3671  1.4977 -0.2562
   49CHL1  H22B 3610   6.678   2.140   7.768  0.6295  0.8523 -0.2500
   49CHL1   C23 3611   6.614   1.951   7.826 -0.3935 -0.0614 -0.1759
   49CHL1  H23A 3612   6.544   2.005   7.893  1.9676  1.7763  0.9511
   49CHL1  H23B 3613   6.577   1.852   7.792  0.0382 -1.2433  2.5838
   49CHL1   C24 3614   6.743   1.925   7.909 -0.8113  0.0692 -0.5780
   49CHL1  H24A 3615   6.788   1.838   7.856 -0.2796 -1.5627  2.3595
   49CHL1  H24B 3616   6.807   2.014   7.923 -0.3216 -0.3843  0.0912
   49CHL1   C25 3617   6.723   1.869   8.050 -0.1401  0.7459 -0.3767
   49CHL1   H25 3618   6.824   1.867   8.097  0.1730  0.8682 -1.0353
   49CHL1   C26 3619   6.632   1.954   8.138 -0.2741  0.6882  0.2393
   49CHL1  H26A 3620   6.626   1.917   8.242  3.0265  0.7606  0.5426
   49CHL1  H26B 3621   6.667   2.059   8.145 -1.7061  1.1392  0.9261
   49CHL1  H26C 3622   6.533   1.954   8.087 -0.2808 -0.4066  0.2311
   49CHL1   C27 3623   6.666   1.728   8.038  0.0704  0.2999  0.2357
   49CHL1  H27A 3624   6.625   1.692   8.135  1.8556  1.2320  1.3947
   49CHL1  H27B 3625   6.571   1.746   7.984 -0.6480 -0.2111  1.2758
   49CHL1  H27C 3626   6.729   1.654   7.984 -0.1535  0.4107 -0.1811
   50CHL1    C3 3627   1.030   2.307   6.685  0.1393 -0.4747 -0.1578
   50CHL1    H3 3628   1.046   2.413   6.658  0.2032 -0.4006  0.1765
   50CHL1    O3 3629   1.014   2.239   6.564 -0.2520  0.0872 -0.0207
   50CHL1   H3' 3630   0.954   2.164   6.572 -3.1246  2.3039  1.0933
   50CHL1    C4 3631   1.137   2.237   6.766 -0.0778  1.0621  0.1987
   50CHL1   H4A 3632   1.130   2.127   6.781 -0.4433  0.8378 -1.4222
   50CHL1   H4B 3633   1.234   2.248   6.713 -0.2728 -1.1174 -0.7528
   50CHL1    C5 3634   1.140   2.298   6.907  0.0052  0.1557  1.1310
   50CHL1    C6 3635   1.255   2.347   6.948 -0.4850  0.1830  0.2308
   50CHL1    H6 3636   1.347   2.327   6.891  0.4597 -1.4694  2.1953
   50CHL1    C7 3637   1.270   2.402   7.092 -0.0680  0.6734  0.0205
   50CHL1   H7A 3638   1.366   2.359   7.129  0.7456  3.1743  1.0335
   50CHL1   H7B 3639   1.282   2.512   7.094 -0.7201  0.7621 -0.4857
   50CHL1    C8 3640   1.153   2.364   7.185 -0.2599  0.0457 -0.4620
   50CHL1    H8 3641   1.173   2.258   7.207  1.1072  0.1055 -1.2766
   50CHL1   C14 3642   1.171   2.452   7.303 -0.4787  0.3485  0.2753
   50CHL1   H14 3643   1.155   2.553   7.261 -1.4020 -0.4252 -1.3246
   50CHL1   C15 3644   1.306   2.451   7.384  0.1180  0.4529 -0.0658
   50CHL1  H15A 3645   1.350   2.349   7.393 -0.8437  0.1559  1.6570
   50CHL1  H15B 3646   1.367   2.527   7.330 -1.0027  2.2693  1.1258
   50CHL1   C16 3647   1.263   2.495   7.523 -0.2054  0.2002  1.0029
   50CHL1  H16A 3648   1.306   2.420   7.592  3.3139  0.7680 -0.3665
   50CHL1  H16B 3649   1.313   2.591   7.549  0.1951 -0.5848  3.3320
   50CHL1   C17 3650   1.110   2.508   7.533 -0.4361 -0.2335  0.5539
   50CHL1   H17 3651   1.084   2.609   7.495  0.0863  0.0852  1.0322
   50CHL1   C13 3652   1.070   2.422   7.414  0.8932 -0.2798 -0.0396
   50CHL1   C18 3653   1.078   2.273   7.462  0.1162  0.6274  0.2346
   50CHL1  H18A 3654   1.059   2.198   7.383 -0.9584 -1.0372  1.9909
   50CHL1  H18B 3655   1.174   2.256   7.515  0.8543  1.6453 -0.7269
   50CHL1  H18C 3656   0.994   2.265   7.534 -1.9126  1.0150 -1.9742
   50CHL1   C12 3657   0.925   2.447   7.356  0.6878 -0.0304 -0.7836
   50CHL1  H12A 3658   0.847   2.408   7.425 -0.4579 -1.0125 -2.5923
   50CHL1  H12B 3659   0.917   2.557   7.345  0.1361  0.3577  2.4087
   50CHL1   C11 3660   0.894   2.370   7.220 -0.3682 -0.1590 -0.2612
   50CHL1  H11A 3661   0.882   2.267   7.258  0.3329 -0.3166 -0.4505
   50CHL1  H11B 3662   0.800   2.419   7.187 -1.2336 -0.5460  1.5667
   50CHL1    C9 3663   1.016   2.385   7.121 -0.2651 -0.5746 -0.3642
   50CHL1    H9 3664   1.019   2.492   7.091 -0.4220  0.0045  1.5782
   50CHL1   C10 3665   1.010   2.305   6.989 -0.1130 -1.3842 -0.2879
   50CHL1   C19 3666   0.984   2.159   7.027 -0.0499 -0.4344 -0.2414
   50CHL1  H19A 3667   0.876   2.147   7.052 -0.5136  2.4752 -0.5120
   50CHL1  H19B 3668   0.999   2.089   6.941  0.3245 -0.7727  0.0964
   50CHL1  H19C 3669   1.043   2.118   7.111  1.4366  0.1076 -0.9934
   50CHL1    C1 3670   0.894   2.362   6.900  0.1317 -0.0650 -0.4699
   50CHL1   H1A 3671   0.797   2.348   6.951 -1.1083  2.2315 -2.0055
   50CHL1   H1B 3672   0.898   2.472   6.885 -4.6052  0.1635 -1.6331
   50CHL1    C2 3673   0.897   2.293   6.765  0.0421  0.3195  0.2312
   50CHL1   H2A 3674   0.812   2.340   6.710 -1.6314  0.6570  2.9352
   50CHL1   H2B 3675   0.870   2.186   6.780  0.9661  0.0324 -0.0530
   50CHL1   C20 3676   1.051   2.497   7.674  0.0004 -0.2348 -0.3810
   50CHL1   H20 3677   1.036   2.390   7.701  0.5958 -0.8578 -2.3392
   50CHL1   C21 3678   0.912   2.563   7.677  0.4594 -0.3671 -0.3468
   50CHL1  H21A 3679   0.847   2.532   7.592  1.8328 -1.2513 -1.1192
   50CHL1  H21B 3680   0.932   2.672   7.670  0.4938 -0.4538 -1.9469
   50CHL1  H21C 3681   0.862   2.535   7.772  2.1128  0.7937  0.9202
   50CHL1   C22 3682   1.142   2.562   7.781  0.4149  0.5080  0.1520
   50CHL1  H22A 3683   1.235   2.502   7.792  0.7051  0.5804 -1.5944
   50CHL1  H22B 3684   1.162   2.665   7.744  0.1377  0.1853 -0.9476
   50CHL1   C23 3685   1.100   2.571   7.934  0.1862  0.3263  0.1605
   50CHL1  H23A 3686   1.017   2.644   7.937  0.6137  0.9539 -1.8561
   50CHL1  H23B 3687   1.065   2.475   7.978 -0.9812  1.0574  0.8654
   50CHL1   C24 3688   1.219   2.629   8.016 -0.1343  0.3109  0.0766
   50CHL1  H24A 3689   1.305   2.560   8.001 -1.1697 -1.2695  1.1203
   50CHL1  H24B 3690   1.243   2.721   7.958  0.2975 -0.4403 -0.9756
   50CHL1   C25 3691   1.198   2.657   8.167  0.1166 -0.0680  0.6539
   50CHL1   H25 3692   1.108   2.721   8.180  0.0602 -0.0572  0.2320
   50CHL1   C26 3693   1.179   2.521   8.238  0.0601 -0.7811 -0.2983
   50CHL1  H26A 3694   1.267   2.454   8.225  1.4922  1.0148 -0.3114
   50CHL1  H26B 3695   1.184   2.553   8.345  3.2471 -0.1329 -0.5390
   50CHL1  H26C 3696   1.081   2.478   8.207 -0.9155  1.5638 -0.6469
   50CHL1   C27 3697   1.319   2.735   8.215 -0.3690 -0.1790 -0.2445
   50CHL1  H27A 3698   1.408   2.670   8.226  0.4793  1.0874  0.7790
   50CHL1  H27B 3699   1.344   2.819   8.147 -1.8385 -0.9914 -1.8683
   50CHL1  H27C 3700   1.298   2.772   8.318  0.9608  0.3268 -0.1298
   51CHL1    C3 3701   4.847   2.783   6.972  0.2492  0.7346 -0.0367
   51CHL1    H3 3702   4.740   2.775   7.002  0.1793  1.2130 -0.1533
   51CHL1    O3 3703   4.847   2.808   6.832  0.6055 -0.1914  0.1027
   51CHL1   H3' 3704   4.753   2.794   6.819 -0.2944  0.4363  4.4071
   51CHL1    C4 3705   4.922   2.895   7.053 -0.1868  0.6084  0.9073
   51CHL1   H4A 3706   5.021   2.911   7.005  0.0543  1.8079  1.7629
   51CHL1   H4B 3707   4.860   2.984   7.027 -1.6983 -1.2924 -2.8002
   51CHL1    C5 3708   4.946   2.873   7.202  0.5297  0.1945  0.5018
   51CHL1    C6 3709   4.913   2.972   7.293 -0.4569  0.0404  0.3502
   51CHL1    H6 3710   4.871   3.066   7.254 -0.3394  0.0159  0.1667
   51CHL1    C7 3711   4.926   2.954   7.440  0.3888  0.3814  0.2771
   51CHL1   H7A 3712   4.959   3.049   7.488 -3.2117  0.5890  2.7134
   51CHL1   H7B 3713   4.830   2.943   7.493  1.0055  0.2610  1.4068
   51CHL1    C8 3714   5.015   2.834   7.481  0.6453  0.1799 -0.0747
   51CHL1    H8 3715   5.122   2.853   7.460  0.3824  0.9418 -0.7804
   51CHL1   C14 3716   4.992   2.806   7.630 -0.5364 -0.8687  0.4451
   51CHL1   H14 3717   4.884   2.785   7.643 -1.1114  1.6548  0.2569
   51CHL1   C15 3718   5.034   2.914   7.719 -0.7686 -0.7594 -0.5920
   51CHL1  H15A 3719   5.134   2.942   7.678  0.2452  0.9350  2.6145
   51CHL1  H15B 3720   4.967   3.002   7.718 -2.3391 -1.9328 -1.3027
   51CHL1   C16 3721   5.043   2.842   7.854  0.5383 -0.2338 -0.1437
   51CHL1  H16A 3722   5.138   2.857   7.910  1.0174 -3.1479 -0.0064
   51CHL1  H16B 3723   4.958   2.864   7.922  0.9876  1.5265 -0.0916
   51CHL1   C17 3724   5.032   2.690   7.829 -0.4269 -1.0463  0.9972
   51CHL1   H17 3725   4.923   2.671   7.839 -0.5105 -0.3535  1.4747
   51CHL1   C13 3726   5.065   2.684   7.682 -0.1813  0.6609  0.7494
   51CHL1   C18 3727   5.223   2.692   7.680  0.6155  0.4168  0.8003
   51CHL1  H18A 3728   5.265   2.760   7.757  0.4245  0.4547  0.8701
   51CHL1  H18B 3729   5.275   2.596   7.701  0.3429 -0.1838 -1.0677
   51CHL1  H18C 3730   5.246   2.730   7.578 -1.5122  1.9326  0.8264
   51CHL1   C12 3731   5.014   2.563   7.604  0.2195 -0.5551  0.6188
   51CHL1  H12A 3732   5.065   2.466   7.623  0.0451 -0.8209 -0.1969
   51CHL1  H12B 3733   4.905   2.557   7.621  0.1952 -1.9547  0.0898
   51CHL1   C11 3734   5.031   2.578   7.455 -0.3407  0.0679  0.5238
   51CHL1  H11A 3735   5.141   2.573   7.441 -0.1081  0.4626  2.0274
   51CHL1  H11B 3736   4.990   2.498   7.389  1.8633  1.6967 -3.1118
   51CHL1    C9 3737   4.976   2.709   7.394  0.3295  0.9163  0.4471
   51CHL1    H9 3738   4.867   2.703   7.418  0.3251 -0.4160  0.1916
   51CHL1   C10 3739   4.997   2.728   7.238 -0.0444  0.2302  0.6678
   51CHL1   C19 3740   5.151   2.719   7.206  0.7555 -0.3914  0.5090
   51CHL1  H19A 3741   5.212   2.800   7.251 -0.3720  0.5411  0.4281
   51CHL1  H19B 3742   5.198   2.629   7.251 -0.1574 -1.3873 -0.4513
   51CHL1  H19C 3743   5.163   2.717   7.096 -1.7013  1.9471  0.0829
   51CHL1    C1 3744   4.914   2.619   7.161 -0.9688  0.0731  0.3172
   51CHL1   H1A 3745   4.961   2.520   7.176 -0.4121  0.1887 -0.5796
   51CHL1   H1B 3746   4.810   2.617   7.198 -1.5054  0.1291 -1.1312
   51CHL1    C2 3747   4.905   2.644   7.007  0.7974 -0.6077  0.4432
   51CHL1   H2A 3748   4.846   2.566   6.954 -0.2733  1.2600 -1.2356
   51CHL1   H2B 3749   5.004   2.647   6.957 -0.1114  1.1028 -1.3951
   51CHL1   C20 3750   5.100   2.587   7.936  0.5882  0.2173  0.1422
   51CHL1   H20 3751   5.209   2.583   7.912  0.6681 -0.5947  0.5997
   51CHL1   C21 3752   5.029   2.460   7.921 -0.3389  0.7007  0.6333
   51CHL1  H21A 3753   5.051   2.382   7.997 -0.5371 -2.4118 -2.2824
   51CHL1  H21B 3754   5.060   2.408   7.828 -1.1894 -0.3044  0.8877
   51CHL1  H21C 3755   4.920   2.475   7.931 -0.5740  1.3459 -2.0301
   51CHL1   C22 3756   5.108   2.638   8.081  0.0279 -0.1115 -0.4676
   51CHL1  H22A 3757   5.150   2.739   8.103 -1.1254 -0.2589  3.0536
   51CHL1  H22B 3758   5.001   2.648   8.113 -0.5321 -1.3817 -1.8332
   51CHL1   C23 3759   5.190   2.544   8.176 -0.2481  0.0935 -0.7222
   51CHL1  H23A 3760   5.146   2.443   8.194  1.5751 -0.5835  0.2302
   51CHL1  H23B 3761   5.294   2.537   8.137 -0.7103  0.8531 -2.1747
   51CHL1   C24 3762   5.184   2.604   8.315  0.2390  0.2199  0.4713
   51CHL1  H24A 3763   5.188   2.715   8.320  1.8300  0.1994  0.0570
   51CHL1  H24B 3764   5.084   2.573   8.351 -0.2015  0.6287 -0.3732
   51CHL1   C25 3765   5.292   2.561   8.417  0.8030 -0.2744 -0.5641
   51CHL1   H25 3766   5.388   2.558   8.362  0.2046  0.6889 -1.7229
   51CHL1   C26 3767   5.297   2.665   8.537 -0.3813  0.2026 -0.1454
   51CHL1  H26A 3768   5.372   2.643   8.615 -1.7986  0.4586  1.3392
   51CHL1  H26B 3769   5.329   2.758   8.486  2.3943  0.7540  2.3546
   51CHL1  H26C 3770   5.197   2.677   8.584 -0.1678  0.9525  0.1272
   51CHL1   C27 3771   5.275   2.419   8.473  0.1694  0.4783 -0.0912
   51CHL1  H27A 3772   5.265   2.330   8.408 -0.4544 -0.2039  0.9060
   51CHL1  H27B 3773   5.354   2.399   8.548 -0.1245  0.8370  0.3241
   51CHL1  H27C 3774   5.170   2.413   8.510  0.8406  1.1665  2.1411
   52CHL1    C3 3775   3.899   5.021   6.851 -0.7244 -0.3786  0.5887
   52CHL1    H3 3776   4.007   5.001   6.867 -0.4198 -0.4892 -1.4327
   52CHL1    O3 3777   3.876   5.000   6.708  0.4787  0.0053 -0.6170
   52CHL1   H3' 3778   3.785   5.029   6.692  0.2833  0.1410  0.6698
   52CHL1    C4 3779   3.802   4.921   6.915  0.2687  0.1266 -0.0641
   52CHL1   H4A 3780   3.696   4.943   6.892 -0.6248 -1.4513  2.1135
   52CHL1   H4B 3781   3.801   4.815   6.882  0.2003  0.6476 -1.7826
   52CHL1    C5 3782   3.812   4.930   7.068 -0.2620 -0.2545  0.2332
   52CHL1    C6 3783   3.831   4.826   7.148  0.1586  0.2218 -0.5830
   52CHL1    H6 3784   3.838   4.724   7.107  0.4655  0.5743 -1.4329
   52CHL1    C7 3785   3.836   4.829   7.299 -0.6059  1.0511  0.4189
   52CHL1   H7A 3786   3.792   4.734   7.334  1.1130 -0.3241 -0.9660
   52CHL1   H7B 3787   3.943   4.811   7.321 -0.4180 -0.2131 -1.3137
   52CHL1    C8 3788   3.780   4.957   7.359 -0.6617  0.1646 -0.3287
   52CHL1    H8 3789   3.670   4.952   7.344 -0.6335  0.6436 -0.7428
   52CHL1   C14 3790   3.809   4.975   7.506 -0.2000  0.1593 -0.1414
   52CHL1   H14 3791   3.920   4.988   7.502 -0.1226 -0.5316 -0.4240
   52CHL1   C15 3792   3.773   4.867   7.606 -0.6128  0.4465  0.6464
   52CHL1  H15A 3793   3.673   4.822   7.587  0.1309 -1.5217  1.1604
   52CHL1  H15B 3794   3.845   4.784   7.588 -1.8124 -0.1782 -1.8062
   52CHL1   C16 3795   3.789   4.928   7.736  0.1293 -0.5770 -0.0690
   52CHL1  H16A 3796   3.699   4.890   7.789  2.1462 -3.9562  1.2439
   52CHL1  H16B 3797   3.882   4.903   7.791  0.8788  3.1345  0.6208
   52CHL1   C17 3798   3.790   5.089   7.710 -0.2737 -0.1542  0.6827
   52CHL1   H17 3799   3.898   5.114   7.719  0.2677 -0.9900 -2.3967
   52CHL1   C13 3800   3.751   5.106   7.563 -0.0662 -0.9728  0.1830
   52CHL1   C18 3801   3.595   5.099   7.555 -0.2793 -0.0608  0.5226
   52CHL1  H18A 3802   3.554   5.008   7.603 -0.2695 -0.4362 -0.1782
   52CHL1  H18B 3803   3.554   5.192   7.601 -0.6606 -0.7041  1.5048
   52CHL1  H18C 3804   3.554   5.102   7.452 -0.1494 -1.6409  0.4112
   52CHL1   C12 3805   3.803   5.235   7.494 -0.7000 -0.1779  0.6134
   52CHL1  H12A 3806   3.751   5.323   7.537 -2.7330  0.0212 -2.0349
   52CHL1  H12B 3807   3.907   5.245   7.532 -0.4401  1.9548 -0.5001
   52CHL1   C11 3808   3.798   5.220   7.342 -1.0161 -0.1335 -0.5620
   52CHL1  H11A 3809   3.690   5.234   7.322 -0.5316  1.0616 -2.6789
   52CHL1  H11B 3810   3.844   5.311   7.298  1.2021  0.2645  2.2926
   52CHL1    C9 3811   3.837   5.081   7.275  0.1209 -1.0200  0.4253
   52CHL1    H9 3812   3.948   5.076   7.281  0.0472 -0.8879  2.4934
   52CHL1   C10 3813   3.800   5.072   7.125 -0.0136  0.0811 -0.3239
   52CHL1   C19 3814   3.646   5.115   7.107 -0.8514  0.4885  0.1856
   52CHL1  H19A 3815   3.612   5.109   7.002 -1.6535 -0.2098  0.4839
   52CHL1  H19B 3816   3.579   5.048   7.163 -0.2852  0.4634  0.8478
   52CHL1  H19C 3817   3.626   5.218   7.145 -1.1977  0.1301  0.9836
   52CHL1    C1 3818   3.887   5.171   7.045  0.1078 -0.2561 -0.4147
   52CHL1   H1A 3819   3.867   5.275   7.080 -1.0570 -0.8805  0.8884
   52CHL1   H1B 3820   3.991   5.152   7.079  0.4125  2.3285  0.3348
   52CHL1    C2 3821   3.876   5.165   6.896 -0.1076 -0.3985 -0.9995
   52CHL1   H2A 3822   3.934   5.242   6.840  1.5938  0.3343  1.6107
   52CHL1   H2B 3823   3.772   5.201   6.878 -0.8827 -2.7578 -1.6377
   52CHL1   C20 3824   3.707   5.155   7.827  0.8008 -0.2508 -0.2573
   52CHL1   H20 3825   3.598   5.131   7.827  0.4049  1.4658  0.4883
   52CHL1   C21 3826   3.729   5.307   7.814  0.1644 -0.1427  0.5870
   52CHL1  H21A 3827   3.837   5.335   7.808 -0.1223  1.2695  1.5273
   52CHL1  H21B 3828   3.674   5.367   7.889  0.1447  1.5753 -0.7463
   52CHL1  H21C 3829   3.692   5.336   7.714 -0.7726 -2.6835  0.1109
   52CHL1   C22 3830   3.764   5.110   7.963 -0.4498 -0.6634  0.6979
   52CHL1  H22A 3831   3.764   5.000   7.979  0.1921 -0.7180  0.3592
   52CHL1  H22B 3832   3.873   5.129   7.969  0.5169 -5.2486  0.9057
   52CHL1   C23 3833   3.679   5.167   8.083 -0.3760  0.2776  0.5921
   52CHL1  H23A 3834   3.671   5.277   8.085 -2.1168  0.2214 -0.6519
   52CHL1  H23B 3835   3.575   5.130   8.066 -0.9326  0.4459  3.1984
   52CHL1   C24 3836   3.727   5.102   8.215 -0.1429 -0.1117 -0.7809
   52CHL1  H24A 3837   3.692   4.997   8.219 -0.2756 -0.0204  1.8886
   52CHL1  H24B 3838   3.836   5.083   8.206 -0.4981 -2.5842 -0.4813
   52CHL1   C25 3839   3.680   5.167   8.347  0.1203  0.2740 -0.1710
   52CHL1   H25 3840   3.746   5.126   8.426 -1.3003 -0.1325  0.8532
   52CHL1   C26 3841   3.719   5.316   8.340  0.6711 -0.1379 -0.2351
   52CHL1  H26A 3842   3.718   5.368   8.438  2.5771  0.5526 -0.5437
   52CHL1  H26B 3843   3.824   5.333   8.309  1.7078  0.6103  3.2410
   52CHL1  H26C 3844   3.657   5.371   8.266  2.8434  0.9114 -1.3753
   52CHL1   C27 3845   3.529   5.140   8.374  0.3286  0.2436  0.2265
   52CHL1  H27A 3846   3.457   5.162   8.293  0.1108  1.9477  0.8423
   52CHL1  H27B 3847   3.518   5.035   8.408 -0.2125  0.3606  0.4209
   52CHL1  H27C 3848   3.494   5.189   8.467 -0.1380 -3.9480  2.5117
   53CHL1    C3 3849   5.355   6.438   6.842 -0.0515 -0.0665 -0.4835
   53CHL1    H3 3850   5.380   6.543   6.870  0.2589  0.0518 -1.1647
   53CHL1    O3 3851   5.372   6.443   6.701 -0.1870 -0.4060 -0.6927
   53CHL1   H3' 3852   5.335   6.360   6.669 -0.3172 -0.4327 -0.4759
   53CHL1    C4 3853   5.450   6.330   6.906 -0.8353  0.3620  0.1304
   53CHL1   H4A 3854   5.410   6.229   6.882  0.4718 -0.5554  1.6229
   53CHL1   H4B 3855   5.551   6.355   6.866 -1.5641  1.3965 -1.1419
   53CHL1    C5 3856   5.435   6.349   7.055  0.0720 -0.0591  0.3375
   53CHL1    C6 3857   5.547   6.378   7.128  0.2290  0.5355 -1.0871
   53CHL1    H6 3858   5.639   6.392   7.069 -0.8501 -1.7666 -3.4784
   53CHL1    C7 3859   5.552   6.390   7.277  0.1284 -0.0822  0.6238
   53CHL1   H7A 3860   5.629   6.321   7.318 -0.0817 -0.6644  0.0645
   53CHL1   H7B 3861   5.567   6.494   7.314 -1.9934  0.3961  0.2592
   53CHL1    C8 3862   5.412   6.353   7.337 -0.1156  1.5430 -0.2455
   53CHL1    H8 3863   5.416   6.242   7.347 -1.8774  1.4656 -0.1435
   53CHL1   C14 3864   5.396   6.396   7.484 -0.4533  0.1720  0.0821
   53CHL1   H14 3865   5.387   6.506   7.476  2.5313  0.3987 -1.7051
   53CHL1   C15 3866   5.511   6.363   7.578  0.0784  0.4952 -0.1027
   53CHL1  H15A 3867   5.550   6.260   7.564 -1.3673  0.0719 -1.2653
   53CHL1  H15B 3868   5.592   6.434   7.550  0.3455  0.0957 -0.3680
   53CHL1   C16 3869   5.445   6.371   7.716  0.3044 -0.0903 -0.3873
   53CHL1  H16A 3870   5.459   6.280   7.778 -2.6323 -0.1255  0.3683
   53CHL1  H16B 3871   5.483   6.461   7.769 -4.9399  1.5656  1.1246
   53CHL1   C17 3872   5.292   6.393   7.693 -0.1511 -0.8318  0.3984
   53CHL1   H17 3873   5.289   6.503   7.707  3.2127 -0.8845  2.6262
   53CHL1   C13 3874   5.265   6.344   7.551  0.3585  0.3676 -0.2610
   53CHL1   C18 3875   5.257   6.187   7.559  0.5562  0.4086  0.3195
   53CHL1  H18A 3876   5.349   6.151   7.610  0.7223  1.7612  1.0248
   53CHL1  H18B 3877   5.158   6.155   7.597 -0.8125  1.3328 -2.2211
   53CHL1  H18C 3878   5.253   6.151   7.454 -0.6030  0.5569  0.3000
   53CHL1   C12 3879   5.151   6.405   7.470  0.4562  0.9701 -0.9302
   53CHL1  H12A 3880   5.051   6.384   7.513  0.1749  3.0252 -0.4756
   53CHL1  H12B 3881   5.164   6.515   7.471  1.1863  0.9247  1.6005
   53CHL1   C11 3882   5.147   6.364   7.327 -0.1059 -0.4315 -0.0529
   53CHL1  H11A 3883   5.119   6.256   7.320  1.2642 -0.7884 -0.3812
   53CHL1  H11B 3884   5.071   6.426   7.276 -1.1170  0.2955  2.1956
   53CHL1    C9 3885   5.288   6.389   7.255 -0.2147  0.0943 -0.0222
   53CHL1    H9 3886   5.310   6.498   7.253  2.4926 -0.4025 -1.1573
   53CHL1   C10 3887   5.295   6.336   7.114 -0.1195  0.4758  0.0875
   53CHL1   C19 3888   5.257   6.185   7.108  0.1868 -0.4659  0.6653
   53CHL1  H19A 3889   5.274   6.140   7.008 -2.1660 -2.8522  1.2257
   53CHL1  H19B 3890   5.323   6.137   7.182  3.8254  0.8954 -1.4519
   53CHL1  H19C 3891   5.149   6.172   7.130 -1.1367  1.1812 -3.7758
   53CHL1    C1 3892   5.191   6.414   7.026  0.5791  0.1463  0.1509
   53CHL1   H1A 3893   5.091   6.381   7.059 -0.7181  2.1145 -1.5194
   53CHL1   H1B 3894   5.202   6.522   7.051 -0.5719  0.5352 -0.9228
   53CHL1    C2 3895   5.207   6.402   6.880  0.2683 -0.5345 -0.6740
   53CHL1   H2A 3896   5.135   6.462   6.820  0.1692 -0.7447 -0.7655
   53CHL1   H2B 3897   5.204   6.294   6.854  0.2069 -0.5656 -0.5393
   53CHL1   C20 3898   5.205   6.337   7.810  0.0388  0.0382  0.2516
   53CHL1   H20 3899   5.218   6.227   7.820 -0.5500  0.0579  1.4986
   53CHL1   C21 3900   5.058   6.367   7.800  0.4359 -0.5323  0.1144
   53CHL1  H21A 3901   5.040   6.476   7.809  1.8120 -0.2910  0.2132
   53CHL1  H21B 3902   5.001   6.319   7.883  2.4294 -0.9035  1.3584
   53CHL1  H21C 3903   5.016   6.337   7.702 -3.0537  3.3494  0.1785
   53CHL1   C22 3904   5.252   6.388   7.947 -0.3199  0.4025  1.3820
   53CHL1  H22A 3905   5.361   6.371   7.949 -0.6235 -1.8409  1.4673
   53CHL1  H22B 3906   5.239   6.499   7.953  3.4736  1.0426  0.0545
   53CHL1   C23 3907   5.195   6.318   8.077  0.1008  0.4842  0.1679
   53CHL1  H23A 3908   5.086   6.330   8.089 -0.0054 -0.5488  0.2838
   53CHL1  H23B 3909   5.222   6.213   8.053 -1.4238  0.3129 -0.9031
   53CHL1   C24 3910   5.276   6.356   8.207  0.3612  0.3676  1.1512
   53CHL1  H24A 3911   5.384   6.333   8.199  0.1145 -0.8745  1.1847
   53CHL1  H24B 3912   5.262   6.466   8.219 -1.1380  0.3647 -0.2088
   53CHL1   C25 3913   5.225   6.281   8.331 -0.1627  0.1432  0.0592
   53CHL1   H25 3914   5.115   6.293   8.329 -0.1176  1.2224  1.9740
   53CHL1   C26 3915   5.258   6.134   8.318 -0.7239 -0.0797  0.5987
   53CHL1  H26A 3916   5.228   6.068   8.402  0.6872 -2.5159 -0.6952
   53CHL1  H26B 3917   5.221   6.096   8.220 -0.7774  0.3237  0.4616
   53CHL1  H26C 3918   5.369   6.133   8.311 -0.7989  0.8526 -2.1683
   53CHL1   C27 3919   5.277   6.332   8.467  0.0260 -0.3322  0.6213
   53CHL1  H27A 3920   5.274   6.254   8.546  0.0625 -0.2067  0.7472
   53CHL1  H27B 3921   5.383   6.364   8.453 -0.5004  1.2720  0.1651
   53CHL1  H27C 3922   5.227   6.425   8.499 -0.8671  0.3958 -2.5770
   54CHL1    C3 3923   5.696   4.021   7.065 -0.8198 -0.3101 -0.1547
   54CHL1    H3 3924   5.744   4.121   7.063 -0.2588 -0.5727 -2.9954
   54CHL1    O3 3925   5.722   3.961   6.934 -0.4383 -0.7036  0.1999
   54CHL1   H3' 3926   5.697   4.029   6.871  0.8626 -0.1984  0.2075
   54CHL1    C4 3927   5.750   3.922   7.173 -0.3841 -0.1801  0.1821
   54CHL1   H4A 3928   5.714   3.819   7.155  0.2516 -0.2867 -0.5526
   54CHL1   H4B 3929   5.861   3.917   7.163 -0.2642 -1.9538  1.8757
   54CHL1    C5 3930   5.707   3.958   7.311  0.5964  0.1491  0.4732
   54CHL1    C6 3931   5.800   3.984   7.400 -0.1773  0.1863 -0.4223
   54CHL1    H6 3932   5.905   3.970   7.372 -0.0612  0.8548 -0.3353
   54CHL1    C7 3933   5.761   3.999   7.547 -0.7732 -0.0337 -0.0448
   54CHL1   H7A 3934   5.809   3.919   7.608 -2.8130 -1.6730 -0.4974
   54CHL1   H7B 3935   5.784   4.098   7.592 -4.4222  0.4694  1.0508
   54CHL1    C8 3936   5.610   3.985   7.575 -0.1248 -0.2084 -0.0819
   54CHL1    H8 3937   5.578   3.878   7.570 -0.3871 -0.2406  1.7961
   54CHL1   C14 3938   5.566   4.028   7.715  0.4547 -1.0815 -0.1830
   54CHL1   H14 3939   5.589   4.136   7.707 -2.3015 -0.4947 -1.4849
   54CHL1   C15 3940   5.641   3.969   7.834 -0.4322  0.1690 -0.0458
   54CHL1  H15A 3941   5.664   3.863   7.807  0.4036  0.4641 -0.5088
   54CHL1  H15B 3942   5.729   4.030   7.863 -0.3310  0.1170 -0.2420
   54CHL1   C16 3943   5.549   3.986   7.959 -0.1595  0.1273 -0.3034
   54CHL1  H16A 3944   5.528   3.884   7.998  1.9025 -0.4974 -0.6994
   54CHL1  H16B 3945   5.596   4.056   8.031 -0.3764  0.0131 -0.0480
   54CHL1   C17 3946   5.419   4.058   7.899 -0.5255  0.5700  0.0967
   54CHL1   H17 3947   5.446   4.166   7.903  2.7864 -0.0283 -1.6528
   54CHL1   C13 3948   5.416   4.025   7.749 -0.0083 -0.4977  0.0243
   54CHL1   C18 3949   5.375   3.877   7.739  0.1129  0.1244  0.0232
   54CHL1  H18A 3950   5.375   3.843   7.634  0.8523 -1.6765  0.5684
   54CHL1  H18B 3951   5.435   3.810   7.804 -2.6913 -2.0423  0.6030
   54CHL1  H18C 3952   5.269   3.865   7.771 -0.8424  1.7252 -2.3121
   54CHL1   C12 3953   5.342   4.114   7.648  1.1218  0.4129 -0.3655
   54CHL1  H12A 3954   5.231   4.114   7.660  1.1747  2.4766  0.4666
   54CHL1  H12B 3955   5.365   4.217   7.681  0.2739  1.1193 -1.8842
   54CHL1   C11 3956   5.378   4.089   7.503 -0.0192  0.8439  0.5915
   54CHL1  H11A 3957   5.320   4.000   7.469 -2.2533  1.4461  2.5598
   54CHL1  H11B 3958   5.334   4.162   7.431 -0.3582 -1.5268 -1.7426
   54CHL1    C9 3959   5.535   4.059   7.465  0.4570 -0.3636 -0.8687
   54CHL1    H9 3960   5.585   4.158   7.454  0.7634 -0.4570 -0.3503
   54CHL1   C10 3961   5.553   3.986   7.329 -0.1739 -0.5887 -0.3191
   54CHL1   C19 3962   5.467   3.860   7.322  0.0587 -0.1984 -0.3378
   54CHL1  H19A 3963   5.506   3.787   7.248 -2.3406 -3.5764  1.4497
   54CHL1  H19B 3964   5.464   3.793   7.410 -0.0269 -1.2920 -1.1495
   54CHL1  H19C 3965   5.366   3.885   7.284  0.2738  2.1556  0.4796
   54CHL1    C1 3966   5.510   4.082   7.220  0.5319  0.2972  0.6609
   54CHL1   H1A 3967   5.400   4.096   7.228  0.3121 -0.8792 -0.0539
   54CHL1   H1B 3968   5.544   4.188   7.231 -1.3096  1.0588 -0.3642
   54CHL1    C2 3969   5.547   4.046   7.072 -0.0564  0.2654  0.8544
   54CHL1   H2A 3970   5.515   4.130   7.006  1.3622  0.3984  0.3026
   54CHL1   H2B 3971   5.485   3.957   7.047  0.0133  0.2781  0.6317
   54CHL1   C20 3972   5.299   4.038   7.986  1.2163 -0.0591 -0.1336
   54CHL1   H20 3973   5.271   3.931   7.993 -0.2314  0.3575  1.0807
   54CHL1   C21 3974   5.171   4.101   7.931  0.1496 -0.4081  0.5825
   54CHL1  H21A 3975   5.091   4.080   8.004  1.6075  2.0348  3.0810
   54CHL1  H21B 3976   5.139   4.054   7.835  1.6196 -0.2562 -0.0179
   54CHL1  H21C 3977   5.178   4.212   7.928  0.6778 -0.4584 -0.9677
   54CHL1   C22 3978   5.312   4.092   8.133  0.3293 -0.1937 -1.0609
   54CHL1  H22A 3979   5.220   4.059   8.185 -0.2039  1.0367 -1.1844
   54CHL1  H22B 3980   5.397   4.035   8.177 -0.3345 -1.3246 -1.2155
   54CHL1   C23 3981   5.338   4.242   8.153  0.2687 -0.0334 -0.0193
   54CHL1  H23A 3982   5.448   4.253   8.145  0.1016  1.1025 -0.9049
   54CHL1  H23B 3983   5.292   4.317   8.085 -3.4142 -0.9443  1.2276
   54CHL1   C24 3984   5.312   4.279   8.299 -0.1526  0.3680 -0.9320
   54CHL1  H24A 3985   5.211   4.317   8.328 -0.1929  0.2274 -0.8870
   54CHL1  H24B 3986   5.342   4.196   8.366  0.3222  1.8935  0.8433
   54CHL1   C25 3987   5.402   4.397   8.355 -0.4466  0.4687  0.3301
   54CHL1   H25 3988   5.509   4.372   8.342 -0.7243 -0.8030  0.4091
   54CHL1   C26 3989   5.370   4.526   8.279  0.2950 -0.2554 -0.1449
   54CHL1  H26A 3990   5.432   4.608   8.320 -1.3710 -0.1257  2.3365
   54CHL1  H26B 3991   5.395   4.520   8.171 -0.9291  3.1594 -0.7379
   54CHL1  H26C 3992   5.265   4.563   8.283  0.3293 -0.2438  0.8174
   54CHL1   C27 3993   5.381   4.430   8.506 -0.5244  0.2571 -0.9963
   54CHL1  H27A 3994   5.447   4.504   8.557 -1.7534  0.0707  1.0007
   54CHL1  H27B 3995   5.274   4.453   8.523 -0.6233  0.7911 -2.2783
   54CHL1  H27C 3996   5.398   4.344   8.575 -0.1055  1.4815  0.5003
   55CHL1    C3 3997   6.292   4.134   6.992  0.3128  0.3963 -0.4034
   55CHL1    H3 3998   6.251   4.211   7.060 -1.4142 -0.4137 -0.4893
   55CHL1    O3 3999   6.339   4.184   6.877 -0.1276  0.6577 -0.1986
   55CHL1   H3' 4000   6.421   4.229   6.902  0.4872 -0.2437 -0.5385
   55CHL1    C4 4001   6.414   4.060   7.061 -0.4958 -0.2489 -0.3335
   55CHL1   H4A 4002   6.457   3.975   7.003  0.8817  0.8075 -0.9145
   55CHL1   H4B 4003   6.499   4.132   7.063 -1.2650  0.6890 -0.7635
   55CHL1    C5 4004   6.373   4.002   7.193 -0.7061 -0.7630 -0.0080
   55CHL1    C6 4005   6.435   4.050   7.302 -0.0407 -0.8647 -0.0282
   55CHL1    H6 4006   6.520   4.119   7.292 -0.6691  0.1864  1.5668
   55CHL1    C7 4007   6.401   4.007   7.442 -0.3185  0.5086  0.3680
   55CHL1   H7A 4008   6.490   3.973   7.499 -0.4774 -0.8390 -0.1431
   55CHL1   H7B 4009   6.343   4.083   7.498 -1.3117 -1.2268  1.7604
   55CHL1    C8 4010   6.317   3.875   7.442  0.0580  0.0633 -0.0144
   55CHL1    H8 4011   6.375   3.785   7.411 -0.0712  0.5494 -1.7365
   55CHL1   C14 4012   6.255   3.843   7.581 -0.3513  0.0070  1.0350
   55CHL1   H14 4013   6.184   3.923   7.610 -3.1115 -2.0657  0.4604
   55CHL1   C15 4014   6.359   3.827   7.694  0.5987 -0.3851 -0.0368
   55CHL1  H15A 4015   6.454   3.781   7.660  0.7496 -1.3450  1.5737
   55CHL1  H15B 4016   6.391   3.927   7.730 -0.3934 -0.4729  1.1381
   55CHL1   C16 4017   6.286   3.750   7.808 -0.6879  0.0751  0.5837
   55CHL1  H16A 4018   6.341   3.657   7.836 -0.8228  0.4421  2.1892
   55CHL1  H16B 4019   6.275   3.807   7.903  1.2676  0.1747  0.7976
   55CHL1   C17 4020   6.146   3.720   7.745  0.6803  0.6775  0.2018
   55CHL1   H17 4021   6.088   3.813   7.759  1.0981  1.2645 -1.5924
   55CHL1   C13 4022   6.174   3.715   7.593 -0.8533  0.1789  0.2987
   55CHL1   C18 4023   6.258   3.591   7.552  0.2380 -0.0424  0.9337
   55CHL1  H18A 4024   6.199   3.500   7.576 -1.8152  0.6051 -1.3009
   55CHL1  H18B 4025   6.291   3.588   7.446  0.5339 -0.6124  1.0372
   55CHL1  H18C 4026   6.346   3.592   7.619 -0.4968  2.7590  2.0147
   55CHL1   C12 4027   6.058   3.741   7.499  0.0131  0.3233  0.2254
   55CHL1  H12A 4028   6.002   3.645   7.500  1.8719 -0.8037  1.3914
   55CHL1  H12B 4029   5.999   3.831   7.526  0.1383  0.6598 -0.5843
   55CHL1   C11 4030   6.103   3.761   7.356  0.5935  0.4773 -0.0160
   55CHL1  H11A 4031   6.147   3.666   7.320  0.3383  0.3305  0.0579
   55CHL1  H11B 4032   6.010   3.779   7.298 -1.3834 -0.7436  2.5800
   55CHL1    C9 4033   6.203   3.886   7.339 -0.0086 -0.3476 -0.4407
   55CHL1    H9 4034   6.141   3.972   7.372  2.5163  0.9212  1.3172
   55CHL1   C10 4035   6.251   3.910   7.188  0.2522 -0.0714 -0.4360
   55CHL1   C19 4036   6.313   3.778   7.129  0.1358 -0.1570  0.1994
   55CHL1  H19A 4037   6.237   3.711   7.083 -1.8468  1.8404  0.4299
   55CHL1  H19B 4038   6.376   3.791   7.038 -0.2250 -1.8829 -0.3444
   55CHL1  H19C 4039   6.366   3.727   7.212 -2.3778 -1.4792  1.0996
   55CHL1    C1 4040   6.137   3.972   7.107 -0.3157 -0.2427  0.0946
   55CHL1   H1A 4041   6.063   3.893   7.085  0.0581 -0.8176  0.8827
   55CHL1   H1B 4042   6.086   4.056   7.160 -0.2147 -0.3532  0.3650
   55CHL1    C2 4043   6.174   4.034   6.966  0.2934  0.1275 -0.0366
   55CHL1   H2A 4044   6.088   4.097   6.935 -0.4592 -0.6089  0.5180
   55CHL1   H2B 4045   6.210   3.957   6.896  1.3824 -0.3955  1.0634
   55CHL1   C20 4046   6.080   3.594   7.806 -0.7175  0.0453 -0.6542
   55CHL1   H20 4047   6.154   3.511   7.798  0.0715  0.5007  1.3532
   55CHL1   C21 4048   5.951   3.561   7.738  0.3391 -0.7041  0.0513
   55CHL1  H21A 4049   5.968   3.507   7.643  0.1976  0.1921 -0.4909
   55CHL1  H21B 4050   5.896   3.652   7.707 -0.4459 -0.7660  1.1821
   55CHL1  H21C 4051   5.881   3.509   7.807  0.3446 -1.0810 -0.2269
   55CHL1   C22 4052   6.050   3.618   7.958 -0.1171  0.2240  0.1844
   55CHL1  H22A 4053   6.145   3.658   8.001 -1.2938  2.5335  0.8316
   55CHL1  H22B 4054   5.969   3.693   7.968 -1.0635 -0.6084 -1.0976
   55CHL1   C23 4055   6.021   3.499   8.051  0.0824 -0.4820  0.5444
   55CHL1  H23A 4056   5.923   3.451   8.029 -0.9195  1.2049  1.0781
   55CHL1  H23B 4057   6.101   3.423   8.046  0.0624 -0.5580  1.2861
   55CHL1   C24 4058   6.016   3.544   8.197 -0.1306 -0.0374  0.2213
   55CHL1  H24A 4059   6.095   3.617   8.225 -0.7086  0.9174 -0.5624
   55CHL1  H24B 4060   5.921   3.599   8.210 -0.0270  0.7102 -1.9053
   55CHL1   C25 4061   6.025   3.428   8.298  0.4555  0.7555 -0.4139
   55CHL1   H25 4062   5.955   3.356   8.251 -0.8510  2.5864 -1.3617
   55CHL1   C26 4063   6.169   3.369   8.310  0.5512 -0.0099 -0.4237
   55CHL1  H26A 4064   6.181   3.262   8.337  1.4006 -0.2123 -1.5335
   55CHL1  H26B 4065   6.217   3.387   8.211  1.1405 -0.7664 -0.2861
   55CHL1  H26C 4066   6.226   3.432   8.381  0.2305 -0.9169  0.6732
   55CHL1   C27 4067   5.966   3.463   8.434  0.1473 -0.0137 -0.2779
   55CHL1  H27A 4068   5.951   3.368   8.489  0.7115 -0.3595 -0.7131
   55CHL1  H27B 4069   6.050   3.517   8.484 -0.5780 -0.0912  1.0615
   55CHL1  H27C 4070   5.871   3.521   8.434  0.0353 -0.1754 -1.7482
   56CHL1    C3 4071   4.232   6.706   6.748 -0.3490 -1.4350 -0.7651
   56CHL1    H3 4072   4.319   6.758   6.792 -0.1805 -1.1098 -1.4717
   56CHL1    O3 4073   4.241   6.712   6.609  0.3032  0.3176  0.2386
   56CHL1   H3' 4074   4.156   6.684   6.572  1.1095 -0.5828 -1.0165
   56CHL1    C4 4075   4.218   6.560   6.792 -0.2011 -0.6218 -0.0559
   56CHL1   H4A 4076   4.127   6.513   6.751 -0.7627 -0.2911  0.7849
   56CHL1   H4B 4077   4.303   6.500   6.753 -1.6559 -1.4000 -2.2471
   56CHL1    C5 4078   4.211   6.543   6.946  0.2013 -0.7351 -0.9614
   56CHL1    C6 4079   4.297   6.464   7.015  0.2937  0.1590 -0.6843
   56CHL1    H6 4080   4.369   6.400   6.961  1.0061  0.4326 -0.0857
   56CHL1    C7 4081   4.288   6.441   7.163  0.4260 -0.1237 -0.8286
   56CHL1   H7A 4082   4.287   6.331   7.180  0.8883  0.2850  2.4445
   56CHL1   H7B 4083   4.376   6.469   7.225  1.1154  1.0821 -2.2910
   56CHL1    C8 4084   4.158   6.506   7.231 -0.0775  0.7454 -0.0142
   56CHL1    H8 4085   4.067   6.447   7.209  2.1712 -2.6562 -0.9428
   56CHL1   C14 4086   4.177   6.507   7.381 -0.6753 -0.8776  0.9978
   56CHL1   H14 4087   4.263   6.576   7.399 -0.2940  0.0009 -3.2361
   56CHL1   C15 4088   4.207   6.382   7.460  0.4443  0.5968  0.0881
   56CHL1  H15A 4089   4.138   6.304   7.423  1.5479 -1.6350  2.4352
   56CHL1  H15B 4090   4.311   6.343   7.458  0.4297  0.3256  2.3135
   56CHL1   C16 4091   4.180   6.424   7.606 -0.1034 -0.4184  0.4784
   56CHL1  H16A 4092   4.114   6.349   7.656 -0.1349  1.2278  3.0715
   56CHL1  H16B 4093   4.264   6.414   7.678  1.3086 -0.2215 -1.0903
   56CHL1   C17 4094   4.117   6.566   7.597 -0.1509 -0.0728 -0.1415
   56CHL1   H17 4095   4.202   6.636   7.613  0.2193 -1.0433  2.7538
   56CHL1   C13 4096   4.063   6.582   7.454 -0.3369 -0.2698  0.7558
   56CHL1   C18 4097   3.929   6.504   7.444  0.0316 -0.3496 -0.4342
   56CHL1  H18A 4098   3.911   6.478   7.337  0.7377 -2.2352 -0.1398
   56CHL1  H18B 4099   3.934   6.408   7.500 -0.6992 -0.4412 -0.5242
   56CHL1  H18C 4100   3.847   6.570   7.478  0.8803  0.3831  0.2642
   56CHL1   C12 4101   4.057   6.732   7.399  0.6876  0.2367  0.5599
   56CHL1  H12A 4102   3.973   6.787   7.445  0.0450  2.1437 -2.6060
   56CHL1  H12B 4103   4.154   6.783   7.420  0.6033 -0.4848  3.0344
   56CHL1   C11 4104   4.027   6.730   7.247 -0.2720  0.3055  0.1000
   56CHL1  H11A 4105   3.925   6.700   7.215 -0.4079  1.4691 -0.6152
   56CHL1  H11B 4106   4.033   6.837   7.215  0.7968 -0.0059 -0.7812
   56CHL1    C9 4107   4.123   6.646   7.161 -0.0395  0.2475 -0.8380
   56CHL1    H9 4108   4.222   6.698   7.159  0.1630 -0.1287 -2.9857
   56CHL1   C10 4109   4.096   6.629   7.011 -0.2152 -0.2846  0.0154
   56CHL1   C19 4110   3.955   6.556   6.994 -0.1632 -0.5412  0.4474
   56CHL1  H19A 4111   3.965   6.461   7.051 -0.3566  0.3251  1.9812
   56CHL1  H19B 4112   3.873   6.623   7.027  0.8245  1.4512 -0.9752
   56CHL1  H19C 4113   3.941   6.544   6.885 -0.0056 -1.2043  0.4969
   56CHL1    C1 4114   4.086   6.769   6.950  0.6796 -0.5520  0.5538
   56CHL1   H1A 4115   3.982   6.797   6.976  0.4262 -1.8876  1.0515
   56CHL1   H1B 4116   4.149   6.843   7.004 -0.1725 -0.0838  0.9206
   56CHL1    C2 4117   4.108   6.787   6.794  0.3415 -0.4605 -0.2957
   56CHL1   H2A 4118   4.115   6.896   6.775 -0.4612 -0.5195 -0.9798
   56CHL1   H2B 4119   4.027   6.741   6.733  1.8635 -2.4776 -0.9018
   56CHL1   C20 4120   4.022   6.589   7.716  0.2632  0.4389 -0.4620
   56CHL1   H20 4121   3.924   6.543   7.692  0.0354  0.7404 -0.1049
   56CHL1   C21 4122   3.989   6.739   7.720 -0.2890 -0.5078 -0.4676
   56CHL1  H21A 4123   4.081   6.801   7.715 -0.3535 -0.3871 -0.2028
   56CHL1  H21B 4124   3.942   6.780   7.812 -0.2527 -1.2495 -0.1101
   56CHL1  H21C 4125   3.918   6.769   7.640 -1.6840 -1.6859  0.2622
   56CHL1   C22 4126   4.061   6.544   7.861 -0.1541 -0.7045  0.2855
   56CHL1  H22A 4127   3.978   6.586   7.922 -0.2297  0.9607 -0.9083
   56CHL1  H22B 4128   4.070   6.434   7.879  0.5704 -0.3323  2.4882
   56CHL1   C23 4129   4.192   6.610   7.905  0.1519 -0.7491 -0.2770
   56CHL1  H23A 4130   4.268   6.555   7.846  0.2294  0.2882 -1.1850
   56CHL1  H23B 4131   4.193   6.715   7.869 -1.1699 -0.1658  1.2361
   56CHL1   C24 4132   4.216   6.601   8.050  0.3329 -0.0440 -0.4405
   56CHL1  H24A 4133   4.134   6.629   8.120 -0.3578 -1.5940 -0.5895
   56CHL1  H24B 4134   4.244   6.499   8.085 -2.1315 -0.2922  1.0588
   56CHL1   C25 4135   4.342   6.691   8.078  1.2953 -0.2637 -0.2134
   56CHL1   H25 4136   4.409   6.654   7.997 -0.4044  0.2610 -1.9353
   56CHL1   C26 4137   4.325   6.835   8.058  0.7039  0.5357  0.2332
   56CHL1  H26A 4138   4.407   6.891   8.107 -0.9098  1.6983  1.6952
   56CHL1  H26B 4139   4.231   6.878   8.099  1.8447  2.8601  0.5443
   56CHL1  H26C 4140   4.326   6.858   7.949 -0.5041 -1.0309 -0.1598
   56CHL1   C27 4141   4.393   6.660   8.222 -0.6260  0.4765 -0.6666
   56CHL1  H27A 4142   4.433   6.557   8.224 -2.2110 -0.2204 -2.2108
   56CHL1  H27B 4143   4.482   6.720   8.253 -0.2637 -0.3868  0.0091
   56CHL1  H27C 4144   4.322   6.673   8.306  1.0261 -0.2477  0.9174
   57SAPC     N 4145   0.701   6.240  10.861 -0.7636 -0.0251  0.1426
   57SAPC   C12 4146   0.804   6.300  10.767  0.0407  0.4801  0.3592
   57SAPC  H12A 4147   0.825   6.224  10.693 -0.0664 -0.4212  1.2302
   57SAPC  H12B 4148   0.895   6.320  10.823  0.5202  0.9002 -0.5476
   57SAPC   C13 4149   0.755   6.123  10.925 -0.6885 -0.0227 -1.4430
   57SAPC  H13A 4150   0.762   6.035  10.863 -0.5722 -3.1096  2.5221
   57SAPC  H13B 4151   0.849   6.145  10.972 -1.0197 -2.2703  0.4613
   57SAPC  H13C 4152   0.684   6.100  11.003 -0.0108  0.4375 -0.6832
   57SAPC   C14 4153   0.652   6.344  10.954 -0.5052 -0.2381  0.0051
   57SAPC  H14A 4154   0.743   6.382  10.999 -0.3631 -0.1918 -0.3246
   57SAPC  H14B 4155   0.607   6.421  10.894  0.0439 -1.3103 -1.8575
   57SAPC  H14C 4156   0.579   6.306  11.024 -0.2145 -2.2961 -0.7454
   57SAPC   C15 4157   0.581   6.194  10.779 -0.0993 -0.5207 -0.2124
   57SAPC  H15A 4158   0.610   6.133  10.695  0.0159  1.0050 -1.3231
   57SAPC  H15B 4159   0.504   6.150  10.841 -0.1319 -0.6411 -0.3380
   57SAPC  H15C 4160   0.536   6.272  10.720  1.5581  1.4057  0.9584
   57SAPC   C11 4161   0.762   6.428  10.686  0.5367 -0.3218 -0.0793
   57SAPC  H11A 4162   0.662   6.404  10.644 -0.3829 -0.7970  2.2238
   57SAPC  H11B 4163   0.826   6.429  10.595 -2.3465 -1.0657 -2.2844
   57SAPC     P 4164   0.886   6.632  10.798  0.0474  0.7436  0.0993
   57SAPC   O13 4165   0.855   6.756  10.866  0.6344  0.5031  0.1294
   57SAPC   O14 4166   0.972   6.535  10.872  0.4509  0.5646  0.0896
   57SAPC   O12 4167   0.755   6.547  10.766 -0.5252 -0.7440  0.6286
   57SAPC   O11 4168   0.960   6.659  10.659 -0.2569  0.2315 -0.5286
   57SAPC    C1 4169   1.002   6.789  10.609 -0.1614  0.5569 -0.0842
   57SAPC    HA 4170   0.976   6.872  10.677 -0.9918  0.4839 -0.3004
   57SAPC    HB 4171   1.112   6.781  10.621 -0.3045 -2.0376  0.2066
   57SAPC    C2 4172   0.980   6.808  10.457 -0.5025  0.0709  0.2449
   57SAPC    HS 4173   1.050   6.888  10.424 -0.2322 -0.5820 -0.7995
   57SAPC   O21 4174   0.835   6.839  10.441  0.1780 -0.2424 -0.0387
   57SAPC   C21 4175   0.811   6.970  10.471 -1.2354  1.0371 -0.0746
   57SAPC   O22 4176   0.896   7.044  10.519  0.4307 -0.3449 -0.1187
   57SAPC   C22 4177   0.670   7.015  10.431 -0.2869 -0.1854  0.0026
   57SAPC   H2R 4178   0.619   6.931  10.380 -0.5632  0.9870 -1.7429
   57SAPC   H2S 4179   0.612   7.039  10.523  0.1923  1.1765 -0.0291
   57SAPC    C3 4180   1.013   6.675  10.388  0.4224  0.7944  0.4989
   57SAPC    HX 4181   0.942   6.598  10.426  0.2121  0.1387 -1.1311
   57SAPC    HY 4182   1.116   6.645  10.418 -0.1633 -1.7067  0.2861
   57SAPC   O31 4183   1.007   6.689  10.239  0.1444 -0.4252 -0.1136
   57SAPC   C31 4184   1.035   6.575  10.171  0.1065 -0.2734  0.2836
   57SAPC   O32 4185   1.032   6.461  10.213  0.1481  0.4246  0.2451
   57SAPC   C32 4186   1.058   6.613  10.022  0.0451  0.2722 -0.2497
   57SAPC   H2X 4187   1.158   6.660  10.006 -0.8233  1.7612 -1.4833
   57SAPC   H2Y 4188   0.978   6.686   9.999  1.4036  2.1356  0.6483
   57SAPC   C23 4189   0.667   7.148  10.346  0.0090 -0.5335  0.2530
   57SAPC   H3R 4190   0.732   7.139  10.257 -0.0869  3.3710 -0.3979
   57SAPC   H3S 4191   0.712   7.236  10.397 -1.6492  2.4895 -3.0326
   57SAPC   C24 4192   0.526   7.199  10.303  0.5052 -0.2455  0.9571
   57SAPC   H4R 4193   0.458   7.200  10.391 -0.4375 -1.3789  0.2654
   57SAPC   H4S 4194   0.490   7.126  10.227 -1.9137 -0.2210  2.0088
   57SAPC   C25 4195   0.519   7.347  10.251  0.3581  0.0948 -0.4297
   57SAPC   H5R 4196   0.531   7.424  10.328  2.5851 -2.3203  1.8470
   57SAPC   C26 4197   0.498   7.393  10.124  0.4919  0.4181  0.3992
   57SAPC   H6R 4198   0.508   7.502  10.110  0.7754  0.2707 -0.5987
   57SAPC   C27 4199   0.480   7.316   9.997 -0.2457  0.3563  0.5903
   57SAPC   H7R 4200   0.560   7.243   9.971 -1.9320 -0.5665 -2.5910
   57SAPC   H7S 4201   0.473   7.400   9.925 -0.8315  1.1819  1.5843
   57SAPC   C28 4202   0.361   7.230   9.978 -0.2898  0.5428 -0.1031
   57SAPC   H8R 4203   0.306   7.206  10.071 -1.8997  1.7559 -0.6814
   57SAPC   C29 4204   0.306   7.188   9.869 -0.1935 -0.5170  0.8230
   57SAPC   H9R 4205   0.213   7.129   9.869 -0.2108 -0.6502 -2.1943
   57SAPC  C210 4206   0.356   7.204   9.721  0.1753 -0.5595 -0.7742
   57SAPC  H10R 4207   0.445   7.269   9.724 -0.2254 -0.0342  0.5748
   57SAPC  H10S 4208   0.275   7.255   9.664  0.6602  1.6667  0.4490
   57SAPC  C211 4209   0.386   7.066   9.664  0.5687 -0.1970 -0.8586
   57SAPC  H11R 4210   0.400   6.977   9.727 -0.8567 -0.6735 -1.1748
   57SAPC  C212 4211   0.376   7.028   9.538 -0.0051 -0.4687 -0.2266
   57SAPC  H12R 4212   0.417   6.931   9.507  0.4443 -0.8374  1.4108
   57SAPC  C213 4213   0.339   7.120   9.425 -0.3063  0.6086 -0.0958
   57SAPC  H13R 4214   0.432   7.169   9.389 -0.0595  1.4720  1.6132
   57SAPC  H13S 4215   0.284   7.207   9.469  1.8807  1.8450  0.3342
   57SAPC  C214 4216   0.250   7.070   9.306 -0.3490 -0.5823 -1.2319
   57SAPC  H14R 4217   0.171   7.000   9.339  1.2728 -2.0171 -0.2139
   57SAPC  C215 4218   0.249   7.097   9.179 -0.7666  0.4362  0.0482
   57SAPC  H15R 4219   0.184   7.037   9.114 -0.3748 -0.2337  0.2646
   57SAPC  C216 4220   0.342   7.196   9.117 -1.1690 -0.2779  0.0530
   57SAPC  H16R 4221   0.403   7.244   9.197 -1.1838  0.7499 -0.5414
   57SAPC  H16S 4222   0.284   7.282   9.077 -2.1678 -1.2086 -0.5638
   57SAPC  C217 4223   0.439   7.149   9.005 -0.1300  0.4091  0.1577
   57SAPC  H17R 4224   0.494   7.058   9.036  0.7997  1.1415  0.6990
   57SAPC  H17S 4225   0.513   7.229   8.985  0.4089  0.7307  2.9814
   57SAPC  C218 4226   0.376   7.112   8.866  0.4346  0.1328  0.4743
   57SAPC  H18R 4227   0.323   7.194   8.812  1.0253  0.2890  0.1253
   57SAPC  H18S 4228   0.305   7.027   8.874 -0.2547  0.6623  0.1490
   57SAPC  C219 4229   0.472   7.047   8.768  0.0892 -0.4573 -0.4826
   57SAPC  H19R 4230   0.503   6.951   8.815  1.7149  0.5203  0.5611
   57SAPC  H19S 4231   0.564   7.108   8.761  1.0711 -1.7065  0.9426
   57SAPC  C220 4232   0.416   7.052   8.633 -0.1731  0.0389 -0.1826
   57SAPC  H20R 4233   0.415   7.154   8.589 -0.1869  0.5538  0.9735
   57SAPC  H20S 4234   0.311   7.015   8.631  0.9003 -3.2681 -1.3259
   57SAPC  H20T 4235   0.479   6.989   8.567  2.0168 -0.9439  2.6533
   57SAPC   C33 4236   1.051   6.487   9.925 -0.2419 -0.2407  0.8041
   57SAPC   H3X 4237   0.954   6.439   9.945 -0.9869  0.1738 -1.4671
   57SAPC   H3Y 4238   1.143   6.424   9.925  0.2208  0.3978 -0.3411
   57SAPC   C34 4239   1.047   6.539   9.779  0.0274 -0.1038  0.0609
   57SAPC   H4X 4240   1.145   6.590   9.764  0.4910 -0.9684  0.1228
   57SAPC   H4Y 4241   0.967   6.614   9.762 -0.5423 -0.4458  1.1625
   57SAPC   C35 4242   1.033   6.430   9.672  0.2585  0.1615 -0.3009
   57SAPC   H5X 4243   0.947   6.364   9.696  2.4739 -1.9113  2.7868
   57SAPC   H5Y 4244   1.106   6.350   9.700 -1.0086 -1.4433 -1.4115
   57SAPC   C36 4245   1.045   6.480   9.524 -0.4158 -0.5117 -0.3504
   57SAPC   H6X 4246   1.143   6.528   9.504 -0.4762 -0.0753  0.3835
   57SAPC   H6Y 4247   0.981   6.569   9.510  0.9735  0.5680 -0.0742
   57SAPC   C37 4248   1.009   6.372   9.432 -0.1115 -0.4523  0.0526
   57SAPC   H7X 4249   0.899   6.357   9.444 -0.1913  0.8885  1.2592
   57SAPC   H7Y 4250   1.063   6.277   9.454  1.2181  0.0499 -0.9669
   57SAPC   C38 4251   1.030   6.428   9.293 -0.6099  0.0979  0.1439
   57SAPC   H8X 4252   1.138   6.453   9.293 -0.0841 -1.9285  1.2456
   57SAPC   H8Y 4253   0.966   6.518   9.281 -1.3955 -0.4762 -0.0613
   57SAPC   C39 4254   0.996   6.325   9.187 -0.4363 -0.3560 -0.2941
   57SAPC   H9X 4255   0.889   6.296   9.190 -0.4120 -0.6978 -1.7908
   57SAPC   H9Y 4256   1.067   6.241   9.204 -1.9430 -1.8786 -1.2047
   57SAPC  C310 4257   1.021   6.374   9.045  0.4446  0.3086  0.2851
   57SAPC  H10X 4258   1.120   6.424   9.040  1.0076 -0.7699  0.3516
   57SAPC  H10Y 4259   0.945   6.447   9.008  0.5234  1.1197  1.6713
   57SAPC  C311 4260   1.030   6.259   8.946 -0.4971  0.7431  0.0431
   57SAPC  H11X 4261   1.098   6.180   8.985 -2.1805 -0.4020  0.7909
   57SAPC  H11Y 4262   1.074   6.307   8.856 -2.0139  1.2617 -0.4579
   57SAPC  C312 4263   0.902   6.187   8.921 -0.0111 -0.9067  0.2977
   57SAPC  H12X 4264   0.826   6.252   8.873 -0.7500 -0.9630  1.3577
   57SAPC  H12Y 4265   0.848   6.153   9.012 -2.2783  2.4232  0.3561
   57SAPC  C313 4266   0.918   6.069   8.818 -0.1777  0.0934 -0.9605
   57SAPC  H13X 4267   0.834   5.998   8.835 -3.8237  3.8615 -1.2747
   57SAPC  H13Y 4268   1.013   6.018   8.842  1.2466  2.2981 -1.5924
   57SAPC  C314 4269   0.911   6.111   8.664 -0.1889 -0.4226  0.2383
   57SAPC  H14X 4270   0.980   6.193   8.635 -0.7814 -0.5220 -1.5974
   57SAPC  H14Y 4271   0.807   6.142   8.638  0.4397  1.3737 -0.2706
   57SAPC  C315 4272   0.965   5.993   8.581 -0.2879  0.3018 -0.0628
   57SAPC  H15X 4273   0.952   5.893   8.627 -0.2870  1.7235  3.3117
   57SAPC  H15Y 4274   1.074   6.009   8.572 -0.4207  0.7405 -1.0545
   57SAPC  C316 4275   0.906   5.978   8.439 -0.2003  0.2305  0.3061
   57SAPC  H16X 4276   0.921   6.073   8.382  0.4193 -0.1355 -0.1468
   57SAPC  H16Y 4277   0.797   5.954   8.445 -0.2170 -0.2781 -1.4993
   57SAPC  C317 4278   0.962   5.858   8.360  0.1035  0.4755  0.2851
   57SAPC  H17X 4279   0.972   5.780   8.438  1.1025  0.0925 -0.2140
   57SAPC  H17Y 4280   1.062   5.892   8.325  0.6267  0.9780  2.1593
   57SAPC  C318 4281   0.872   5.816   8.240  1.0531 -0.4517  0.4005
   57SAPC  H18X 4282   0.771   5.783   8.271  0.4320  0.7598 -0.2515
   57SAPC  H18Y 4283   0.927   5.745   8.176  0.2258  0.6676 -1.6501
   57SAPC  H18Z 4284   0.858   5.909   8.182  2.4301  0.8678  2.0590
   58SAPC     N 4285   4.944   5.775  10.826  0.0132  0.0963 -0.7077
   58SAPC   C12 4286   4.821   5.866  10.796  0.1220 -0.3951 -0.5620
   58SAPC  H12A 4287   4.747   5.852  10.874  1.8833  0.2971  1.3354
   58SAPC  H12B 4288   4.769   5.830  10.709  0.0506  1.6220 -1.4117
   58SAPC   C13 4289   4.893   5.637  10.832 -0.2340  0.3946  0.5611
   58SAPC  H13A 4290   4.831   5.620  10.745  0.5440  0.5865 -0.0368
   58SAPC  H13B 4291   4.970   5.562  10.829  0.9530  1.6049 -0.1260
   58SAPC  H13C 4292   4.835   5.624  10.922  0.8836  1.6415  1.5026
   58SAPC   C14 4293   5.046   5.789  10.720  0.2120  0.3251 -0.5951
   58SAPC  H14A 4294   4.992   5.760  10.631  0.9980 -0.8423 -0.7161
   58SAPC  H14B 4295   5.067   5.895  10.718 -1.5038  0.8135  1.7884
   58SAPC  H14C 4296   5.136   5.734  10.742 -0.2491 -0.1423  0.1902
   58SAPC   C15 4297   5.004   5.803  10.962  0.1185 -1.1410 -0.3222
   58SAPC  H15A 4298   5.079   5.730  10.987  0.3069  0.0277  3.0591
   58SAPC  H15B 4299   5.049   5.901  10.964 -0.6894 -0.7055 -1.9591
   58SAPC  H15C 4300   4.928   5.787  11.037 -0.3323  1.1476 -0.2220
   58SAPC   C11 4301   4.840   6.019  10.777 -0.2235  0.5696 -0.1443
   58SAPC  H11A 4302   4.879   6.053  10.875 -1.2057 -1.1085  0.8809
   58SAPC  H11B 4303   4.750   6.080  10.757  0.9817  2.1027 -1.0810
   58SAPC     P 4304   4.932   6.131  10.556  0.1136  0.1562 -0.1686
   58SAPC   O13 4305   5.046   6.104  10.470 -0.5919 -0.7941  0.2775
   58SAPC   O14 4306   4.798   6.120  10.496  0.3171  0.2230 -0.0471
   58SAPC   O12 4307   4.939   6.038  10.673  0.6653  0.6801 -0.3193
   58SAPC   O11 4308   4.946   6.275  10.622 -0.3582  0.2929  0.8636
   58SAPC    C1 4309   5.079   6.326  10.656 -0.3223  0.6293 -0.1952
   58SAPC    HA 4310   5.089   6.364  10.760  0.4432 -1.1665  0.4251
   58SAPC    HB 4311   5.158   6.254  10.626 -2.3568 -1.2766 -1.2350
   58SAPC    C2 4312   5.118   6.449  10.571 -0.3780  0.4073  0.0074
   58SAPC    HS 4313   5.228   6.458  10.585 -0.1371  1.0269 -1.9062
   58SAPC   O21 4314   5.040   6.561  10.612  0.0661 -0.1646  0.4551
   58SAPC   C21 4315   5.112   6.676  10.608  0.2399 -0.2862  0.2292
   58SAPC   O22 4316   5.230   6.688  10.609  0.2651  0.1419  0.2064
   58SAPC   C22 4317   5.009   6.793  10.604 -0.3057  0.0482 -0.3152
   58SAPC   H2R 4318   4.924   6.755  10.545 -0.1002 -0.0227 -0.5670
   58SAPC   H2S 4319   4.979   6.819  10.708 -2.8507  0.1584 -1.0281
   58SAPC    C3 4320   5.099   6.433  10.417 -0.1747 -0.2250 -0.0922
   58SAPC    HX 4321   4.989   6.437  10.400 -0.1731  0.5109  0.0600
   58SAPC    HY 4322   5.138   6.332  10.391 -1.0138 -0.1704 -1.6710
   58SAPC   O31 4323   5.163   6.551  10.354  0.2255 -0.4914  0.6805
   58SAPC   C31 4324   5.145   6.549  10.223 -0.1598  0.8348  0.3155
   58SAPC   O32 4325   5.088   6.458  10.166 -0.0526 -0.2004  0.3389
   58SAPC   C32 4326   5.183   6.681  10.166  0.0972  0.8356 -0.3989
   58SAPC   H2X 4327   5.291   6.707  10.164 -0.1166  1.8327 -3.5451
   58SAPC   H2Y 4328   5.129   6.759  10.225  1.0016 -0.0930  1.7850
   58SAPC   C23 4329   5.059   6.918  10.527  0.3852 -0.6336 -0.0963
   58SAPC   H3R 4330   5.124   6.888  10.443  0.3567  1.1415 -0.7776
   58SAPC   H3S 4331   5.126   6.983  10.587 -0.6474 -0.4615  0.9144
   58SAPC   C24 4332   4.936   6.993  10.473  0.6482  0.6885 -0.4998
   58SAPC   H4R 4333   4.888   7.026  10.567  0.2440 -2.3669  0.4978
   58SAPC   H4S 4334   4.855   6.927  10.435  1.3101 -0.0344 -0.7093
   58SAPC   C25 4335   4.963   7.104  10.383  0.8681 -0.0889  0.0993
   58SAPC   H5R 4336   5.033   7.177  10.427 -0.0886  0.4718  0.7313
   58SAPC   C26 4337   4.919   7.127  10.257  0.0730  0.2985  0.6336
   58SAPC   H6R 4338   4.937   7.227  10.215 -1.1202  0.2303 -0.0885
   58SAPC   C27 4339   4.840   7.023  10.176  0.1171 -0.0422 -0.7216
   58SAPC   H7R 4340   4.777   6.967  10.249  2.5969  0.5454  2.0418
   58SAPC   H7S 4341   4.914   6.948  10.140 -1.0883 -2.6110  1.7524
   58SAPC   C28 4342   4.748   7.071  10.061  0.3679  0.1870  0.4066
   58SAPC   H8R 4343   4.649   7.113  10.087 -0.4860 -0.9855 -0.8182
   58SAPC   C29 4344   4.775   7.085   9.932 -0.2698  0.0583  0.3563
   58SAPC   H9R 4345   4.702   7.128   9.861 -0.2606  1.2794  1.0641
   58SAPC  C210 4346   4.900   7.042   9.869 -0.0317 -0.6196  0.1809
   58SAPC  H10R 4347   4.962   6.988   9.943  1.2135  1.3336  0.6228
   58SAPC  H10S 4348   4.950   7.138   9.844 -2.8624  0.9490  0.0509
   58SAPC  C211 4349   4.864   6.953   9.749  0.1025 -0.0935 -0.0143
   58SAPC  H11R 4350   4.870   6.845   9.765  1.8734  0.0599  0.6245
   58SAPC  C212 4351   4.838   6.994   9.623 -0.0364  0.5017  0.5999
   58SAPC  H12R 4352   4.814   6.921   9.545 -1.3371  3.4523 -1.9563
   58SAPC  C213 4353   4.832   7.136   9.576 -0.4742  0.1419 -0.1908
   58SAPC  H13R 4354   4.920   7.154   9.510  0.8577  0.1157  1.5006
   58SAPC  H13S 4355   4.840   7.213   9.655  2.0834  0.9917 -1.1753
   58SAPC  C214 4356   4.709   7.166   9.499 -0.0931 -0.1242 -0.9786
   58SAPC  H14R 4357   4.615   7.183   9.553  0.6896 -1.6425  0.9856
   58SAPC  C215 4358   4.696   7.160   9.365  0.4524  0.4273  0.2400
   58SAPC  H15R 4359   4.599   7.181   9.318  1.2974 -1.1387 -2.4237
   58SAPC  C216 4360   4.802   7.115   9.268  0.4634  0.8706 -0.1321
   58SAPC  H16R 4361   4.907   7.120   9.305 -0.4452 -2.5030  3.5280
   58SAPC  H16S 4362   4.792   7.169   9.171  2.9122  0.4612 -0.6946
   58SAPC  C217 4363   4.776   6.961   9.243 -0.9494  0.8998  0.4429
   58SAPC  H17R 4364   4.668   6.935   9.237 -0.6873 -0.5985  1.5938
   58SAPC  H17S 4365   4.817   6.908   9.331 -2.4215  0.8941  1.1540
   58SAPC  C218 4366   4.857   6.914   9.122 -0.2484  0.3051  0.4713
   58SAPC  H18R 4367   4.853   6.803   9.124 -0.4483  0.2939  3.0605
   58SAPC  H18S 4368   4.966   6.933   9.128  0.0529 -1.3851  0.7916
   58SAPC  C219 4369   4.815   6.962   8.985  0.0979  0.7764  0.5691
   58SAPC  H19R 4370   4.858   7.064   8.971 -0.2767  0.6781 -1.6265
   58SAPC  H19S 4371   4.704   6.959   8.981  0.1675 -0.3018 -2.3924
   58SAPC  C220 4372   4.853   6.873   8.867  0.6679 -0.0010 -0.1650
   58SAPC  H20R 4373   4.964   6.874   8.865  0.6948  1.3961  0.6178
   58SAPC  H20S 4374   4.802   6.920   8.780  2.8639  1.3116 -0.8391
   58SAPC  H20T 4375   4.814   6.771   8.886 -0.1702  0.1202 -1.1565
   58SAPC   C33 4376   5.168   6.681  10.015  0.4991  0.7627 -0.5850
   58SAPC   H3X 4377   5.170   6.785   9.977  0.4764  0.5052 -1.3137
   58SAPC   H3Y 4378   5.062   6.654   9.995 -0.1019  1.5885  1.2491
   58SAPC   C34 4379   5.273   6.604   9.928 -0.0903 -0.0964 -0.2213
   58SAPC   H4X 4380   5.267   6.508   9.983 -0.5028 -0.0948 -0.2619
   58SAPC   H4Y 4381   5.373   6.651   9.936 -0.1217 -0.2090  1.2293
   58SAPC   C35 4382   5.207   6.579   9.795 -0.4978  0.0001 -0.2491
   58SAPC   H5X 4383   5.100   6.553   9.806 -0.8991  1.1527 -1.2144
   58SAPC   H5Y 4384   5.256   6.497   9.737  0.5917  1.9696 -2.3266
   58SAPC   C36 4385   5.216   6.704   9.705  0.3283 -0.7994 -0.2904
   58SAPC   H6X 4386   5.317   6.750   9.704 -1.1382  2.6983 -0.2691
   58SAPC   H6Y 4387   5.148   6.779   9.750 -0.2204 -0.1511 -2.0831
   58SAPC   C37 4388   5.183   6.659   9.559  0.4805  0.1325 -0.2587
   58SAPC   H7X 4389   5.075   6.632   9.559  0.1816  1.2847 -0.0115
   58SAPC   H7Y 4390   5.243   6.573   9.522 -0.8166 -0.4901 -1.0197
   58SAPC   C38 4391   5.208   6.781   9.463 -0.0193 -0.4572 -0.0372
   58SAPC   H8X 4392   5.315   6.774   9.432  0.3669  0.2668  1.0445
   58SAPC   H8Y 4393   5.188   6.879   9.512 -2.8792 -1.2827  0.6229
   58SAPC   C39 4394   5.108   6.760   9.345 -0.3461 -0.2703  0.1318
   58SAPC   H9X 4395   5.136   6.831   9.264 -0.2507  0.3039  0.6638
   58SAPC   H9Y 4396   5.012   6.801   9.383  1.9267  4.4701  1.6744
   58SAPC  C310 4397   5.096   6.617   9.280  0.4974  0.3591  0.2538
   58SAPC  H10X 4398   5.013   6.564   9.330  1.5172 -1.4986  0.0574
   58SAPC  H10Y 4399   5.185   6.562   9.318  0.3302  1.5654  2.5567
   58SAPC  C311 4400   5.071   6.605   9.131  0.0589 -0.8246  0.0107
   58SAPC  H11X 4401   5.162   6.627   9.071 -1.8549  0.5954 -2.5678
   58SAPC  H11Y 4402   4.988   6.671   9.098 -1.3224 -1.6721  1.6344
   58SAPC  C312 4403   5.036   6.468   9.084 -0.1809  0.7398 -0.1047
   58SAPC  H12X 4404   4.935   6.451   9.127 -0.2135 -1.1963 -0.8529
   58SAPC  H12Y 4405   5.103   6.384   9.113 -0.8388  0.1653 -0.2353
   58SAPC  C313 4406   5.017   6.473   8.929  0.7672  0.4313  0.2106
   58SAPC  H13X 4407   5.116   6.498   8.886  0.8468  1.0019  0.7105
   58SAPC  H13Y 4408   4.946   6.554   8.902 -1.8413 -1.1018  1.9988
   58SAPC  C314 4409   4.985   6.334   8.869 -0.2060 -0.1032 -0.5024
   58SAPC  H14X 4410   4.880   6.316   8.902  0.2049 -2.0120 -0.0857
   58SAPC  H14Y 4411   5.032   6.256   8.932 -2.6623 -0.0109  1.6093
   58SAPC  C315 4412   5.004   6.327   8.715 -0.0358  0.9425  0.4786
   58SAPC  H15X 4413   5.112   6.334   8.688  0.3557 -2.0591  0.8392
   58SAPC  H15Y 4414   4.956   6.415   8.668 -0.4592 -0.0318 -0.9885
   58SAPC  C316 4415   4.922   6.215   8.650  1.1743  0.3372  0.6494
   58SAPC  H16X 4416   4.910   6.232   8.541  1.0503 -0.7507  0.4841
   58SAPC  H16Y 4417   4.819   6.208   8.691  0.1988  2.1346 -1.3137
   58SAPC  C317 4418   4.994   6.085   8.665 -0.3593 -0.2718 -0.0321
   58SAPC  H17X 4419   5.011   6.061   8.772 -2.1122 -1.3458  0.0324
   58SAPC  H17Y 4420   5.088   6.096   8.607 -1.0769 -1.4795 -1.4754
   58SAPC  C318 4421   4.927   5.960   8.605  0.7156 -0.0867  0.4173
   58SAPC  H18X 4422   4.990   5.868   8.609 -0.4912 -0.9674 -0.2288
   58SAPC  H18Y 4423   4.891   5.963   8.500 -1.4685 -1.1902  1.0792
   58SAPC  H18Z 4424   4.835   5.939   8.664 -0.3325 -0.4794 -1.2961
   59SAPC     N 4425   3.366   1.675  10.979  0.3618 -0.0841  0.5890
   59SAPC   C12 4426   3.509   1.636  10.991 -0.8446 -0.1153  0.0793
   59SAPC  H12A 4427   3.528   1.541  10.943  1.1136 -0.7367  1.9195
   59SAPC  H12B 4428   3.523   1.632  11.098 -0.9799  0.2590  0.1124
   59SAPC   C13 4429   3.326   1.796  11.053 -0.3090  0.4026  0.5075
   59SAPC  H13A 4430   3.223   1.813  11.027  0.2468  0.9071 -1.5629
   59SAPC  H13B 4431   3.335   1.803  11.160  0.7215  0.0293  0.4518
   59SAPC  H13C 4432   3.378   1.883  11.017 -0.0014  0.3444  0.8036
   59SAPC   C14 4433   3.316   1.693  10.837  0.1663 -0.3160  0.1287
   59SAPC  H14A 4434   3.301   1.597  10.789 -0.9020 -0.4055  0.6125
   59SAPC  H14B 4435   3.222   1.746  10.836  0.7585  0.8248  1.7918
   59SAPC  H14C 4436   3.387   1.737  10.769 -0.9023 -0.6992 -1.2957
   59SAPC   C15 4437   3.291   1.561  11.028  0.4266 -0.1459  0.5489
   59SAPC  H15A 4438   3.270   1.569  11.134  0.2004 -0.5133  0.5343
   59SAPC  H15B 4439   3.194   1.563  10.981  0.6423  0.5319  0.1166
   59SAPC  H15C 4440   3.338   1.466  11.005  1.2059  0.4884 -0.5463
   59SAPC   C11 4441   3.616   1.734  10.937  0.6257  0.4523 -0.0282
   59SAPC  H11A 4442   3.590   1.758  10.832  2.2309  2.0029 -0.1129
   59SAPC  H11B 4443   3.721   1.699  10.922  0.4176  0.9639 -3.3930
   59SAPC     P 4444   3.701   1.880  11.142  0.3167 -0.3002 -0.3198
   59SAPC   O13 4445   3.683   2.018  11.191  0.2477 -0.1479  0.0710
   59SAPC   O14 4446   3.666   1.777  11.242 -0.2386  0.5247  0.1128
   59SAPC   O12 4447   3.613   1.852  11.017  0.0089  0.6431 -0.2475
   59SAPC   O11 4448   3.849   1.854  11.082  0.4364  0.1884 -0.3231
   59SAPC    C1 4449   3.919   1.957  11.009  0.0641  0.8463 -0.3996
   59SAPC    HA 4450   3.911   2.060  11.052  0.4042  1.0774 -0.8775
   59SAPC    HB 4451   4.026   1.930  11.015  0.0262  1.0514  2.4955
   59SAPC    C2 4452   3.889   1.965  10.856  0.3378 -0.5037 -0.4291
   59SAPC    HS 4453   3.785   2.001  10.841  0.3485 -0.3596 -0.1577
   59SAPC   O21 4454   3.890   1.832  10.801  0.0635  0.5187  0.1864
   59SAPC   C21 4455   3.829   1.817  10.684  0.9747  0.6236  0.6263
   59SAPC   O22 4456   3.729   1.880  10.654  0.7391 -0.5203 -0.0888
   59SAPC   C22 4457   3.891   1.697  10.612  0.1786  0.4910 -0.3246
   59SAPC   H2R 4458   3.992   1.736  10.586 -0.7022  1.5620 -2.4415
   59SAPC   H2S 4459   3.921   1.613  10.678 -1.2978 -1.8740 -2.4521
   59SAPC    C3 4460   3.983   2.067  10.786 -0.4387 -0.8819  0.4631
   59SAPC    HX 4461   4.089   2.036  10.795 -0.4692 -0.7749  1.3047
   59SAPC    HY 4462   3.977   2.160  10.847  1.7374 -0.9996  0.9344
   59SAPC   O31 4463   3.961   2.080  10.640  0.0066 -0.4770  0.2498
   59SAPC   C31 4464   3.857   2.155  10.607  0.3166 -0.2770 -0.6006
   59SAPC   O32 4465   3.802   2.227  10.687  0.2512  0.0439  0.3365
   59SAPC   C32 4466   3.822   2.151  10.463 -0.4623  0.0794  0.9826
   59SAPC   H2X 4467   3.864   2.057  10.421  0.3870  0.5046  0.8645
   59SAPC   H2Y 4468   3.878   2.232  10.411  0.7427 -1.1815  0.2449
   59SAPC   C23 4469   3.810   1.632  10.498 -0.4235 -0.6736  0.3946
   59SAPC   H3R 4470   3.749   1.698  10.433  1.3306  1.2799  0.6160
   59SAPC   H3S 4471   3.744   1.563  10.555 -1.7620 -0.6758 -1.0909
   59SAPC   C24 4472   3.902   1.548  10.398  1.0227  0.2369 -0.2959
   59SAPC   H4R 4473   3.837   1.472  10.349  1.1707  0.4571 -0.8403
   59SAPC   H4S 4474   3.987   1.498  10.448  1.3470  3.0634  2.2836
   59SAPC   C25 4475   3.962   1.635  10.294 -0.2041  0.5931  0.3167
   59SAPC   H5R 4476   4.040   1.698  10.338  1.2679 -0.3063 -0.9383
   59SAPC   C26 4477   3.940   1.654  10.163 -0.4405  0.3716 -0.0505
   59SAPC   H6R 4478   4.004   1.730  10.115 -1.7429  2.6711  1.7065
   59SAPC   C27 4479   3.832   1.590  10.082  0.0337  0.0160 -0.0373
   59SAPC   H7R 4480   3.782   1.677  10.034  1.2566  1.1440  0.6815
   59SAPC   H7S 4481   3.761   1.546  10.155  1.4277  3.2470  3.6493
   59SAPC   C28 4482   3.895   1.499   9.976  0.2252  0.7103 -0.2441
   59SAPC   H8R 4483   3.918   1.397  10.009  0.2647  0.5059 -0.8894
   59SAPC   C29 4484   3.933   1.533   9.852 -0.5127 -0.1590  0.3761
   59SAPC   H9R 4485   3.949   1.461   9.770 -1.6491  0.7748 -0.7054
   59SAPC  C210 4486   3.920   1.678   9.792  0.1667  0.0953 -0.5948
   59SAPC  H10R 4487   4.005   1.707   9.727  0.9206 -1.0789 -0.1649
   59SAPC  H10S 4488   3.921   1.754   9.873  0.2586  0.1240 -0.6222
   59SAPC  C211 4489   3.790   1.686   9.714  0.8165  0.4084 -0.6828
   59SAPC  H11R 4490   3.713   1.615   9.748  1.5512  0.7209  1.8145
   59SAPC  C212 4491   3.755   1.773   9.622 -0.0408  1.0525 -0.2384
   59SAPC  H12R 4492   3.654   1.763   9.581 -1.4088  2.5649  2.4846
   59SAPC  C213 4493   3.840   1.883   9.564  0.3835  0.2352 -0.5077
   59SAPC  H13R 4494   3.933   1.894   9.624  0.7604 -1.6815 -0.6591
   59SAPC  H13S 4495   3.782   1.977   9.556 -2.3000 -1.3802 -1.3139
   59SAPC  C214 4496   3.890   1.822   9.436 -0.4131 -0.3417 -0.2095
   59SAPC  H14R 4497   3.961   1.738   9.445  1.4415  1.1244 -0.4061
   59SAPC  C215 4498   3.856   1.850   9.312  0.0298 -0.5134  0.1335
   59SAPC  H15R 4499   3.897   1.797   9.225 -1.8109  1.0291 -1.7875
   59SAPC  C216 4500   3.758   1.956   9.259  0.0948 -0.5896  0.1660
   59SAPC  H16R 4501   3.815   2.044   9.222 -0.1447  0.1793  1.5679
   59SAPC  H16S 4502   3.693   1.986   9.344  0.6619 -1.2932  0.8590
   59SAPC  C217 4503   3.657   1.904   9.155  0.2400 -0.4456 -0.4652
   59SAPC  H17R 4504   3.590   1.992   9.142  0.7636 -0.1273 -1.0947
   59SAPC  H17S 4505   3.602   1.817   9.197  0.7075  0.3761  2.0134
   59SAPC  C218 4506   3.709   1.862   9.020 -0.9018  0.2871  0.1387
   59SAPC  H18R 4507   3.792   1.791   9.035 -0.9991  0.2983  0.7719
   59SAPC  H18S 4508   3.761   1.951   8.977  0.9097 -0.6612  0.2684
   59SAPC  C219 4509   3.602   1.816   8.920 -0.1851  0.7211  0.1139
   59SAPC  H19R 4510   3.679   1.791   8.845  1.3944  0.3730  1.7791
   59SAPC  H19S 4511   3.532   1.897   8.889 -1.3825  0.0981  1.1102
   59SAPC  C220 4512   3.517   1.702   8.952  0.0355  0.0004  0.5010
   59SAPC  H20R 4513   3.431   1.731   9.016  1.8835  2.6142  1.9989
   59SAPC  H20S 4514   3.578   1.628   9.009 -0.8616 -0.1914  1.2431
   59SAPC  H20T 4515   3.493   1.657   8.854  3.8825  2.7120 -1.9462
   59SAPC   C33 4516   3.670   2.154  10.454  0.5116 -0.2018  0.0461
   59SAPC   H3X 4517   3.643   2.257  10.486  0.6193 -0.1558 -0.0108
   59SAPC   H3Y 4518   3.626   2.090  10.533 -0.2748  1.1188  0.7106
   59SAPC   C34 4519   3.615   2.117  10.308  0.5531  0.1675  0.1755
   59SAPC   H4X 4520   3.669   2.178  10.233  0.8421 -0.7301 -0.3631
   59SAPC   H4Y 4521   3.508   2.147  10.296  1.1907  1.9690 -1.6092
   59SAPC   C35 4522   3.617   1.964  10.280  1.1961 -0.2888  0.6112
   59SAPC   H5X 4523   3.512   1.944  10.250  1.6485 -0.8343 -0.6690
   59SAPC   H5Y 4524   3.645   1.913  10.375  1.6938  0.6033  0.9516
   59SAPC   C36 4525   3.716   1.921  10.175  0.0479  0.0657 -0.0948
   59SAPC   H6X 4526   3.714   1.810  10.166  1.1722  0.0929 -0.9620
   59SAPC   H6Y 4527   3.818   1.940  10.216  0.0787  2.0695 -0.9803
   59SAPC   C37 4528   3.709   1.988  10.039 -0.0708 -0.0296 -0.3558
   59SAPC   H7X 4529   3.804   1.985   9.981  0.0366 -1.0248 -0.1492
   59SAPC   H7Y 4530   3.692   2.095  10.060 -1.3671  0.0025 -1.4152
   59SAPC   C38 4531   3.585   1.945   9.958 -0.1729 -0.6043  0.2285
   59SAPC   H8X 4532   3.498   1.971  10.021  0.2443  0.6982  0.2885
   59SAPC   H8Y 4533   3.608   1.838   9.937  1.5865 -0.2385  0.1429
   59SAPC   C39 4534   3.559   2.004   9.818 -0.3138 -0.5062 -0.2900
   59SAPC   H9X 4535   3.641   1.977   9.748  0.6417 -0.6393  0.8509
   59SAPC   H9Y 4536   3.555   2.115   9.819 -1.2586 -0.5206 -0.8041
   59SAPC  C310 4537   3.443   1.935   9.742 -0.0519  0.1992 -0.8718
   59SAPC  H10X 4538   3.357   1.992   9.785 -0.0592 -0.8046  0.5086
   59SAPC  H10Y 4539   3.430   1.830   9.775  0.2936  0.8221  1.4241
   59SAPC  C311 4540   3.455   1.963   9.593  0.1226  0.0218 -0.2205
   59SAPC  H11X 4541   3.536   1.901   9.548  0.0304 -0.4776  0.2935
   59SAPC  H11Y 4542   3.481   2.070   9.584 -0.2943  0.3514  1.9553
   59SAPC  C312 4543   3.317   1.939   9.528 -0.4198 -0.0266  0.6852
   59SAPC  H12X 4544   3.245   2.017   9.561 -2.3597 -0.9585 -1.1525
   59SAPC  H12Y 4545   3.266   1.848   9.566 -1.1467  0.1760  0.2093
   59SAPC  C313 4546   3.318   1.930   9.377 -0.1335  0.4044 -0.5392
   59SAPC  H13X 4547   3.377   1.841   9.345 -1.7551 -0.6603 -0.6666
   59SAPC  H13Y 4548   3.372   2.020   9.340  2.2474 -0.6958  0.0609
   59SAPC  C314 4549   3.182   1.926   9.309  0.3676 -0.3508  0.6602
   59SAPC  H14X 4550   3.100   1.989   9.351 -0.5067 -2.9066  3.0939
   59SAPC  H14Y 4551   3.146   1.823   9.328 -2.1241  0.0729 -1.2579
   59SAPC  C315 4552   3.207   1.941   9.157 -1.0143  0.5547  0.1708
   59SAPC  H15X 4553   3.303   1.894   9.128 -0.5521  0.9350  1.0445
   59SAPC  H15Y 4554   3.203   2.050   9.135  0.1069  0.4803 -0.4687
   59SAPC  C316 4555   3.107   1.861   9.074  0.5093 -1.1250  0.3794
   59SAPC  H16X 4556   3.004   1.902   9.077  0.5878 -0.4906 -2.7380
   59SAPC  H16Y 4557   3.110   1.757   9.114 -2.2858 -1.2943  0.3655
   59SAPC  C317 4558   3.142   1.865   8.919  0.4740 -0.7482  0.3882
   59SAPC  H17X 4559   3.246   1.827   8.911  1.5344  1.7333  1.4260
   59SAPC  H17Y 4560   3.138   1.962   8.865  1.4448 -0.9963 -0.1623
   59SAPC  C318 4561   3.038   1.778   8.849  0.1566 -0.8066 -0.0090
   59SAPC  H18X 4562   3.037   1.687   8.913 -0.7978 -0.4606  0.4952
   59SAPC  H18Y 4563   3.078   1.753   8.748  1.4139 -0.3973  0.3699
   59SAPC  H18Z 4564   2.936   1.822   8.848 -0.7553 -2.6733  2.1619
   60SAPC     N 4565   5.676   6.299  11.010 -0.2113 -0.5898  0.8323
   60SAPC   C12 4566   5.723   6.269  10.863 -0.6173  0.0957  0.1568
   60SAPC  H12A 4567   5.754   6.165  10.854  0.0437  0.2389  0.7185
   60SAPC  H12B 4568   5.812   6.325  10.841  0.4067 -1.4704  0.1550
   60SAPC   C13 4569   5.653   6.444  11.028  0.6302  0.0606  0.6177
   60SAPC  H13A 4570   5.596   6.485  10.946 -1.3995 -1.4884  1.1575
   60SAPC  H13B 4571   5.632   6.478  11.128  1.7461 -0.7789  1.1561
   60SAPC  H13C 4572   5.745   6.497  11.012  0.6472 -0.2630 -0.4118
   60SAPC   C14 4573   5.547   6.229  11.047 -0.1897 -0.2500 -0.5464
   60SAPC  H14A 4574   5.553   6.131  11.003 -1.0393 -0.3350 -0.4903
   60SAPC  H14B 4575   5.529   6.224  11.153 -2.1379  0.3795 -0.7888
   60SAPC  H14C 4576   5.459   6.274  11.002 -1.0240 -0.2159  1.0624
   60SAPC   C15 4577   5.779   6.252  11.105 -0.1419  0.5226  0.0358
   60SAPC  H15A 4578   5.787   6.145  11.111 -0.5874  0.4530 -0.5333
   60SAPC  H15B 4579   5.878   6.284  11.078 -0.2815  1.3908  0.5041
   60SAPC  H15C 4580   5.764   6.294  11.203  0.9187 -0.8877  0.8367
   60SAPC   C11 4581   5.620   6.306  10.754  0.3438  0.3042  0.6515
   60SAPC  H11A 4582   5.524   6.259  10.783  0.2816  0.3299  0.4908
   60SAPC  H11B 4583   5.651   6.266  10.655 -0.0859 -1.0931  1.0590
   60SAPC     P 4584   5.718   6.535  10.680 -0.1185  0.1871 -0.7081
   60SAPC   O13 4585   5.736   6.653  10.769  0.0433 -0.5449 -0.4594
   60SAPC   O14 4586   5.834   6.446  10.660 -0.0471 -0.4266 -0.7040
   60SAPC   O12 4587   5.600   6.448  10.741  0.2068 -0.5544  0.4912
   60SAPC   O11 4588   5.673   6.594  10.550  0.1664 -0.2917 -0.1310
   60SAPC    C1 4589   5.550   6.556  10.489 -0.6496  0.4054 -0.2985
   60SAPC    HA 4590   5.556   6.459  10.434  0.4824 -0.0888  0.6710
   60SAPC    HB 4591   5.470   6.543  10.565 -0.5005  1.2516  0.0087
   60SAPC    C2 4592   5.494   6.655  10.382 -1.3437  0.6180 -0.0898
   60SAPC    HS 4593   5.388   6.624  10.374 -1.5608  1.5965 -1.5026
   60SAPC   O21 4594   5.560   6.648  10.259 -0.0103 -0.0486  0.3103
   60SAPC   C21 4595   5.538   6.545  10.177 -1.2872  0.2018  0.0097
   60SAPC   O22 4596   5.452   6.456  10.191 -0.1176 -0.6122  0.1190
   60SAPC   C22 4597   5.640   6.542  10.059  0.0100 -0.2846 -0.5242
   60SAPC   H2R 4598   5.597   6.472   9.985  2.2172 -2.0478 -0.2352
   60SAPC   H2S 4599   5.632   6.648  10.025 -1.1878 -0.3084 -0.3593
   60SAPC    C3 4600   5.489   6.802  10.426  0.2456 -0.3395 -0.1306
   60SAPC    HX 4601   5.593   6.841  10.422  1.2759 -2.8134  0.5680
   60SAPC    HY 4602   5.466   6.799  10.535  0.7206 -0.8867 -0.0363
   60SAPC   O31 4603   5.406   6.890  10.348 -0.4439  0.5353 -0.0970
   60SAPC   C31 4604   5.401   7.020  10.380 -1.2093  0.2892 -0.0780
   60SAPC   O32 4605   5.468   7.072  10.466  0.3274 -0.1655  0.7249
   60SAPC   C32 4606   5.325   7.100  10.278 -0.1340  0.8555  0.6512
   60SAPC   H2X 4607   5.377   7.198  10.264 -1.0977  1.6720  2.4372
   60SAPC   H2Y 4608   5.218   7.111  10.305 -1.6893 -0.5277 -4.0135
   60SAPC   C23 4609   5.781   6.499  10.099 -0.0493 -0.0532 -0.0073
   60SAPC   H3R 4610   5.786   6.396  10.140  0.4441 -0.7651 -1.7318
   60SAPC   H3S 4611   5.825   6.567  10.175 -4.0153  0.8937  1.6605
   60SAPC   C24 4612   5.871   6.484   9.980 -0.4846 -0.0434  0.0289
   60SAPC   H4R 4613   5.811   6.418   9.913 -0.0190 -0.4725  0.0367
   60SAPC   H4S 4614   5.963   6.427  10.004 -0.2527 -0.3969 -1.5933
   60SAPC   C25 4615   5.902   6.620   9.911 -1.2251 -0.4943 -0.4540
   60SAPC   H5R 4616   5.968   6.691   9.963  2.1076 -2.4795 -1.6820
   60SAPC   C26 4617   5.854   6.659   9.788  0.8540 -0.6178 -0.7147
   60SAPC   H6R 4618   5.895   6.749   9.739 -2.2861  1.8990  0.9522
   60SAPC   C27 4619   5.764   6.583   9.691  0.5060  0.5701 -0.7446
   60SAPC   H7R 4620   5.732   6.486   9.734  0.0598  0.6191 -0.9546
   60SAPC   H7S 4621   5.817   6.548   9.600 -1.3638 -0.4940 -1.4919
   60SAPC   C28 4622   5.628   6.650   9.658  0.7178  0.3192 -0.0100
   60SAPC   H8R 4623   5.579   6.716   9.732  0.0774  0.9234 -0.9541
   60SAPC   C29 4624   5.563   6.636   9.541  0.3833 -0.0769 -0.0123
   60SAPC   H9R 4625   5.461   6.677   9.528  0.1794  0.5007  2.8744
   60SAPC  C210 4626   5.614   6.537   9.436  0.0876  0.1639 -0.3736
   60SAPC  H10R 4627   5.667   6.448   9.476 -1.7065 -0.7760  0.0292
   60SAPC  H10S 4628   5.704   6.582   9.389  1.2493  3.3964  4.2575
   60SAPC  C211 4629   5.503   6.493   9.346  0.6515  0.3514 -0.2540
   60SAPC  H11R 4630   5.472   6.389   9.367 -1.5964  1.0144  0.0025
   60SAPC  C212 4631   5.442   6.562   9.244 -0.0028  0.3019  0.3678
   60SAPC  H12R 4632   5.360   6.517   9.187  0.7415  0.0429 -0.5321
   60SAPC  C213 4633   5.474   6.701   9.201 -0.0437 -0.3438 -0.0629
   60SAPC  H13R 4634   5.547   6.750   9.270  0.0089  0.7071 -0.8362
   60SAPC  H13S 4635   5.382   6.762   9.214 -1.3330 -2.4244  1.1889
   60SAPC  C214 4636   5.529   6.718   9.055 -0.1878  0.7289 -0.2405
   60SAPC  H14R 4637   5.608   6.646   9.029 -0.9672 -1.2471  2.3273
   60SAPC  C215 4638   5.498   6.813   8.965 -0.4532  0.4513 -0.3641
   60SAPC  H15R 4639   5.542   6.797   8.865 -0.8589  1.0221 -0.6369
   60SAPC  C216 4640   5.396   6.926   8.972  0.0881 -0.1031  0.5668
   60SAPC  H16R 4641   5.446   7.023   8.953 -0.3176 -0.1217 -0.6502
   60SAPC  H16S 4642   5.361   6.935   9.078 -0.8351  1.1810  0.1805
   60SAPC  C217 4643   5.270   6.908   8.883 -0.2709 -0.5118 -0.5378
   60SAPC  H17R 4644   5.219   7.006   8.875  1.3529  0.2457 -2.3915
   60SAPC  H17S 4645   5.200   6.840   8.936  1.5444 -1.5777  0.5836
   60SAPC  C218 4646   5.302   6.852   8.748 -0.3313 -0.6558 -0.0287
   60SAPC  H18R 4647   5.357   6.758   8.767 -0.3974 -0.4791  1.0709
   60SAPC  H18S 4648   5.382   6.913   8.700  1.0279 -0.8539  1.8943
   60SAPC  C219 4649   5.187   6.825   8.652  0.3541 -0.5010  0.2373
   60SAPC  H19R 4650   5.127   6.916   8.633  1.2271 -0.3273 -2.0525
   60SAPC  H19S 4651   5.111   6.758   8.696  0.1812 -0.4921 -0.0459
   60SAPC  C220 4652   5.226   6.758   8.523 -0.2155  0.1630  0.4292
   60SAPC  H20R 4653   5.286   6.826   8.460 -0.0306  2.3068  2.7392
   60SAPC  H20S 4654   5.137   6.731   8.463  0.3610 -0.8426  0.0028
   60SAPC  H20T 4655   5.286   6.666   8.542  1.4263  0.4071 -2.9462
   60SAPC   C33 4656   5.337   7.034  10.137  0.1570  0.1343 -0.0262
   60SAPC   H3X 4657   5.267   6.948  10.140  0.0909  0.2207  2.6462
   60SAPC   H3Y 4658   5.433   7.002  10.091 -1.1753 -1.0310 -2.1816
   60SAPC   C34 4659   5.283   7.130  10.031 -0.8068  0.0474 -0.6260
   60SAPC   H4X 4660   5.351   7.216  10.051  0.8727 -1.6008  1.2141
   60SAPC   H4Y 4661   5.177   7.154  10.052  0.1332  2.2832  2.1713
   60SAPC   C35 4662   5.300   7.088   9.887  0.3602 -0.5824 -0.5562
   60SAPC   H5X 4663   5.231   7.005   9.860 -1.7577  1.2853 -1.1614
   60SAPC   H5Y 4664   5.404   7.056   9.864  1.9623  1.6120  2.8183
   60SAPC   C36 4665   5.267   7.204   9.803 -1.3148  0.4281  0.7777
   60SAPC   H6X 4666   5.347   7.279   9.822 -0.8675 -0.4209  2.4350
   60SAPC   H6Y 4667   5.170   7.252   9.829 -1.1084 -0.1254  2.7164
   60SAPC   C37 4668   5.275   7.158   9.656  0.3835 -0.1443 -0.0803
   60SAPC   H7X 4669   5.218   7.063   9.648  0.6942 -0.9097  4.3955
   60SAPC   H7Y 4670   5.379   7.130   9.632  1.0485  1.3762  0.8571
   60SAPC   C38 4671   5.221   7.259   9.556  0.0039 -0.1248  0.2185
   60SAPC   H8X 4672   5.255   7.363   9.576  0.0014 -0.2071  0.6670
   60SAPC   H8Y 4673   5.110   7.257   9.563 -0.1460  2.1940 -0.4571
   60SAPC   C39 4674   5.259   7.219   9.413  0.3159 -0.6322  0.1587
   60SAPC   H9X 4675   5.238   7.110   9.409  0.3663 -0.6498  0.3908
   60SAPC   H9Y 4676   5.367   7.246   9.402  0.6970 -1.7854  0.8911
   60SAPC  C310 4677   5.191   7.299   9.301 -0.2739  0.3855 -0.4168
   60SAPC  H10X 4678   5.200   7.407   9.321  2.1878 -0.2321  2.4326
   60SAPC  H10Y 4679   5.081   7.292   9.314 -0.3044  3.1726  1.7748
   60SAPC  C311 4680   5.230   7.266   9.155 -0.4431 -0.6615 -0.2130
   60SAPC  H11X 4681   5.232   7.155   9.150 -0.8602 -0.8385  2.2268
   60SAPC  H11Y 4682   5.334   7.303   9.137 -0.3278  0.0563  1.7354
   60SAPC  C312 4683   5.128   7.332   9.062 -0.0847  0.0618 -0.6075
   60SAPC  H12X 4684   5.112   7.439   9.087 -1.8644 -0.1603 -0.6354
   60SAPC  H12Y 4685   5.030   7.282   9.078 -0.3754  0.9678  0.5255
   60SAPC  C313 4686   5.163   7.315   8.917  0.0993 -0.2160 -0.0780
   60SAPC  H13X 4687   5.181   7.206   8.908 -1.6144 -1.0869  4.4851
   60SAPC  H13Y 4688   5.262   7.362   8.899  0.7160 -1.3967  0.1345
   60SAPC  C314 4689   5.061   7.363   8.815 -0.3898 -0.3149 -0.5048
   60SAPC  H14X 4690   5.071   7.472   8.797 -1.5047  0.0853  1.0850
   60SAPC  H14Y 4691   4.957   7.344   8.847 -0.2048 -1.0798 -0.3419
   60SAPC  C315 4692   5.075   7.288   8.684 -0.8110  0.8650  0.4634
   60SAPC  H15X 4693   5.052   7.180   8.693 -0.4111  0.6052 -1.2113
   60SAPC  H15Y 4694   5.173   7.293   8.631 -1.7343 -1.2121 -1.6157
   60SAPC  C316 4695   4.979   7.347   8.577 -0.5473  0.1907 -1.2431
   60SAPC  H16X 4696   4.991   7.458   8.578 -0.0550  0.1443 -1.4899
   60SAPC  H16Y 4697   4.879   7.313   8.608 -0.1302 -0.6446 -0.7934
   60SAPC  C317 4698   4.998   7.305   8.431  0.3945 -0.3996  0.3363
   60SAPC  H17X 4699   4.912   7.346   8.374  0.0723  0.4723  1.4155
   60SAPC  H17Y 4700   4.988   7.195   8.420 -2.4912 -0.2138  0.1566
   60SAPC  C318 4701   5.130   7.357   8.370 -0.2376  0.0596  0.6395
   60SAPC  H18X 4702   5.141   7.466   8.392 -0.0497  0.4090 -1.0608
   60SAPC  H18Y 4703   5.130   7.350   8.259  0.5822  1.6690  0.4996
   60SAPC  H18Z 4704   5.212   7.292   8.407  0.1849  0.3534  0.2345
   61SAPC     N 4705   2.760   3.076  11.023  0.0450  0.2758 -0.1229
   61SAPC   C12 4706   2.707   2.935  11.061 -0.6451  0.0144 -0.5788
   61SAPC  H12A 4707   2.601   2.924  11.040 -1.0348 -0.2588  1.3259
   61SAPC  H12B 4708   2.713   2.921  11.168 -1.5518  3.0374 -0.0315
   61SAPC   C13 4709   2.905   3.082  11.072 -0.8429  0.0942  0.2054
   61SAPC  H13A 4710   2.957   3.177  11.069 -0.7585  0.0302 -2.6657
   61SAPC  H13B 4711   2.908   3.053  11.176  0.9839 -1.7700 -0.3062
   61SAPC  H13C 4712   2.969   3.017  11.015  0.3640  3.2422 -2.3785
   61SAPC   C14 4713   2.757   3.110  10.874 -0.6801  0.8267 -0.0835
   61SAPC  H14A 4714   2.661   3.084  10.830  0.9167  0.1281 -3.4657
   61SAPC  H14B 4715   2.786   3.213  10.863  0.3438  0.5307 -0.2322
   61SAPC  H14C 4716   2.831   3.043  10.833 -0.9598 -0.2116  1.0603
   61SAPC   C15 4717   2.679   3.184  11.088 -0.2542  0.2715 -0.1435
   61SAPC  H15A 4718   2.575   3.160  11.070  0.1257  0.2842 -2.7148
   61SAPC  H15B 4719   2.690   3.178  11.195 -1.6820  0.4264  0.0314
   61SAPC  H15C 4720   2.698   3.281  11.045  1.8385 -0.2285 -0.4627
   61SAPC   C11 4721   2.777   2.812  10.991  0.5239  0.5678  0.4571
   61SAPC  H11A 4722   2.749   2.730  11.061 -0.3394 -0.0447 -0.5822
   61SAPC  H11B 4723   2.888   2.809  11.000  0.4454 -0.7242  1.3131
   61SAPC     P 4724   2.600   2.729  10.822  0.0947 -0.5786 -0.1139
   61SAPC   O13 4725   2.578   2.611  10.907  0.5721 -0.0432 -0.3077
   61SAPC   O14 4726   2.503   2.838  10.829 -0.1761  0.0856 -0.5678
   61SAPC   O12 4727   2.738   2.788  10.858 -0.4182 -0.4462 -0.0877
   61SAPC   O11 4728   2.621   2.687  10.670  0.2822  0.1887  0.2428
   61SAPC    C1 4729   2.714   2.754  10.582 -0.0769  0.0570  0.2092
   61SAPC    HA 4730   2.792   2.816  10.631  1.5128  0.6429 -2.8286
   61SAPC    HB 4731   2.768   2.678  10.522  0.8008 -0.1703  1.2466
   61SAPC    C2 4732   2.644   2.847  10.486 -0.3242 -0.3363  0.3676
   61SAPC    HS 4733   2.593   2.918  10.555 -2.7400 -1.1681 -0.4577
   61SAPC   O21 4734   2.548   2.763  10.418  0.1465  0.2540 -0.2646
   61SAPC   C21 4735   2.427   2.822  10.388 -0.4475 -0.3961 -0.2461
   61SAPC   O22 4736   2.403   2.935  10.410  0.8257  0.8440 -0.0683
   61SAPC   C22 4737   2.339   2.719  10.321  0.3023  0.2892 -0.3925
   61SAPC   H2R 4738   2.400   2.674  10.239 -1.3947 -2.9224 -0.0681
   61SAPC   H2S 4739   2.330   2.633  10.391  0.9618  0.7526  0.2822
   61SAPC    C3 4740   2.729   2.923  10.392 -0.3957 -0.2427  0.9039
   61SAPC    HX 4741   2.785   2.999  10.451 -0.8318  1.3408 -0.6174
   61SAPC    HY 4742   2.664   2.985  10.326 -1.2107 -0.7628  1.1927
   61SAPC   O31 4743   2.817   2.838  10.325 -0.0656  0.1756 -0.2471
   61SAPC   C31 4744   2.883   2.891  10.227 -0.4208 -0.6070  0.1810
   61SAPC   O32 4745   2.864   3.000  10.175  0.0914  0.0011  0.2798
   61SAPC   C32 4746   2.989   2.793  10.181 -0.2238  0.0786  0.1484
   61SAPC   H2X 4747   2.941   2.694  10.195  1.2125 -1.0314 -2.1898
   61SAPC   H2Y 4748   3.083   2.810  10.239 -0.1287 -2.0626  0.7054
   61SAPC   C23 4749   2.206   2.781  10.278 -0.4014  0.2137  0.7329
   61SAPC   H3R 4750   2.162   2.860  10.343 -0.3235  1.4285 -0.6635
   61SAPC   H3S 4751   2.131   2.699  10.284  0.0566 -0.3257 -0.6231
   61SAPC   C24 4752   2.209   2.831  10.137 -0.0207  0.4895 -0.4598
   61SAPC   H4R 4753   2.278   2.919  10.140 -1.3548  1.5731 -0.4773
   61SAPC   H4S 4754   2.110   2.876  10.114 -0.4499 -1.1861 -2.1509
   61SAPC   C25 4755   2.243   2.733  10.026 -0.5277  0.1158 -0.4495
   61SAPC   H5R 4756   2.199   2.634  10.042 -0.2776 -0.3333 -2.2712
   61SAPC   C26 4757   2.320   2.751   9.916  0.2960 -0.4452  0.0847
   61SAPC   H6R 4758   2.329   2.668   9.845  2.7082  0.3314 -0.5946
   61SAPC   C27 4759   2.389   2.873   9.883 -0.7898 -0.0595 -0.1868
   61SAPC   H7R 4760   2.356   2.961   9.942 -0.6701  0.7450 -1.2796
   61SAPC   H7S 4761   2.368   2.904   9.778  0.0320  3.5893  0.5923
   61SAPC   C28 4762   2.534   2.850   9.919 -0.2148  0.1374 -0.7832
   61SAPC   H8R 4763   2.556   2.863  10.026 -1.5135 -0.7403 -0.3835
   61SAPC   C29 4764   2.641   2.821   9.849 -1.2061 -0.8086 -0.2811
   61SAPC   H9R 4765   2.733   2.806   9.907  0.6636 -0.8147 -3.0496
   61SAPC  C210 4766   2.653   2.799   9.700  0.0299 -0.5026  0.2650
   61SAPC  H10R 4767   2.575   2.854   9.643 -1.3406 -1.8304  0.7774
   61SAPC  H10S 4768   2.630   2.692   9.678 -1.3469  0.5749 -4.5652
   61SAPC  C211 4769   2.788   2.845   9.651  0.4201 -0.7081 -0.0917
   61SAPC  H11R 4770   2.822   2.937   9.700 -0.9323 -0.4274  0.3378
   61SAPC  C212 4771   2.867   2.784   9.564 -0.6478  0.6049 -0.2804
   61SAPC  H12R 4772   2.968   2.826   9.551 -0.7063  0.6899 -0.4552
   61SAPC  C213 4773   2.831   2.661   9.483 -0.0891  0.0297  0.1935
   61SAPC  H13R 4774   2.813   2.586   9.563  0.2492  0.7911  1.0054
   61SAPC  H13S 4775   2.923   2.634   9.427 -0.1941  0.5422 -0.2376
   61SAPC  C214 4776   2.717   2.674   9.381 -0.7603 -0.0607 -0.5461
   61SAPC  H14R 4777   2.666   2.771   9.369  0.7666  0.9348  0.5601
   61SAPC  C215 4778   2.675   2.570   9.312  0.2053  0.2939 -0.0030
   61SAPC  H15R 4779   2.591   2.577   9.241  1.2772 -1.0070 -1.4827
   61SAPC  C216 4780   2.719   2.422   9.316  0.4568 -0.1590 -0.0996
   61SAPC  H16R 4781   2.637   2.347   9.323 -0.4100  0.7150 -0.6436
   61SAPC  H16S 4782   2.774   2.404   9.411 -0.3663 -1.2479  0.1990
   61SAPC  C217 4783   2.810   2.389   9.195 -0.1693  0.1420  0.4095
   61SAPC  H17R 4784   2.907   2.442   9.197  0.4119 -0.9199  1.6521
   61SAPC  H17S 4785   2.761   2.428   9.103 -0.5494  0.8635  0.9118
   61SAPC  C218 4786   2.832   2.243   9.178  0.1572  0.0875 -0.0797
   61SAPC  H18R 4787   2.865   2.210   9.279  0.1779 -0.2210 -0.1866
   61SAPC  H18S 4788   2.907   2.224   9.099  0.4062  0.9052 -0.0539
   61SAPC  C219 4789   2.691   2.177   9.149 -0.2878 -0.1719 -0.9534
   61SAPC  H19R 4790   2.645   2.226   9.060  1.3836 -0.3928 -1.9794
   61SAPC  H19S 4791   2.632   2.187   9.242 -0.8630 -0.8698 -1.2319
   61SAPC  C220 4792   2.720   2.034   9.112  0.0514  0.5513 -0.0472
   61SAPC  H20R 4793   2.636   1.975   9.072 -0.0513 -0.6978  1.8668
   61SAPC  H20S 4794   2.734   1.985   9.211 -0.1358  1.9088  0.6833
   61SAPC  H20T 4795   2.812   2.017   9.051  1.5865  0.2490  2.2141
   61SAPC   C33 4796   3.019   2.821  10.033 -0.1282  0.3811 -0.0578
   61SAPC   H3X 4797   3.030   2.927  10.003 -0.9282 -0.1072 -2.2686
   61SAPC   H3Y 4798   2.929   2.786   9.978  0.6102 -1.2091 -0.3085
   61SAPC   C34 4799   3.130   2.734   9.982  0.3728  0.0446  0.6416
   61SAPC   H4X 4800   3.124   2.643  10.046  2.9719  0.2834  1.3742
   61SAPC   H4Y 4801   3.232   2.778   9.985  0.2301  0.5992 -1.4312
   61SAPC   C35 4802   3.112   2.693   9.836 -0.5636  0.1159  0.5437
   61SAPC   H5X 4803   3.107   2.780   9.767 -1.5874  0.5777  1.1776
   61SAPC   H5Y 4804   3.010   2.648   9.828 -0.5653  0.1262  0.5079
   61SAPC   C36 4805   3.225   2.597   9.783 -0.7050 -1.2631 -0.4400
   61SAPC   H6X 4806   3.266   2.535   9.866  1.4250  1.6262  0.8638
   61SAPC   H6Y 4807   3.308   2.666   9.754 -0.2211 -1.0253  1.3687
   61SAPC   C37 4808   3.186   2.511   9.663 -0.2931 -0.1157  0.3790
   61SAPC   H7X 4809   3.121   2.566   9.590  0.3126  0.8226  0.5304
   61SAPC   H7Y 4810   3.114   2.433   9.695 -0.4232 -1.0289 -1.9209
   61SAPC   C38 4811   3.291   2.436   9.585 -0.3347 -0.0265 -0.0691
   61SAPC   H8X 4812   3.340   2.373   9.662  0.0981  1.7787  1.1970
   61SAPC   H8Y 4813   3.368   2.500   9.537  0.9310 -2.3570 -1.3335
   61SAPC   C39 4814   3.232   2.337   9.484  0.3964  0.6971  0.3447
   61SAPC   H9X 4815   3.140   2.295   9.530 -1.1338  3.7211  0.3438
   61SAPC   H9Y 4816   3.304   2.255   9.466 -0.9637 -0.0260 -2.4760
   61SAPC  C310 4817   3.210   2.401   9.347  0.0580 -0.6726 -0.6700
   61SAPC  H10X 4818   3.163   2.498   9.373  0.2194 -1.2175  1.9249
   61SAPC  H10Y 4819   3.147   2.332   9.288 -0.3767  0.5627 -1.6894
   61SAPC  C311 4820   3.332   2.426   9.265 -0.3102  0.0815 -0.6257
   61SAPC  H11X 4821   3.401   2.343   9.240  0.5110  0.2103  1.0642
   61SAPC  H11Y 4822   3.399   2.507   9.301 -1.1794  0.9270 -0.8627
   61SAPC  C312 4823   3.287   2.484   9.132  0.4253 -0.3750 -0.4119
   61SAPC  H12X 4824   3.370   2.541   9.086 -1.1998  2.5239 -0.0220
   61SAPC  H12Y 4825   3.202   2.552   9.155  0.2110 -0.7592 -0.0579
   61SAPC  C313 4826   3.241   2.374   9.037 -0.1435  0.0334  0.1993
   61SAPC  H13X 4827   3.155   2.323   9.086  0.5303  1.5137  3.1497
   61SAPC  H13Y 4828   3.323   2.301   9.022 -0.4673 -0.0697 -1.2686
   61SAPC  C314 4829   3.213   2.430   8.893 -0.2992 -0.4388 -0.3512
   61SAPC  H14X 4830   3.307   2.426   8.834  0.5716  2.2623  0.6869
   61SAPC  H14Y 4831   3.173   2.533   8.909 -0.7495 -0.6076 -0.3747
   61SAPC  C315 4832   3.118   2.335   8.816  0.1387 -0.2668 -0.9416
   61SAPC  H15X 4833   3.024   2.354   8.872 -0.2902  3.3266 -2.6021
   61SAPC  H15Y 4834   3.155   2.230   8.821  1.2359  0.0646 -1.7372
   61SAPC  C316 4835   3.098   2.374   8.666 -0.3687 -0.0138  0.3496
   61SAPC  H16X 4836   3.192   2.352   8.612 -0.6874 -0.5936  0.0120
   61SAPC  H16Y 4837   3.063   2.479   8.658 -0.0099  0.0225 -1.0018
   61SAPC  C317 4838   2.990   2.288   8.605  0.1689 -0.3643 -0.0426
   61SAPC  H17X 4839   2.889   2.299   8.651  0.9472  0.4130  1.5753
   61SAPC  H17Y 4840   3.027   2.184   8.612  1.8416  0.2937  1.5687
   61SAPC  C318 4841   2.980   2.306   8.448  0.1897 -0.2396 -0.2598
   61SAPC  H18X 4842   3.079   2.328   8.403  0.7186 -1.0264  0.4701
   61SAPC  H18Y 4843   2.917   2.396   8.434  1.3104  0.4352 -1.1210
   61SAPC  H18Z 4844   2.943   2.216   8.394 -0.3814 -0.0796 -0.1374
   62SAPC     N 4845   0.561   2.172  11.000  0.0345 -0.5921 -0.3363
   62SAPC   C12 4846   0.461   2.234  10.904 -0.9107  0.1327  0.2749
   62SAPC  H12A 4847   0.368   2.228  10.959 -0.8101 -0.0134  0.4309
   62SAPC  H12B 4848   0.448   2.164  10.823  0.3579  2.9372 -2.5133
   62SAPC   C13 4849   0.696   2.173  10.947 -0.1037 -0.1780  0.0538
   62SAPC  H13A 4850   0.701   2.139  10.845  0.5557  0.1618 -0.0381
   62SAPC  H13B 4851   0.733   2.275  10.942 -0.7202 -0.0044 -1.2207
   62SAPC  H13C 4852   0.756   2.107  11.009  1.2715 -1.3690 -2.4107
   62SAPC   C14 4853   0.561   2.243  11.129  0.1630  0.4545  0.0454
   62SAPC  H14A 4854   0.573   2.350  11.118 -0.1497  0.4575 -0.3088
   62SAPC  H14B 4855   0.468   2.224  11.180 -1.7174  2.4328 -2.3898
   62SAPC  H14C 4856   0.643   2.207  11.190 -0.0311  1.6472  1.0455
   62SAPC   C15 4857   0.514   2.035  11.027  0.9024 -0.5340  0.0066
   62SAPC  H15A 4858   0.422   2.027  11.082  1.0579 -1.8012  0.1172
   62SAPC  H15B 4859   0.500   1.983  10.933 -1.0773  0.1405 -0.1058
   62SAPC  H15C 4860   0.593   1.991  11.086  0.8839 -0.1980  0.2858
   62SAPC   C11 4861   0.485   2.375  10.855  0.7841  0.4500 -0.3016
   62SAPC  H11A 4862   0.474   2.442  10.943 -0.4213 -1.5719  1.1685
   62SAPC  H11B 4863   0.405   2.409  10.786 -3.6260 -0.9331  3.5524
   62SAPC     P 4864   0.645   2.367  10.648 -0.0841 -0.2670 -0.4995
   62SAPC   O13 4865   0.789   2.389  10.633 -0.3285  1.0990  0.3172
   62SAPC   O14 4866   0.585   2.238  10.600  0.1053 -0.2873 -0.0292
   62SAPC   O12 4867   0.612   2.397  10.799  0.3133 -0.1961  1.0418
   62SAPC   O11 4868   0.575   2.498  10.582  0.3624  0.4054  0.3820
   62SAPC    C1 4869   0.596   2.529  10.443  0.7666 -0.0920 -0.3817
   62SAPC    HA 4870   0.595   2.640  10.432 -2.3099  0.0738  0.7961
   62SAPC    HB 4871   0.690   2.487  10.401  0.0984 -0.0822 -1.9481
   62SAPC    C2 4872   0.498   2.458  10.339 -0.6254  0.2808  0.4915
   62SAPC    HS 4873   0.531   2.353  10.320 -2.6197 -0.1959 -0.6315
   62SAPC   O21 4874   0.497   2.533  10.210 -0.0672 -0.2069  0.3362
   62SAPC   C21 4875   0.614   2.509  10.146  0.3637 -0.1225 -0.3717
   62SAPC   O22 4876   0.693   2.423  10.169  0.2491 -0.3600  0.2010
   62SAPC   C22 4877   0.619   2.597  10.018 -0.0993  0.0952 -0.0556
   62SAPC   H2R 4878   0.546   2.680  10.030 -0.8082 -0.3649 -1.1158
   62SAPC   H2S 4879   0.725   2.631  10.023  0.4280 -1.5279  3.7864
   62SAPC    C3 4880   0.361   2.456  10.399  0.3657 -0.0601  0.5091
   62SAPC    HX 4881   0.356   2.561  10.435  2.1577  0.1280  0.2854
   62SAPC    HY 4882   0.354   2.387  10.486  0.7929  0.2680  0.8065
   62SAPC   O31 4883   0.254   2.440  10.300  0.3990 -0.0015 -0.2448
   62SAPC   C31 4884   0.207   2.318  10.293  0.0080  0.4988  0.6049
   62SAPC   O32 4885   0.265   2.217  10.337  0.0539  0.1059  0.4673
   62SAPC   C32 4886   0.069   2.311  10.229 -0.5151 -0.1715 -0.0164
   62SAPC   H2X 4887   0.036   2.415  10.210  1.0160 -0.0688 -2.5332
   62SAPC   H2Y 4888  -0.003   2.274  10.305  2.0540 -0.3696  2.4898
   62SAPC   C23 4889   0.593   2.514   9.893  0.7448 -0.1319 -0.2860
   62SAPC   H3R 4890   0.648   2.418   9.900  0.4111 -0.3114 -0.0385
   62SAPC   H3S 4891   0.633   2.575   9.810  1.4584  1.9589  1.4841
   62SAPC   C24 4892   0.442   2.487   9.870 -0.3624  0.2053  0.2219
   62SAPC   H4R 4893   0.394   2.474   9.969  0.8066  0.2811  0.8095
   62SAPC   H4S 4894   0.443   2.386   9.822  1.8287  1.0902 -1.7954
   62SAPC   C25 4895   0.357   2.585   9.791 -0.9344 -0.4550 -0.6675
   62SAPC   H5R 4896   0.305   2.647   9.865 -0.2050 -0.6926  0.0681
   62SAPC   C26 4897   0.347   2.600   9.661 -0.0092 -1.1774 -0.1938
   62SAPC   H6R 4898   0.280   2.676   9.618  2.2656  0.5746 -0.8427
   62SAPC   C27 4899   0.427   2.515   9.563  0.4987  0.0968 -0.2925
   62SAPC   H7R 4900   0.447   2.417   9.611 -2.5707  0.4991  2.1266
   62SAPC   H7S 4901   0.527   2.559   9.542  1.6179 -0.8576  2.4837
   62SAPC   C28 4902   0.341   2.490   9.444  0.8603 -0.4959  0.2552
   62SAPC   H8R 4903   0.232   2.498   9.459  0.6773 -0.5149 -0.9623
   62SAPC   C29 4904   0.396   2.474   9.318  0.2269 -0.2555 -0.5507
   62SAPC   H9R 4905   0.325   2.470   9.233  0.8231 -0.2832 -1.0588
   62SAPC  C210 4906   0.544   2.464   9.282  0.2613  0.7836  0.3150
   62SAPC  H10R 4907   0.551   2.388   9.202 -1.7810  2.3762 -1.4852
   62SAPC  H10S 4908   0.601   2.426   9.370 -1.9431  0.6158  1.7461
   62SAPC  C211 4909   0.582   2.603   9.228  0.2159 -0.2748 -0.9255
   62SAPC  H11R 4910   0.610   2.671   9.310  0.9435  0.0031 -1.3991
   62SAPC  C212 4911   0.561   2.649   9.105 -0.1579 -0.6715 -0.4372
   62SAPC  H12R 4912   0.581   2.756   9.087 -1.0766 -0.1467  1.3906
   62SAPC  C213 4913   0.508   2.573   8.986 -0.0665  0.1268 -0.2685
   62SAPC  H13R 4914   0.521   2.463   8.995 -0.1760  0.0578 -0.9604
   62SAPC  H13S 4915   0.580   2.588   8.903  0.2363  0.5757  0.0718
   62SAPC  C214 4916   0.368   2.609   8.945 -0.4023 -0.1411  0.3143
   62SAPC  H14R 4917   0.301   2.657   9.018 -0.1860 -2.2101  1.9939
   62SAPC  C215 4918   0.323   2.591   8.818  0.7066  0.1406  0.0656
   62SAPC  H15R 4919   0.219   2.618   8.794  0.3244 -1.2760  0.0352
   62SAPC  C216 4920   0.391   2.536   8.701  0.1942  0.3723  0.9002
   62SAPC  H16R 4921   0.458   2.456   8.739  0.9527  1.3593  1.7147
   62SAPC  H16S 4922   0.469   2.600   8.654  1.0720 -1.0864  0.2992
   62SAPC  C217 4923   0.300   2.485   8.587  0.4340 -0.5356  0.7910
   62SAPC  H17R 4924   0.260   2.571   8.529  1.4589 -1.0078 -0.6849
   62SAPC  H17S 4925   0.206   2.453   8.637 -0.2922  1.7153  0.9863
   62SAPC  C218 4926   0.344   2.364   8.501 -0.0100 -0.5023  0.3479
   62SAPC  H18R 4927   0.448   2.390   8.471 -1.3264  4.7357 -0.8451
   62SAPC  H18S 4928   0.290   2.359   8.404 -0.2661 -2.6130  0.5590
   62SAPC  C219 4929   0.342   2.233   8.570  0.4875  0.1123 -0.0602
   62SAPC  H19R 4930   0.237   2.221   8.604 -0.3920  1.9383 -1.9142
   62SAPC  H19S 4931   0.407   2.231   8.660 -1.2846  0.8777  1.2831
   62SAPC  C220 4932   0.368   2.116   8.472 -0.4070  0.3368  0.5517
   62SAPC  H20R 4933   0.461   2.132   8.414 -0.7743 -1.9798 -0.8032
   62SAPC  H20S 4934   0.288   2.120   8.396  1.2589  0.8991 -1.2597
   62SAPC  H20T 4935   0.379   2.012   8.510  0.6752  0.0111 -0.5859
   62SAPC   C33 4936   0.074   2.237  10.094 -0.4165  0.2313  0.1872
   62SAPC   H3X 4937  -0.031   2.237  10.060  0.0249  1.4373 -1.3062
   62SAPC   H3Y 4938   0.106   2.133  10.117 -1.4531  0.0486  0.8677
   62SAPC   C34 4939   0.151   2.295   9.981  0.3062 -0.0999 -0.0150
   62SAPC   H4X 4940   0.257   2.314  10.008  1.5652 -1.1856 -3.6853
   62SAPC   H4Y 4941   0.106   2.396   9.965 -3.0028 -1.6924 -1.7002
   62SAPC   C35 4942   0.139   2.205   9.854  0.1932  1.1686  0.5500
   62SAPC   H5X 4943   0.033   2.172   9.853  0.5291 -0.0030  1.1467
   62SAPC   H5Y 4944   0.195   2.111   9.871 -0.3420  0.3039 -2.0041
   62SAPC   C36 4945   0.188   2.261   9.717 -0.1069  0.0103 -0.0771
   62SAPC   H6X 4946   0.291   2.298   9.736 -0.7001 -0.3162  5.2065
   62SAPC   H6Y 4947   0.129   2.353   9.696 -1.2060 -1.0689 -2.0134
   62SAPC   C37 4948   0.186   2.161   9.596  0.3967  0.4731 -0.0764
   62SAPC   H7X 4949   0.263   2.085   9.620  0.6763 -0.5477 -3.6183
   62SAPC   H7Y 4950   0.209   2.213   9.500  1.0721 -0.2943 -0.3471
   62SAPC   C38 4951   0.049   2.100   9.567  0.0237  0.6752  0.0196
   62SAPC   H8X 4952  -0.029   2.180   9.564 -1.1006 -0.3762  0.5862
   62SAPC   H8Y 4953   0.025   2.032   9.651  2.6037 -2.7435 -1.7518
   62SAPC   C39 4954   0.049   2.004   9.447 -0.1666 -0.5928  0.1119
   62SAPC   H9X 4955  -0.054   1.960   9.447 -0.1843 -0.5735 -0.8157
   62SAPC   H9Y 4956   0.125   1.926   9.469  0.8764  0.0507 -1.0772
   62SAPC  C310 4957   0.083   2.059   9.308 -0.4837 -0.5875 -0.1634
   62SAPC  H10X 4958   0.169   2.131   9.310  1.0443 -2.3421  0.0572
   62SAPC  H10Y 4959  -0.008   2.112   9.272 -0.7826 -1.7516 -1.1785
   62SAPC  C311 4960   0.119   1.963   9.204 -0.1261  0.3794 -0.0498
   62SAPC  H11X 4961   0.050   1.877   9.210 -0.7134  0.9133  1.1302
   62SAPC  H11Y 4962   0.218   1.919   9.228 -0.7508 -0.7756  0.4445
   62SAPC  C312 4963   0.133   2.017   9.062  0.4455 -0.8163  0.9941
   62SAPC  H12X 4964   0.187   2.113   9.065 -1.5202  0.3485  0.6949
   62SAPC  H12Y 4965   0.030   2.041   9.027 -0.1246 -1.4629  2.1545
   62SAPC  C313 4966   0.204   1.922   8.969 -0.4702 -0.0573 -0.0803
   62SAPC  H13X 4967   0.145   1.828   8.968 -1.2194  0.4099 -0.3558
   62SAPC  H13Y 4968   0.300   1.903   9.021  0.8270  0.6243 -2.1047
   62SAPC  C314 4969   0.240   1.954   8.819 -0.2656 -0.6730 -0.7967
   62SAPC  H14X 4970   0.293   1.865   8.779  3.5471  0.5027  1.1099
   62SAPC  H14Y 4971   0.311   2.039   8.830 -2.7217  1.2228  1.7284
   62SAPC  C315 4972   0.127   1.983   8.725  0.1941  0.3106 -0.7369
   62SAPC  H15X 4973   0.171   1.985   8.623 -0.1049 -1.2959 -0.9112
   62SAPC  H15Y 4974   0.095   2.088   8.744 -0.1456  0.6246 -2.8523
   62SAPC  C316 4975   0.013   1.887   8.721  0.2303  0.0449 -0.6884
   62SAPC  H16X 4976  -0.054   1.898   8.810  0.6901 -0.5149 -0.2724
   62SAPC  H16Y 4977   0.062   1.788   8.724  0.1487  0.0188  0.7209
   62SAPC  C317 4978  -0.073   1.912   8.593 -0.3675  0.8978 -0.1882
   62SAPC  H17X 4979  -0.006   1.918   8.505 -0.4013  0.6045 -0.2353
   62SAPC  H17Y 4980  -0.121   2.011   8.584 -1.0296  0.9426  2.7361
   62SAPC  C318 4981  -0.174   1.796   8.591  0.5602  0.5680 -0.3443
   62SAPC  H18X 4982  -0.246   1.821   8.672  2.3501  0.9211  1.1874
   62SAPC  H18Y 4983  -0.133   1.696   8.616  0.7131  0.5344 -0.7270
   62SAPC  H18Z 4984  -0.225   1.805   8.493 -0.7821  2.7926  0.4787
   63SAPC     N 4985   0.256   5.825   5.812 -0.5196  0.0632  0.8188
   63SAPC   C12 4986   0.224   5.770   5.947 -0.4108  0.3653  0.0612
   63SAPC  H12A 4987   0.226   5.663   5.940  2.2654  0.4223 -1.5012
   63SAPC  H12B 4988   0.129   5.815   5.971 -0.5391  0.2233 -0.1825
   63SAPC   C13 4989   0.160   5.774   5.716 -0.3448 -0.2690  0.4121
   63SAPC  H13A 4990   0.061   5.813   5.738 -0.6494 -1.1916  0.7201
   63SAPC  H13B 4991   0.188   5.813   5.620 -0.5553 -2.3236 -0.5175
   63SAPC  H13C 4992   0.146   5.667   5.711 -0.9835 -0.2234  0.9819
   63SAPC   C14 4993   0.260   5.976   5.806 -0.1073  0.0817  0.1410
   63SAPC  H14A 4994   0.344   6.026   5.851  0.7981 -1.3212  0.0409
   63SAPC  H14B 4995   0.258   6.008   5.702  1.2880  2.2294  0.7048
   63SAPC  H14C 4996   0.177   6.035   5.842  0.2994  2.0517 -1.8608
   63SAPC   C15 4997   0.390   5.779   5.762 -0.9232  0.6481 -0.0499
   63SAPC  H15A 4998   0.398   5.779   5.654 -2.9572  2.0319 -0.2706
   63SAPC  H15B 4999   0.474   5.830   5.807 -0.1690  0.6409 -1.3988
   63SAPC  H15C 5000   0.401   5.679   5.799  0.1263  0.9346  0.4510
   63SAPC   C11 5001   0.324   5.807   6.058 -0.5305 -0.0938 -0.1819
   63SAPC  H11A 5002   0.271   5.783   6.152  0.9135  3.3713  1.7123
   63SAPC  H11B 5003   0.349   5.915   6.068 -5.6814  1.4547 -1.2505
   63SAPC     P 5004   0.488   5.599   6.105 -0.2677 -0.2245  0.1780
   63SAPC   O13 5005   0.401   5.498   6.037 -0.1726  0.0455  0.4625
   63SAPC   O14 5006   0.633   5.579   6.099 -0.4056  0.0056  0.3357
   63SAPC   O12 5007   0.450   5.741   6.046 -0.2120 -0.3280  0.5825
   63SAPC   O11 5008   0.432   5.623   6.256  0.1233  0.4140  0.3136
   63SAPC    C1 5009   0.485   5.735   6.335 -0.4557  0.3367  0.1874
   63SAPC    HA 5010   0.517   5.823   6.276  1.4148 -1.0337 -0.9809
   63SAPC    HB 5011   0.402   5.772   6.399  0.2881  0.8852  0.8358
   63SAPC    C2 5012   0.597   5.681   6.416 -0.5406  0.1295  0.5124
   63SAPC    HS 5013   0.677   5.646   6.348 -0.7001 -0.9915  0.8756
   63SAPC   O21 5014   0.548   5.567   6.484  0.1483  0.4339 -0.2840
   63SAPC   C21 5015   0.637   5.484   6.518  0.6579 -0.2566  0.2121
   63SAPC   O22 5016   0.751   5.485   6.481 -0.1768 -0.4964 -0.1091
   63SAPC   C22 5017   0.572   5.367   6.594  0.1251  0.3709  0.0582
   63SAPC   H2R 5018   0.495   5.404   6.665  1.2530  0.0159  1.4971
   63SAPC   H2S 5019   0.511   5.310   6.521 -1.5110 -0.5584  2.0469
   63SAPC    C3 5020   0.660   5.784   6.520  0.0439 -0.7402 -0.5011
   63SAPC    HX 5021   0.579   5.851   6.555 -0.2936 -2.2406  1.8400
   63SAPC    HY 5022   0.723   5.849   6.455 -1.2369  0.1767 -0.8666
   63SAPC   O31 5023   0.725   5.732   6.640 -0.5436  0.3044  0.3729
   63SAPC   C31 5024   0.857   5.747   6.643  0.3000 -0.6089  0.0605
   63SAPC   O32 5025   0.921   5.802   6.553 -0.0450 -0.0090 -0.2811
   63SAPC   C32 5026   0.912   5.683   6.773  0.6019 -0.0352 -0.8307
   63SAPC   H2X 5027   0.977   5.594   6.758  0.5831 -0.2375  0.2050
   63SAPC   H2Y 5028   0.827   5.648   6.836  1.7896 -0.0237  0.8351
   63SAPC   C23 5029   0.672   5.255   6.651 -0.7661  0.1991  0.4363
   63SAPC   H3R 5030   0.718   5.194   6.570 -0.8725  0.3468  0.2657
   63SAPC   H3S 5031   0.600   5.192   6.708 -1.6620  0.9526  0.1612
   63SAPC   C24 5032   0.772   5.327   6.737  0.3871  0.8560 -0.5517
   63SAPC   H4R 5033   0.731   5.407   6.803  2.5470  1.5918 -0.0357
   63SAPC   H4S 5034   0.845   5.380   6.671 -0.7975  1.8969 -1.0712
   63SAPC   C25 5035   0.854   5.232   6.813 -0.4367  0.3349 -0.2476
   63SAPC   H5R 5036   0.868   5.142   6.750 -0.8845  1.2533 -1.7037
   63SAPC   C26 5037   0.904   5.245   6.935  0.0872  0.0155 -0.6091
   63SAPC   H6R 5038   0.960   5.161   6.978  1.0808  0.4879 -0.9501
   63SAPC   C27 5039   0.889   5.365   7.028  1.1281 -0.0066 -0.5159
   63SAPC   H7R 5040   0.814   5.344   7.107  1.7259 -0.8285 -0.1533
   63SAPC   H7S 5041   0.847   5.446   6.965 -1.7371 -2.5845 -2.2307
   63SAPC   C28 5042   1.017   5.408   7.097 -0.0230  0.2768  0.2890
   63SAPC   H8R 5043   1.085   5.480   7.050  1.5816 -1.9174 -0.9475
   63SAPC   C29 5044   1.050   5.392   7.225 -0.1554  0.2062 -0.1500
   63SAPC   H9R 5045   1.149   5.432   7.252 -1.0418  1.3928  1.5032
   63SAPC  C210 5046   0.973   5.310   7.331  0.0189 -0.2384  0.7762
   63SAPC  H10R 5047   0.917   5.227   7.282  2.0074 -0.6317 -1.0005
   63SAPC  H10S 5048   0.906   5.375   7.392  1.5047  1.9057  0.2328
   63SAPC  C211 5049   1.066   5.240   7.419 -0.3982 -0.5933  0.0355
   63SAPC  H11R 5050   1.109   5.154   7.365 -2.5317 -0.9285 -1.2960
   63SAPC  C212 5051   1.085   5.243   7.550  0.0805 -0.7522  0.1804
   63SAPC  H12R 5052   1.151   5.167   7.594  1.9679  0.3597 -0.5980
   63SAPC  C213 5053   1.014   5.322   7.659 -0.4765  0.2267 -0.5614
   63SAPC  H13R 5054   0.907   5.309   7.632 -0.0208 -1.2682 -1.7972
   63SAPC  H13S 5055   1.035   5.429   7.638 -0.2275  0.0448 -1.2778
   63SAPC  C214 5056   1.039   5.277   7.810  0.4902  0.3660  0.2543
   63SAPC  H14R 5057   1.033   5.169   7.831  0.3398  0.2914 -0.1545
   63SAPC  C215 5058   1.076   5.364   7.908  0.5959 -0.6579 -0.5373
   63SAPC  H15R 5059   1.112   5.326   8.005 -0.7506  1.0016  0.6818
   63SAPC  C216 5060   1.090   5.517   7.884 -0.2844 -0.4229 -0.3123
   63SAPC  H16R 5061   0.997   5.553   7.835 -0.1831 -0.2933 -0.4104
   63SAPC  H16S 5062   1.175   5.527   7.812 -1.7391 -1.5905 -2.2975
   63SAPC  C217 5063   1.105   5.604   8.008 -0.2664 -0.6159 -0.8402
   63SAPC  H17R 5064   1.013   5.592   8.068 -0.5953  2.8954 -0.4318
   63SAPC  H17S 5065   1.106   5.711   7.978 -3.4048 -0.8753 -2.2774
   63SAPC  C218 5066   1.226   5.577   8.101  0.5224 -0.4516 -0.4952
   63SAPC  H18R 5067   1.319   5.574   8.040  1.6635 -1.1737  1.2181
   63SAPC  H18S 5068   1.216   5.473   8.140  0.0484 -1.4036 -2.9436
   63SAPC  C219 5069   1.239   5.675   8.206  0.2408  0.0850 -0.1489
   63SAPC  H19R 5070   1.154   5.667   8.277  0.2818  0.7578 -0.0186
   63SAPC  H19S 5071   1.236   5.780   8.168 -1.2028 -0.1208 -0.6900
   63SAPC  C220 5072   1.366   5.645   8.285 -1.0103 -0.0613  0.5093
   63SAPC  H20R 5073   1.367   5.535   8.299  0.0035 -0.0792  0.3351
   63SAPC  H20S 5074   1.356   5.685   8.389 -0.4885  0.8274  0.2288
   63SAPC  H20T 5075   1.456   5.690   8.239 -0.3402 -1.6982  0.1814
   63SAPC   C33 5076   1.007   5.777   6.856 -0.2910 -0.4156  0.7868
   63SAPC   H3X 5077   1.089   5.810   6.790  0.4664  0.0716  1.9374
   63SAPC   H3Y 5078   1.062   5.726   6.938 -2.2457 -1.6069  1.4233
   63SAPC   C34 5079   0.942   5.898   6.915  0.3172  0.2170  0.3291
   63SAPC   H4X 5080   0.889   5.954   6.836 -1.8226 -1.7603  0.2564
   63SAPC   H4Y 5081   1.027   5.957   6.955  0.8498 -0.3205  0.0198
   63SAPC   C35 5082   0.841   5.868   7.031  0.0573  0.5371  0.4270
   63SAPC   H5X 5083   0.759   5.816   6.977  2.2634 -1.9820 -0.6814
   63SAPC   H5Y 5084   0.810   5.970   7.061 -1.0739  1.4595 -3.3534
   63SAPC   C36 5085   0.894   5.787   7.142 -0.6383  0.1936 -0.2095
   63SAPC   H6X 5086   0.999   5.814   7.168  0.3901 -2.7288 -0.9401
   63SAPC   H6Y 5087   0.890   5.679   7.118 -0.4538 -0.0042  0.6199
   63SAPC   C37 5088   0.798   5.813   7.256  0.9666  0.7177 -0.2290
   63SAPC   H7X 5089   0.695   5.784   7.226  1.0238  0.9362 -0.6459
   63SAPC   H7Y 5090   0.793   5.922   7.278  1.9244  0.5271  1.0427
   63SAPC   C38 5091   0.845   5.739   7.377  0.3489  0.6199 -0.7271
   63SAPC   H8X 5092   0.904   5.806   7.443  0.7557 -1.0228  0.6331
   63SAPC   H8Y 5093   0.917   5.663   7.338  1.5147  2.5025 -2.4925
   63SAPC   C39 5094   0.727   5.685   7.453  0.4525  0.8330 -0.0292
   63SAPC   H9X 5095   0.671   5.608   7.396 -0.0238  1.2329 -0.1083
   63SAPC   H9Y 5096   0.664   5.777   7.462 -1.5395 -0.1196 -2.9142
   63SAPC  C310 5097   0.764   5.631   7.595  0.1391  0.2716 -0.0271
   63SAPC  H10X 5098   0.849   5.692   7.633  0.3505  0.8673 -1.3776
   63SAPC  H10Y 5099   0.807   5.531   7.573  2.0700  1.0630 -0.1113
   63SAPC  C311 5100   0.653   5.613   7.696  0.6026  0.3186 -0.4004
   63SAPC  H11X 5101   0.570   5.550   7.658 -0.0778  0.7139  0.4105
   63SAPC  H11Y 5102   0.611   5.712   7.721 -2.1898 -0.4147 -1.8066
   63SAPC  C312 5103   0.691   5.541   7.826  0.1290  0.1897  0.0512
   63SAPC  H12X 5104   0.769   5.612   7.861 -0.7399  0.5188  1.4273
   63SAPC  H12Y 5105   0.739   5.442   7.813  3.3203  1.6065  0.2364
   63SAPC  C313 5106   0.579   5.532   7.933 -0.3473 -0.1131 -0.2899
   63SAPC  H13X 5107   0.502   5.452   7.924 -0.4085 -0.0926  0.0254
   63SAPC  H13Y 5108   0.536   5.634   7.937  2.0118  0.9410 -0.3644
   63SAPC  C314 5109   0.651   5.515   8.070 -0.4660  0.2449  0.1508
   63SAPC  H14X 5110   0.597   5.558   8.157  1.3393 -0.7687  1.8554
   63SAPC  H14Y 5111   0.757   5.550   8.067  0.0069 -1.1519 -0.1859
   63SAPC  C315 5112   0.669   5.361   8.105  0.1630 -0.5862  0.7181
   63SAPC  H15X 5113   0.710   5.305   8.019  0.1114 -0.1072  0.3814
   63SAPC  H15Y 5114   0.576   5.323   8.152  0.5004  0.1108  2.0184
   63SAPC  C316 5115   0.784   5.338   8.212 -0.2026 -0.0365 -0.2199
   63SAPC  H16X 5116   0.868   5.409   8.191  0.9991 -0.1198  3.5926
   63SAPC  H16Y 5117   0.827   5.236   8.221  2.2781  0.8805 -0.6791
   63SAPC  C317 5118   0.740   5.388   8.354  0.0064  0.1299  1.2695
   63SAPC  H17X 5119   0.706   5.494   8.346  0.8752  0.3401  0.2448
   63SAPC  H17Y 5120   0.832   5.385   8.416  1.7776  1.1240 -1.1550
   63SAPC  C318 5121   0.639   5.296   8.414 -0.1374 -0.5841 -0.2125
   63SAPC  H18X 5122   0.688   5.199   8.437 -0.4357 -0.4167  1.1766
   63SAPC  H18Y 5123   0.557   5.279   8.341 -1.9144  4.6568  0.1866
   63SAPC  H18Z 5124   0.595   5.327   8.511  1.6185 -1.2382  0.8496
   64SAPC     N 5125   3.628   5.957   6.003  0.5512  0.3335  0.0566
   64SAPC   C12 5126   3.547   5.926   6.125 -0.8554  0.7271 -0.2659
   64SAPC  H12A 5127   3.594   5.844   6.177  2.4242  2.1453 -0.7839
   64SAPC  H12B 5128   3.449   5.886   6.104 -1.0826  1.9140 -1.6329
   64SAPC   C13 5129   3.767   6.004   6.041 -0.3615  0.6460  0.0953
   64SAPC  H13A 5130   3.784   6.109   6.059 -0.5800  0.3027  2.6691
   64SAPC  H13B 5131   3.805   5.965   6.135  0.4345  0.6967 -0.1999
   64SAPC  H13C 5132   3.829   5.969   5.961  0.0105  0.2066  0.5690
   64SAPC   C14 5133   3.652   5.836   5.924 -0.2888 -0.1600  0.1157
   64SAPC  H14A 5134   3.712   5.769   5.983  0.3605  0.1690 -0.1594
   64SAPC  H14B 5135   3.560   5.781   5.913 -0.7742  0.6599 -0.0398
   64SAPC  H14C 5136   3.697   5.851   5.827  2.2763 -2.9983  0.7291
   64SAPC   C15 5137   3.569   6.060   5.916 -0.0372 -0.7893  0.4798
   64SAPC  H15A 5138   3.564   6.159   5.958 -1.3497 -1.2605  1.5055
   64SAPC  H15B 5139   3.631   6.064   5.828  0.0695 -1.4154  0.5222
   64SAPC  H15C 5140   3.467   6.041   5.884 -0.2612 -1.3014  1.4469
   64SAPC   C11 5141   3.541   6.033   6.234  0.8021 -0.5084  0.3853
   64SAPC  H11A 5142   3.642   6.054   6.274 -0.3220  0.8092  2.7697
   64SAPC  H11B 5143   3.487   5.993   6.322  1.2957  1.5003  1.6678
   64SAPC     P 5144   3.325   6.168   6.151 -0.0950  0.0450 -0.2350
   64SAPC   O13 5145   3.310   6.201   6.010  0.3842  0.2269  0.1944
   64SAPC   O14 5146   3.261   6.037   6.186 -0.6507 -0.3389  0.4092
   64SAPC   O12 5147   3.479   6.155   6.188  0.2460 -0.7586 -0.2704
   64SAPC   O11 5148   3.262   6.281   6.239 -0.3437 -0.0123  0.7488
   64SAPC    C1 5149   3.363   6.359   6.311 -0.2191 -0.1466 -0.2513
   64SAPC    HA 5150   3.428   6.302   6.381  0.0132 -0.4017 -0.6739
   64SAPC    HB 5151   3.446   6.404   6.252  0.1136  0.5203  0.6991
   64SAPC    C2 5152   3.303   6.474   6.401 -0.1329 -0.1247 -0.1748
   64SAPC    HS 5153   3.373   6.525   6.471 -0.9436  0.3305  0.3103
   64SAPC   O21 5154   3.190   6.424   6.473 -0.0969  0.2882 -0.3230
   64SAPC   C21 5155   3.217   6.337   6.566  0.0240  0.0411  0.0915
   64SAPC   O22 5156   3.325   6.308   6.607  0.6273  0.6498 -0.0874
   64SAPC   C22 5157   3.082   6.284   6.622 -0.0423 -0.3059 -0.0335
   64SAPC   H2R 5158   3.002   6.307   6.548  0.9605  0.4716 -0.9022
   64SAPC   H2S 5159   3.090   6.174   6.633 -0.7509 -0.4667 -1.0323
   64SAPC    C3 5160   3.249   6.576   6.292  0.3905 -0.0534 -0.0056
   64SAPC    HX 5161   3.202   6.524   6.206  1.7190 -0.5350 -0.4642
   64SAPC    HY 5162   3.338   6.630   6.253  0.8317  1.1910  2.4911
   64SAPC   O31 5163   3.158   6.673   6.352 -0.4926  0.6677 -0.2347
   64SAPC   C31 5164   3.029   6.660   6.338 -0.4453  0.3766  0.5411
   64SAPC   O32 5165   2.975   6.565   6.281 -0.2031 -0.3129 -0.3776
   64SAPC   C32 5166   2.954   6.779   6.389 -0.8364 -0.1181  0.4062
   64SAPC   H2X 5167   2.913   6.829   6.299  0.8705  2.5373  0.9711
   64SAPC   H2Y 5168   3.029   6.852   6.428 -0.9252  0.6227 -0.7584
   64SAPC   C23 5169   3.059   6.348   6.757 -0.4281 -0.2388  0.1972
   64SAPC   H3R 5170   3.099   6.452   6.758  4.7370 -1.9200  0.1669
   64SAPC   H3S 5171   3.098   6.288   6.842 -4.3907 -1.3756  1.4360
   64SAPC   C24 5172   2.909   6.351   6.796 -0.0719  0.0623  0.7498
   64SAPC   H4R 5173   2.854   6.406   6.717  0.2038 -0.2850  0.3149
   64SAPC   H4S 5174   2.902   6.395   6.898 -0.0448 -0.8394  1.1439
   64SAPC   C25 5175   2.862   6.215   6.805  0.5758  0.1276 -0.1182
   64SAPC   H5R 5176   2.932   6.144   6.852  1.0990  0.4179 -0.4485
   64SAPC   C26 5177   2.740   6.166   6.769  0.1451 -0.5028 -0.1516
   64SAPC   H6R 5178   2.732   6.057   6.783 -1.7439 -0.6529 -1.9276
   64SAPC   C27 5179   2.625   6.239   6.702 -1.1586  0.1412 -0.2851
   64SAPC   H7R 5180   2.628   6.205   6.596 -0.7482 -0.6196 -0.0402
   64SAPC   H7S 5181   2.651   6.347   6.706  1.2953 -0.4066  0.4452
   64SAPC   C28 5182   2.485   6.232   6.749  0.2453 -0.1983 -0.5964
   64SAPC   H8R 5183   2.406   6.195   6.683 -1.4782  0.4225  1.0253
   64SAPC   C29 5184   2.442   6.253   6.874  0.1415 -0.0943  0.2070
   64SAPC   H9R 5185   2.335   6.243   6.896 -0.7102  1.9436 -2.5067
   64SAPC  C210 5186   2.526   6.294   6.988  0.1662 -0.6819 -0.7362
   64SAPC  H10R 5187   2.493   6.395   7.023  1.0500  0.0786 -2.0340
   64SAPC  H10S 5188   2.633   6.306   6.962  0.5427  0.3882  1.1247
   64SAPC  C211 5189   2.509   6.193   7.101  0.4559  0.3627  0.9010
   64SAPC  H11R 5190   2.577   6.107   7.090  0.7482  0.5455  1.2622
   64SAPC  C212 5191   2.433   6.205   7.215 -0.0974  0.0394 -0.2140
   64SAPC  H12R 5192   2.431   6.132   7.296 -0.7700  1.2330  0.8737
   64SAPC  C213 5193   2.346   6.325   7.254 -0.1269 -0.1083  0.4412
   64SAPC  H13R 5194   2.248   6.281   7.285 -0.6470 -0.5396 -1.6999
   64SAPC  H13S 5195   2.342   6.394   7.168  3.0115 -1.5071 -0.9548
   64SAPC  C214 5196   2.389   6.401   7.375 -0.0401 -0.3646  0.0630
   64SAPC  H14R 5197   2.444   6.492   7.346  0.3152 -0.9556 -1.2333
   64SAPC  C215 5198   2.389   6.365   7.508 -0.6424  0.1938  0.2343
   64SAPC  H15R 5199   2.423   6.443   7.577  0.7959 -0.0474 -0.1559
   64SAPC  C216 5200   2.346   6.237   7.568 -0.1829 -0.5196  0.0673
   64SAPC  H16R 5201   2.276   6.188   7.497  0.0804 -0.1204 -0.4781
   64SAPC  H16S 5202   2.295   6.259   7.664 -0.0809 -2.1535  0.5285
   64SAPC  C217 5203   2.471   6.144   7.591  0.3297  0.1689  0.0973
   64SAPC  H17R 5204   2.532   6.142   7.498  0.4940  2.2250  0.1208
   64SAPC  H17S 5205   2.432   6.042   7.611  0.2266 -0.3616 -2.4684
   64SAPC  C218 5206   2.575   6.187   7.707  0.4508  1.1585 -0.5906
   64SAPC  H18R 5207   2.532   6.191   7.809  0.4448  1.0830 -0.5899
   64SAPC  H18S 5208   2.607   6.284   7.665  0.2747  0.8685 -1.4138
   64SAPC  C219 5209   2.685   6.087   7.716 -0.3326 -0.4895  0.2466
   64SAPC  H19R 5210   2.722   6.071   7.612  0.5749  0.4967  0.4088
   64SAPC  H19S 5211   2.649   5.985   7.742 -0.7470 -0.1092  1.1794
   64SAPC  C220 5212   2.806   6.129   7.795  0.1762 -0.8567 -0.3523
   64SAPC  H20R 5213   2.829   6.236   7.776 -0.8319 -0.7309 -0.9172
   64SAPC  H20S 5214   2.901   6.079   7.765 -0.2337 -1.9192  0.0827
   64SAPC  H20T 5215   2.795   6.112   7.904  0.3011  3.0665  0.4047
   64SAPC   C33 5216   2.838   6.742   6.487  0.4784  0.4746  0.3835
   64SAPC   H3X 5217   2.771   6.658   6.457 -0.9251  0.6260  2.8477
   64SAPC   H3Y 5218   2.763   6.825   6.487  0.0300  0.0960  1.6311
   64SAPC   C34 5219   2.882   6.719   6.637 -0.5156 -0.2206 -0.5137
   64SAPC   H4X 5220   2.941   6.810   6.664  2.2521 -1.9508 -0.3452
   64SAPC   H4Y 5221   2.951   6.634   6.656  0.8021  0.6269 -1.3229
   64SAPC   C35 5222   2.768   6.710   6.737 -0.8407 -0.7507 -0.6861
   64SAPC   H5X 5223   2.705   6.620   6.728  0.2761 -1.5981 -0.3467
   64SAPC   H5Y 5224   2.697   6.795   6.734 -1.7911 -1.2980  2.2873
   64SAPC   C36 5225   2.830   6.697   6.881 -0.0924 -0.2904 -0.4140
   64SAPC   H6X 5226   2.883   6.794   6.892 -0.4257 -0.3036  1.7626
   64SAPC   H6Y 5227   2.901   6.611   6.873 -0.3092 -0.3588 -1.9080
   64SAPC   C37 5228   2.734   6.680   6.994  0.8856 -0.0380  0.2378
   64SAPC   H7X 5229   2.666   6.596   6.972  0.6035  0.4432 -0.7876
   64SAPC   H7Y 5230   2.667   6.768   7.002  0.5697  0.0594 -2.5699
   64SAPC   C38 5231   2.806   6.655   7.135 -0.0286  0.3890  0.2480
   64SAPC   H8X 5232   2.836   6.752   7.180 -0.8464  1.1543 -0.7888
   64SAPC   H8Y 5233   2.886   6.580   7.116 -1.9701 -2.1742  1.5361
   64SAPC   C39 5234   2.702   6.596   7.237  0.1894 -0.0812 -0.7111
   64SAPC   H9X 5235   2.677   6.493   7.204  2.7946  0.1292 -3.8096
   64SAPC   H9Y 5236   2.618   6.669   7.232  0.2533 -0.1106 -2.7118
   64SAPC  C310 5237   2.749   6.592   7.384  0.1225 -0.6768 -0.5292
   64SAPC  H10X 5238   2.848   6.642   7.374  0.1965 -0.8482 -0.6715
   64SAPC  H10Y 5239   2.770   6.493   7.430  0.3007  0.2573  1.5159
   64SAPC  C311 5240   2.658   6.680   7.473  0.4728 -0.3311  0.3172
   64SAPC  H11X 5241   2.553   6.646   7.460 -0.3122  1.5066  1.6016
   64SAPC  H11Y 5242   2.673   6.786   7.444  0.1479 -0.5706 -0.7691
   64SAPC  C312 5243   2.706   6.669   7.616 -0.5083  0.2192 -0.1288
   64SAPC  H12X 5244   2.813   6.701   7.618  0.2417 -2.0826 -0.5161
   64SAPC  H12Y 5245   2.692   6.561   7.641  1.4474 -0.1584 -0.4999
   64SAPC  C313 5246   2.634   6.766   7.709  0.2695 -0.1210 -0.3867
   64SAPC  H13X 5247   2.531   6.726   7.717  0.2595  0.2946  3.5280
   64SAPC  H13Y 5248   2.635   6.866   7.661 -0.7719  0.0253 -0.1348
   64SAPC  C314 5249   2.676   6.779   7.858 -0.3607 -0.0374  0.7717
   64SAPC  H14X 5250   2.775   6.828   7.851 -0.4802  0.0267 -0.9066
   64SAPC  H14Y 5251   2.681   6.674   7.894  0.2048  0.5388  2.4744
   64SAPC  C315 5252   2.565   6.849   7.938 -0.2894  0.5429  0.0160
   64SAPC  H15X 5253   2.473   6.787   7.940 -0.4124  0.7373  0.4291
   64SAPC  H15Y 5254   2.546   6.939   7.875  1.9855  0.1006 -1.4348
   64SAPC  C316 5255   2.601   6.900   8.075  0.3711  0.2741  0.0019
   64SAPC  H16X 5256   2.528   6.983   8.084 -0.9180 -0.6625 -1.2729
   64SAPC  H16Y 5257   2.706   6.933   8.065  1.4582 -2.9366 -0.3694
   64SAPC  C317 5258   2.585   6.792   8.181  0.2801 -0.3589 -0.2396
   64SAPC  H17X 5259   2.659   6.710   8.163  0.5771 -0.1403 -0.0306
   64SAPC  H17Y 5260   2.479   6.761   8.182  0.5042 -1.3412 -2.1892
   64SAPC  C318 5261   2.634   6.850   8.312  0.4822  0.5480  0.5271
   64SAPC  H18X 5262   2.585   6.950   8.315 -1.2196 -0.2442 -0.3329
   64SAPC  H18Y 5263   2.743   6.876   8.309  0.8075 -0.8830 -1.2779
   64SAPC  H18Z 5264   2.613   6.780   8.396  0.1438  1.0521  0.8730
   65SAPC     N 5265   1.281   1.677   5.956 -0.1396  0.5376 -0.2374
   65SAPC   C12 5266   1.234   1.588   5.848  0.1612 -0.3393 -0.1346
   65SAPC  H12A 5267   1.308   1.574   5.770 -1.8378  0.1500 -2.2363
   65SAPC  H12B 5268   1.147   1.639   5.809  2.7020  3.5697 -1.1424
   65SAPC   C13 5269   1.408   1.626   6.017  0.8970 -0.3196 -0.2985
   65SAPC  H13A 5270   1.485   1.612   5.943  1.1066  1.5538 -0.4908
   65SAPC  H13B 5271   1.444   1.702   6.085 -1.8612  1.9374 -1.1443
   65SAPC  H13C 5272   1.382   1.538   6.074 -2.2937  2.6340  3.4157
   65SAPC   C14 5273   1.307   1.810   5.894  0.3000 -1.1928 -0.1894
   65SAPC  H14A 5274   1.232   1.834   5.820 -2.9306 -2.4620  2.4112
   65SAPC  H14B 5275   1.320   1.889   5.967  0.1880  0.4536 -1.8528
   65SAPC  H14C 5276   1.395   1.803   5.832  2.2778 -0.3648  2.3636
   65SAPC   C15 5277   1.173   1.703   6.056  0.1040 -0.6496  0.4954
   65SAPC  H15A 5278   1.155   1.618   6.121  0.9005 -1.5153 -0.3836
   65SAPC  H15B 5279   1.214   1.777   6.124  0.0874 -0.9997  0.8942
   65SAPC  H15C 5280   1.082   1.736   6.008  0.4469  2.2667  1.6299
   65SAPC   C11 5281   1.189   1.438   5.883  0.3187  0.2886 -0.3285
   65SAPC  H11A 5282   1.145   1.398   5.789  1.7210 -1.6935 -0.2018
   65SAPC  H11B 5283   1.118   1.456   5.967 -0.1037  2.2864 -1.0688
   65SAPC     P 5284   1.267   1.209   5.985  0.1484  0.2339  0.0629
   65SAPC   O13 5285   1.139   1.145   5.946  0.5999  0.7493 -0.5085
   65SAPC   O14 5286   1.390   1.124   5.988 -0.3079 -0.1349 -0.4830
   65SAPC   O12 5287   1.297   1.344   5.916  0.0840 -1.4450 -0.3998
   65SAPC   O11 5288   1.251   1.263   6.138 -0.0509 -0.0984 -0.0518
   65SAPC    C1 5289   1.352   1.241   6.235  0.4123 -0.6574 -1.1304
   65SAPC    HA 5290   1.454   1.232   6.192  0.2885 -1.6988 -1.2382
   65SAPC    HB 5291   1.343   1.328   6.303 -1.8806 -0.3510 -1.7617
   65SAPC    C2 5292   1.326   1.118   6.328  0.1073 -0.0108 -0.3500
   65SAPC    HS 5293   1.316   1.035   6.254 -1.3048  0.4016 -0.6550
   65SAPC   O21 5294   1.205   1.149   6.404 -0.3923  0.3453 -0.2300
   65SAPC   C21 5295   1.096   1.086   6.361 -0.0249 -0.2698  0.8014
   65SAPC   O22 5296   1.097   0.993   6.282 -0.4776  0.2725 -0.0072
   65SAPC   C22 5297   0.974   1.151   6.435 -0.0159  0.4969  0.2100
   65SAPC   H2R 5298   1.002   1.252   6.470 -0.4005  0.4767  0.5862
   65SAPC   H2S 5299   0.899   1.167   6.355  0.3667  1.6465  0.0749
   65SAPC    C3 5300   1.441   1.106   6.432 -0.4350  0.1456  0.6106
   65SAPC    HX 5301   1.499   1.201   6.441  2.6558 -1.5118 -0.5438
   65SAPC    HY 5302   1.521   1.039   6.395 -0.0975  0.6548  0.3939
   65SAPC   O31 5303   1.406   1.069   6.568 -0.3489  1.2878  0.3090
   65SAPC   C31 5304   1.373   0.943   6.591 -0.2822  0.6570  0.2405
   65SAPC   O32 5305   1.369   0.855   6.504  0.0691 -0.6598 -0.4561
   65SAPC   C32 5306   1.348   0.921   6.735  0.4647  0.4795 -0.3795
   65SAPC   H2X 5307   1.241   0.894   6.747  0.9644 -0.6526  2.2274
   65SAPC   H2Y 5308   1.362   1.016   6.791  2.0602  0.2810 -0.3903
   65SAPC   C23 5309   0.922   1.073   6.562  0.2513 -0.6692 -0.6077
   65SAPC   H3R 5310   0.895   0.965   6.553  2.1634 -1.2052 -0.3959
   65SAPC   H3S 5311   0.826   1.113   6.600  1.2168  0.6567  0.5191
   65SAPC   C24 5312   1.022   1.084   6.680 -0.1686 -1.0523 -0.1823
   65SAPC   H4R 5313   1.121   1.058   6.639  0.7063 -0.0205  1.1924
   65SAPC   H4S 5314   1.002   1.003   6.752  2.8890 -2.5153 -0.8545
   65SAPC   C25 5315   1.038   1.223   6.748 -0.3084  0.2072 -0.4986
   65SAPC   H5R 5316   1.037   1.311   6.682  1.6178  0.7190  0.0976
   65SAPC   C26 5317   1.043   1.257   6.879 -0.1062  0.3796  0.5181
   65SAPC   H6R 5318   1.053   1.362   6.908 -0.2411 -0.0134  2.1249
   65SAPC   C27 5319   1.044   1.166   6.992  0.3026  0.0055  0.0838
   65SAPC   H7R 5320   1.147   1.171   7.034  0.1723  0.9701  0.2976
   65SAPC   H7S 5321   1.038   1.062   6.951  1.8357  0.2022 -0.7137
   65SAPC   C28 5322   0.932   1.175   7.094  1.4338 -0.5102 -0.2038
   65SAPC   H8R 5323   0.828   1.154   7.065  0.1008  1.5829  2.5597
   65SAPC   C29 5324   0.955   1.214   7.223  0.1105  0.2895  0.2447
   65SAPC   H9R 5325   0.867   1.219   7.288 -0.4856 -1.2924 -0.3791
   65SAPC  C210 5326   1.088   1.238   7.281  0.3107 -1.0436  0.1691
   65SAPC  H10R 5327   1.159   1.161   7.245  0.5186 -1.3594  1.2377
   65SAPC  H10S 5328   1.073   1.217   7.389 -0.4520  2.5746  0.9329
   65SAPC  C211 5329   1.137   1.379   7.264 -0.6875  0.0898  0.4442
   65SAPC  H11R 5330   1.130   1.422   7.163 -0.8587  0.9109  0.8016
   65SAPC  C212 5331   1.189   1.457   7.358 -0.7454  0.2323 -0.4248
   65SAPC  H12R 5332   1.224   1.560   7.339  1.2000  0.0526  1.7637
   65SAPC  C213 5333   1.207   1.411   7.502  0.1673 -0.2642 -0.4740
   65SAPC  H13R 5334   1.286   1.334   7.508  1.4438  1.0743  0.8039
   65SAPC  H13S 5335   1.115   1.358   7.534  1.8059 -2.8529  0.2899
   65SAPC  C214 5336   1.245   1.532   7.588  0.1573 -0.1314  0.1865
   65SAPC  H14R 5337   1.307   1.611   7.546 -0.0347  1.2285  2.2847
   65SAPC  C215 5338   1.185   1.555   7.706 -0.9040 -0.1786 -0.3744
   65SAPC  H15R 5339   1.224   1.630   7.776 -0.0338  0.6480 -1.7080
   65SAPC  C216 5340   1.076   1.470   7.772 -0.6458 -0.0448  0.2380
   65SAPC  H16R 5341   1.107   1.365   7.789  0.2480  0.4203  1.6329
   65SAPC  H16S 5342   0.989   1.473   7.704  0.4177  1.2856 -1.1448
   65SAPC  C217 5343   1.029   1.513   7.911  0.1452 -0.0183  0.0817
   65SAPC  H17R 5344   1.111   1.486   7.981 -0.0951 -0.8966  0.0279
   65SAPC  H17S 5345   0.941   1.451   7.940  0.7854 -0.4948  1.0789
   65SAPC  C218 5346   0.979   1.655   7.927  0.3954  0.2140  0.3332
   65SAPC  H18R 5347   0.885   1.672   7.869  1.1543 -1.2761 -1.4299
   65SAPC  H18S 5348   1.042   1.725   7.868  0.5942 -0.5124 -0.3423
   65SAPC  C219 5349   0.955   1.694   8.074 -0.2921 -0.5198 -0.8896
   65SAPC  H19R 5350   0.881   1.624   8.118 -0.9245  1.8185  2.1257
   65SAPC  H19S 5351   0.922   1.800   8.085 -0.7477 -0.8209  1.0971
   65SAPC  C220 5352   1.091   1.677   8.153 -0.0877  0.0458 -0.6703
   65SAPC  H20R 5353   1.117   1.569   8.158  1.2726  0.2826 -1.8683
   65SAPC  H20S 5354   1.068   1.710   8.257 -0.9909  0.9703 -1.1504
   65SAPC  H20T 5355   1.177   1.745   8.133  0.8947 -0.3758  1.7632
   65SAPC   C33 5356   1.434   0.810   6.795  0.5762 -0.4691  0.1407
   65SAPC   H3X 5357   1.543   0.831   6.786  0.4310  0.7564  0.8945
   65SAPC   H3Y 5358   1.429   0.720   6.731 -0.8050  0.7381 -1.5642
   65SAPC   C34 5359   1.401   0.789   6.942  0.4650  0.2133  0.1872
   65SAPC   H4X 5360   1.463   0.712   6.992 -1.4569 -0.7664  1.1816
   65SAPC   H4Y 5361   1.299   0.743   6.943 -0.9256  2.5937 -4.6165
   65SAPC   C35 5362   1.403   0.917   7.028  0.6452  0.4653  0.2651
   65SAPC   H5X 5363   1.300   0.951   7.052 -0.3411 -1.7248 -0.5761
   65SAPC   H5Y 5364   1.454   1.000   6.976 -1.7577 -0.0510 -3.2763
   65SAPC   C36 5365   1.475   0.893   7.159  0.3261 -0.2773 -0.1112
   65SAPC   H6X 5366   1.582   0.875   7.135  1.0805  1.7003  1.5334
   65SAPC   H6Y 5367   1.442   0.807   7.222 -0.0461  0.0786  0.1872
   65SAPC   C37 5368   1.459   1.015   7.255  0.0020 -0.4015  0.2332
   65SAPC   H7X 5369   1.349   1.022   7.267  0.0076 -0.1147  0.1353
   65SAPC   H7Y 5370   1.495   1.106   7.201 -0.7929 -1.4411 -2.2055
   65SAPC   C38 5371   1.523   0.995   7.392  1.4072 -0.0158  0.7442
   65SAPC   H8X 5372   1.631   1.019   7.388  1.2425  0.6615  0.1209
   65SAPC   H8Y 5373   1.510   0.888   7.420  2.0047  0.5959  3.6210
   65SAPC   C39 5374   1.439   1.084   7.481 -0.1856 -0.0973 -0.9530
   65SAPC   H9X 5375   1.333   1.053   7.485 -1.2251  2.9361 -2.3081
   65SAPC   H9Y 5376   1.443   1.187   7.440 -1.9532  0.4973  0.2308
   65SAPC  C310 5377   1.487   1.067   7.627  0.2103 -0.5852  0.0807
   65SAPC  H10X 5378   1.596   1.085   7.616  0.4999 -2.9449 -1.6837
   65SAPC  H10Y 5379   1.484   0.959   7.653 -1.3666 -1.0867 -1.9441
   65SAPC  C311 5380   1.419   1.160   7.729 -0.3678 -0.1814  0.6133
   65SAPC  H11X 5381   1.309   1.144   7.736 -0.3068 -0.3390  1.2450
   65SAPC  H11Y 5382   1.435   1.262   7.688  2.0465  0.2299  2.3415
   65SAPC  C312 5383   1.481   1.159   7.873 -0.1160 -0.0561  0.1151
   65SAPC  H12X 5384   1.485   1.056   7.915  0.1467 -0.2265 -0.3182
   65SAPC  H12Y 5385   1.419   1.222   7.940  1.9071  1.1401  0.9727
   65SAPC  C313 5386   1.620   1.217   7.893 -0.0043  0.4650 -0.3172
   65SAPC  H13X 5387   1.634   1.321   7.856 -2.3759  0.5014 -1.2292
   65SAPC  H13Y 5388   1.697   1.165   7.832  0.5996  1.5533 -0.4942
   65SAPC  C314 5389   1.662   1.213   8.045 -0.5738 -0.4146  0.2847
   65SAPC  H14X 5390   1.772   1.205   8.057 -0.6170 -1.3350  0.1569
   65SAPC  H14Y 5391   1.614   1.141   8.114 -0.0283  0.5166  1.6886
   65SAPC  C315 5392   1.627   1.356   8.113 -0.2340  0.0661 -1.1844
   65SAPC  H15X 5393   1.519   1.375   8.094 -0.9737 -0.2155  2.1751
   65SAPC  H15Y 5394   1.685   1.436   8.063  0.6481  0.8529  0.9997
   65SAPC  C316 5395   1.665   1.371   8.260 -0.6160 -0.2731 -0.6231
   65SAPC  H16X 5396   1.776   1.369   8.263 -0.6216  0.3080  0.8605
   65SAPC  H16Y 5397   1.616   1.291   8.319 -1.5473  0.8753  0.2213
   65SAPC  C317 5398   1.619   1.510   8.324 -0.3226  0.5699 -0.2750
   65SAPC  H17X 5399   1.508   1.515   8.323 -0.2912  1.9117  0.7073
   65SAPC  H17Y 5400   1.667   1.585   8.257  2.2303 -0.7100  0.0047
   65SAPC  C318 5401   1.658   1.533   8.467 -0.3296 -0.0799 -0.8830
   65SAPC  H18X 5402   1.622   1.634   8.493  1.5811  0.5604 -0.5561
   65SAPC  H18Y 5403   1.765   1.502   8.475 -0.5221 -1.4585 -2.8338
   65SAPC  H18Z 5404   1.603   1.461   8.532 -0.5732  1.1551  0.3105
   66SAPC     N 5405   2.653   1.665   6.190 -0.3448  0.5407  0.2063
   66SAPC   C12 5406   2.533   1.572   6.168  0.2131 -0.4010 -0.1275
   66SAPC  H12A 5407   2.441   1.624   6.191 -0.5959 -1.3792 -1.0244
   66SAPC  H12B 5408   2.529   1.503   6.251 -0.9143  3.4494  3.3830
   66SAPC   C13 5409   2.652   1.777   6.091 -0.8643  0.8119  0.6144
   66SAPC  H13A 5410   2.554   1.819   6.079 -0.9959  0.6206  1.0317
   66SAPC  H13B 5411   2.722   1.856   6.117 -0.0802  0.5195 -0.5277
   66SAPC  H13C 5412   2.694   1.746   5.996  1.7354  0.1003  1.8958
   66SAPC   C14 5413   2.658   1.724   6.329  0.4050  0.3910  1.0728
   66SAPC  H14A 5414   2.755   1.770   6.346  1.0736 -0.4424 -0.3345
   66SAPC  H14B 5415   2.577   1.793   6.348  0.6271  0.9142  0.1514
   66SAPC  H14C 5416   2.661   1.651   6.408 -1.0403  0.0955  0.8750
   66SAPC   C15 5417   2.789   1.601   6.173 -0.0638 -0.1294  0.2082
   66SAPC  H15A 5418   2.816   1.582   6.070 -0.0377 -2.0256  0.5333
   66SAPC  H15B 5419   2.870   1.659   6.217  0.3943 -0.6924  0.1153
   66SAPC  H15C 5420   2.790   1.502   6.215 -0.0559  0.4019  1.5114
   66SAPC   C11 5421   2.524   1.503   6.031  0.0868 -0.5377  0.4461
   66SAPC  H11A 5422   2.524   1.577   5.948 -1.1095  0.0869  0.9933
   66SAPC  H11B 5423   2.427   1.450   6.025 -1.4491  1.5328  3.9113
   66SAPC     P 5424   2.624   1.273   6.078  0.2175 -0.1779 -0.1976
   66SAPC   O13 5425   2.496   1.266   6.162 -0.1108 -0.3121 -0.0800
   66SAPC   O14 5426   2.634   1.168   5.977  0.1331 -0.0302 -0.2882
   66SAPC   O12 5427   2.633   1.410   6.010 -0.0316 -0.6215 -0.3414
   66SAPC   O11 5428   2.744   1.284   6.184 -0.2776 -0.2238  0.2294
   66SAPC    C1 5429   2.771   1.171   6.273  0.1382 -0.1837 -0.6763
   66SAPC    HA 5430   2.723   1.075   6.247 -1.9845  0.5591  0.2732
   66SAPC    HB 5431   2.878   1.150   6.294  0.3084  3.1036  2.9022
   66SAPC    C2 5432   2.716   1.225   6.409  0.4028  0.2807  0.4833
   66SAPC    HS 5433   2.612   1.257   6.383  0.6960  0.3850 -0.6025
   66SAPC   O21 5434   2.810   1.314   6.459 -0.0012 -0.1405 -0.3771
   66SAPC   C21 5435   2.758   1.422   6.500  0.3342  0.2439  0.5908
   66SAPC   O22 5436   2.646   1.457   6.480  0.4779 -0.3172 -0.1678
   66SAPC   C22 5437   2.872   1.505   6.567  0.1431 -0.7184 -0.6945
   66SAPC   H2R 5438   2.961   1.495   6.502 -0.4090  0.9685 -1.7772
   66SAPC   H2S 5439   2.831   1.607   6.550 -1.2171 -0.1705  4.2489
   66SAPC    C3 5440   2.704   1.113   6.514 -0.5354  0.5908  0.1615
   66SAPC    HX 5441   2.807   1.078   6.540  0.5428  3.2173 -0.1818
   66SAPC    HY 5442   2.644   1.031   6.472  0.6308  0.0034 -0.4151
   66SAPC   O31 5443   2.652   1.155   6.642 -0.0434  0.4286  1.0050
   66SAPC   C31 5444   2.519   1.165   6.641 -0.1308  0.4258  0.0292
   66SAPC   O32 5445   2.450   1.123   6.552  0.1576 -0.3377 -0.1082
   66SAPC   C32 5446   2.477   1.220   6.777  0.2400 -0.3011 -0.9199
   66SAPC   H2X 5447   2.368   1.204   6.792 -0.2309 -0.0206 -3.6239
   66SAPC   H2Y 5448   2.498   1.329   6.774  1.3044 -0.5080 -1.4069
   66SAPC   C23 5449   2.888   1.473   6.713 -0.5982  0.3497 -0.4706
   66SAPC   H3R 5450   2.966   1.540   6.755  2.3163 -0.9724 -3.3525
   66SAPC   H3S 5451   2.923   1.372   6.740  1.6659  1.4257  0.9591
   66SAPC   C24 5452   2.765   1.485   6.806 -0.6168 -0.6698 -0.1016
   66SAPC   H4R 5453   2.795   1.451   6.907  1.3596 -1.3302 -0.8704
   66SAPC   H4S 5454   2.693   1.409   6.767 -1.3367 -0.0283 -0.0550
   66SAPC   C25 5455   2.696   1.621   6.792  0.2914 -0.4443 -0.0587
   66SAPC   H5R 5456   2.647   1.637   6.695 -1.6442  3.4354  1.3369
   66SAPC   C26 5457   2.688   1.720   6.881 -0.9689 -0.6775  0.4248
   66SAPC   H6R 5458   2.624   1.803   6.847  1.4026  0.8212 -0.6581
   66SAPC   C27 5459   2.769   1.735   7.012  0.3873 -0.2834  0.1455
   66SAPC   H7R 5460   2.831   1.827   7.002  2.0354 -1.1438  1.7553
   66SAPC   H7S 5461   2.848   1.662   7.040 -0.4408 -1.8219 -1.3541
   66SAPC   C28 5462   2.670   1.753   7.126 -0.3310 -0.0604  0.2710
   66SAPC   H8R 5463   2.590   1.823   7.097 -1.6926 -1.8851 -0.6125
   66SAPC   C29 5464   2.668   1.699   7.250 -0.4966 -0.7675  0.5443
   66SAPC   H9R 5465   2.584   1.718   7.319  0.0702  0.6029  0.8876
   66SAPC  C210 5466   2.767   1.604   7.309 -0.2630 -0.1866  0.5796
   66SAPC  H10R 5467   2.869   1.642   7.285 -0.0916  0.5723  2.3086
   66SAPC  H10S 5468   2.744   1.502   7.271  0.4245 -0.5397  1.0791
   66SAPC  C211 5469   2.740   1.591   7.458 -0.3860 -0.2284  0.3247
   66SAPC  H11R 5470   2.639   1.560   7.489 -0.0545  0.0490  1.7572
   66SAPC  C212 5471   2.818   1.604   7.574  0.7898  0.2234  0.6024
   66SAPC  H12R 5472   2.774   1.584   7.673  0.8626  0.4766  0.6873
   66SAPC  C213 5473   2.963   1.652   7.571  0.6272 -0.2614  0.2191
   66SAPC  H13R 5474   3.004   1.671   7.469 -0.1701 -0.7859 -0.2048
   66SAPC  H13S 5475   3.021   1.565   7.608 -1.7769 -2.2380 -0.3702
   66SAPC  C214 5476   2.998   1.776   7.647 -0.0706  0.0131 -0.7598
   66SAPC  H14R 5477   2.988   1.872   7.593 -2.8646  0.7500  0.8811
   66SAPC  C215 5478   3.050   1.785   7.774 -0.6794 -0.2933  0.2254
   66SAPC  H15R 5479   3.072   1.886   7.811 -2.6369  0.2710 -0.0648
   66SAPC  C216 5480   3.072   1.668   7.869 -0.4537  0.1875  0.5664
   66SAPC  H16R 5481   3.177   1.636   7.883 -0.4836 -0.2167 -0.0790
   66SAPC  H16S 5482   3.014   1.579   7.834  0.1459  0.6677 -1.7741
   66SAPC  C217 5483   3.022   1.706   8.011  0.9431  0.4406  0.1768
   66SAPC  H17R 5484   3.025   1.612   8.069  1.4860 -0.2138 -0.8833
   66SAPC  H17S 5485   2.914   1.729   7.996  0.6540 -0.4928  0.7423
   66SAPC  C218 5486   3.095   1.809   8.091 -0.2837  1.1470  0.3507
   66SAPC  H18R 5487   3.082   1.913   8.054 -2.0582  0.5253 -0.9138
   66SAPC  H18S 5488   3.205   1.795   8.083 -0.4596 -0.6681  0.7044
   66SAPC  C219 5489   3.066   1.817   8.246  0.0152  0.3002 -0.9537
   66SAPC  H19R 5490   3.104   1.726   8.298 -0.1155 -0.9254 -2.9202
   66SAPC  H19S 5491   2.956   1.806   8.257 -0.0583  0.5936 -1.3592
   66SAPC  C220 5492   3.107   1.946   8.313  0.1430 -0.4312 -0.4045
   66SAPC  H20R 5493   3.091   1.946   8.423 -2.5538 -1.1120 -0.7489
   66SAPC  H20S 5494   3.068   2.038   8.265  0.9968 -0.3907 -1.0525
   66SAPC  H20T 5495   3.214   1.971   8.296  0.2685 -0.6068  0.1166
   66SAPC   C33 5496   2.561   1.157   6.893  0.2922  0.2970  0.0148
   66SAPC   H3X 5497   2.667   1.190   6.894  0.6652 -0.8599  0.0042
   66SAPC   H3Y 5498   2.557   1.046   6.896 -1.8769  0.3557  1.4544
   66SAPC   C34 5499   2.507   1.219   7.025  0.3732  0.7280  0.0722
   66SAPC   H4X 5500   2.400   1.207   7.050  0.6976  1.1491  1.7730
   66SAPC   H4Y 5501   2.519   1.328   7.004  1.2015  0.6589  0.1756
   66SAPC   C35 5502   2.584   1.184   7.149 -0.3266  0.5271 -0.0101
   66SAPC   H5X 5503   2.690   1.218   7.138  0.0291 -0.1895  1.1149
   66SAPC   H5Y 5504   2.598   1.075   7.167 -0.5210  0.6491  0.8929
   66SAPC   C36 5505   2.521   1.244   7.271  0.2050 -0.3201  0.0258
   66SAPC   H6X 5506   2.419   1.201   7.283  0.2018  0.4261  4.5178
   66SAPC   H6Y 5507   2.516   1.355   7.278 -0.1856 -0.4260  2.4835
   66SAPC   C37 5508   2.597   1.207   7.400  0.0243 -0.5000  0.4355
   66SAPC   H7X 5509   2.702   1.244   7.398 -0.7999  1.9864 -0.0820
   66SAPC   H7Y 5510   2.595   1.097   7.419  1.9873 -0.7096 -0.3036
   66SAPC   C38 5511   2.532   1.265   7.522  0.0349 -0.1579  0.8016
   66SAPC   H8X 5512   2.425   1.235   7.534 -0.4756  1.4183  0.4115
   66SAPC   H8Y 5513   2.537   1.376   7.533  1.6139 -0.0522 -0.6295
   66SAPC   C39 5514   2.585   1.216   7.655  0.2357 -0.5661 -0.0405
   66SAPC   H9X 5515   2.694   1.217   7.639  0.2035  2.3708 -0.5959
   66SAPC   H9Y 5516   2.558   1.110   7.679 -0.0725 -0.4239  0.2520
   66SAPC  C310 5517   2.542   1.306   7.772  0.0798  0.0790  0.7972
   66SAPC  H10X 5518   2.435   1.332   7.763  0.0447 -0.5903 -1.3316
   66SAPC  H10Y 5519   2.606   1.396   7.760  2.7624 -1.9302 -1.4628
   66SAPC  C311 5520   2.551   1.257   7.914 -0.2218  0.2208  0.1168
   66SAPC  H11X 5521   2.655   1.224   7.932 -0.7859 -1.3180  0.7672
   66SAPC  H11Y 5522   2.485   1.167   7.917  0.6968 -0.6197 -2.1645
   66SAPC  C312 5523   2.493   1.363   8.006  0.0335  0.0690 -0.1060
   66SAPC  H12X 5524   2.471   1.313   8.103  2.9282 -1.0443  0.0673
   66SAPC  H12Y 5525   2.409   1.420   7.961  2.3368  1.0206 -3.6547
   66SAPC  C313 5526   2.601   1.465   8.049 -0.2105 -0.1877  0.3509
   66SAPC  H13X 5527   2.626   1.518   7.954 -1.2671 -0.9346 -0.3620
   66SAPC  H13Y 5528   2.696   1.413   8.077  0.5351  1.1255  0.3203
   66SAPC  C314 5529   2.542   1.544   8.163  0.0027  0.5822 -0.0450
   66SAPC  H14X 5530   2.535   1.483   8.255 -1.7332  1.2471  0.3166
   66SAPC  H14Y 5531   2.442   1.579   8.128 -0.5911 -1.2054 -0.2560
   66SAPC  C315 5532   2.629   1.661   8.189 -0.8204 -0.9375 -0.0149
   66SAPC  H15X 5533   2.632   1.735   8.106 -2.1777 -0.7239  0.1035
   66SAPC  H15Y 5534   2.735   1.636   8.209 -0.1590  2.3845  1.1665
   66SAPC  C316 5535   2.587   1.735   8.328  0.1464 -0.1458  0.0136
   66SAPC  H16X 5536   2.555   1.659   8.402  0.4022  0.5850  0.9012
   66SAPC  H16Y 5537   2.509   1.813   8.312 -0.4736 -1.2547 -2.8682
   66SAPC  C317 5538   2.706   1.807   8.388 -0.0754  0.1218  0.6510
   66SAPC  H17X 5539   2.676   1.893   8.452 -0.4547  0.5702 -0.1072
   66SAPC  H17Y 5540   2.770   1.851   8.309  0.5467 -0.6491  0.7138
   66SAPC  C318 5541   2.795   1.711   8.465  0.2940  0.2890 -0.2795
   66SAPC  H18X 5542   2.732   1.636   8.517  1.4327 -1.0123 -0.7189
   66SAPC  H18Y 5543   2.869   1.767   8.527 -0.4338  1.9901 -0.8747
   66SAPC  H18Z 5544   2.857   1.645   8.401  1.9394  1.5623 -0.0524
   67SAPC     N 5545   3.952   2.729   6.270  0.2079  0.0146 -0.2582
   67SAPC   C12 5546   3.835   2.645   6.218 -0.1622  0.6904  0.6724
   67SAPC  H12A 5547   3.860   2.545   6.250  1.9115  0.5126 -1.2344
   67SAPC  H12B 5548   3.834   2.646   6.110  1.1170 -1.3255  0.5992
   67SAPC   C13 5549   3.967   2.713   6.420 -0.2498 -0.5471 -0.1424
   67SAPC  H13A 5550   4.057   2.765   6.450 -1.9154  1.9761  0.8338
   67SAPC  H13B 5551   3.880   2.751   6.471  0.2595 -0.4407  0.6475
   67SAPC  H13C 5552   3.982   2.606   6.430 -1.0765 -0.8124 -1.4243
   67SAPC   C14 5553   4.080   2.690   6.208  0.3168 -0.7901  0.2075
   67SAPC  H14A 5554   4.172   2.736   6.241 -0.0331 -0.8204  1.2567
   67SAPC  H14B 5555   4.095   2.585   6.230  1.9156 -0.8472 -0.9361
   67SAPC  H14C 5556   4.079   2.703   6.101 -0.6257 -2.9917 -0.1148
   67SAPC   C15 5557   3.927   2.870   6.240 -0.4270  0.0287 -0.3265
   67SAPC  H15A 5558   4.013   2.926   6.271  0.8905 -1.9769 -0.1505
   67SAPC  H15B 5559   3.913   2.882   6.133  1.0275 -2.4760 -0.8915
   67SAPC  H15C 5560   3.840   2.910   6.290 -0.4316  0.6857 -0.8502
   67SAPC   C11 5561   3.695   2.680   6.267  0.0415  0.4572  0.2827
   67SAPC  H11A 5562   3.612   2.643   6.204  0.4812  0.8672 -0.5570
   67SAPC  H11B 5563   3.683   2.789   6.247 -0.2610  0.3862  0.0754
   67SAPC     P 5564   3.679   2.482   6.438 -0.1800 -0.1969 -0.6799
   67SAPC   O13 5565   3.539   2.435   6.455  0.6545 -0.1749 -0.0406
   67SAPC   O14 5566   3.760   2.401   6.353 -0.5056 -0.0924 -0.2616
   67SAPC   O12 5567   3.674   2.636   6.401  0.7934 -0.5915  0.4158
   67SAPC   O11 5568   3.753   2.479   6.585  0.4720  0.1547 -0.6991
   67SAPC    C1 5569   3.705   2.585   6.669  0.0346 -0.5339  0.3021
   67SAPC    HA 5570   3.736   2.685   6.633  1.3316 -0.7765  0.6811
   67SAPC    HB 5571   3.596   2.575   6.687 -0.2049 -0.8098 -1.2014
   67SAPC    C2 5572   3.780   2.574   6.801 -0.5192 -1.0269 -0.5837
   67SAPC    HS 5573   3.750   2.476   6.845 -0.5227  0.7912  3.9226
   67SAPC   O21 5574   3.755   2.681   6.890  0.8372 -0.2568  0.3221
   67SAPC   C21 5575   3.640   2.680   6.947  0.1872 -1.1504  0.3852
   67SAPC   O22 5576   3.557   2.594   6.935 -0.2737  0.0921 -0.2311
   67SAPC   C22 5577   3.614   2.804   7.024  0.4019 -0.2011 -0.2553
   67SAPC   H2R 5578   3.699   2.875   7.014 -1.8721  2.6030 -1.3047
   67SAPC   H2S 5579   3.528   2.852   6.972  0.3350 -0.6262 -0.5434
   67SAPC    C3 5580   3.935   2.574   6.788 -0.5456  0.0822 -0.4386
   67SAPC    HX 5581   3.975   2.677   6.772 -0.0919 -0.1872 -1.1051
   67SAPC    HY 5582   3.951   2.519   6.693  2.7981 -2.5832  1.4621
   67SAPC   O31 5583   4.003   2.511   6.896  0.2795  0.0737 -0.2405
   67SAPC   C31 5584   4.135   2.535   6.906  0.2906  0.3082 -0.1465
   67SAPC   O32 5585   4.202   2.609   6.832  0.8762  0.7902 -0.5215
   67SAPC   C32 5586   4.191   2.472   7.032  0.3962  0.5465 -0.1128
   67SAPC   H2X 5587   4.300   2.492   7.038  0.4818 -0.2414  1.1142
   67SAPC   H2Y 5588   4.170   2.365   7.013  1.8545  0.4515 -1.4138
   67SAPC   C23 5589   3.582   2.787   7.167  0.1522  0.0902  0.0574
   67SAPC   H3R 5590   3.483   2.736   7.170 -0.6660  1.5790 -0.5597
   67SAPC   H3S 5591   3.559   2.886   7.212 -0.2851 -1.0899  2.6276
   67SAPC   C24 5592   3.678   2.698   7.251 -0.1387 -0.7577 -0.3238
   67SAPC   H4R 5593   3.770   2.757   7.272 -1.2056  0.4504  1.1904
   67SAPC   H4S 5594   3.717   2.616   7.186  0.0942  0.5431 -1.8941
   67SAPC   C25 5595   3.615   2.628   7.371  0.0942 -0.5696 -0.0678
   67SAPC   H5R 5596   3.564   2.532   7.355 -0.2198 -0.5312  0.6269
   67SAPC   C26 5597   3.641   2.671   7.495 -0.2797 -0.4634  0.5803
   67SAPC   H6R 5598   3.602   2.618   7.583 -0.3687  1.5458  1.8086
   67SAPC   C27 5599   3.727   2.790   7.541  0.5548 -0.3918  0.8629
   67SAPC   H7R 5600   3.687   2.879   7.488  0.1310 -1.7275 -1.1790
   67SAPC   H7S 5601   3.830   2.789   7.500 -0.3117 -0.5495 -1.4418
   67SAPC   C28 5602   3.743   2.823   7.686 -0.4144  0.6765  0.2763
   67SAPC   H8R 5603   3.699   2.922   7.702 -0.3488  0.6927  0.3575
   67SAPC   C29 5604   3.798   2.747   7.786  0.4241  1.0427 -0.3008
   67SAPC   H9R 5605   3.790   2.786   7.888 -2.1483  0.6916 -0.2868
   67SAPC  C210 5606   3.863   2.611   7.791 -0.9342  0.1877 -0.5575
   67SAPC  H10R 5607   3.950   2.615   7.860 -2.1012  2.6347  0.9198
   67SAPC  H10S 5608   3.909   2.591   7.692 -1.1895 -1.6945 -0.3304
   67SAPC  C211 5609   3.770   2.496   7.838  0.6500  0.2952 -0.1099
   67SAPC  H11R 5610   3.755   2.425   7.755  2.6030 -0.3240  0.0156
   67SAPC  C212 5611   3.730   2.463   7.961 -0.8526 -0.0574 -1.5654
   67SAPC  H12R 5612   3.677   2.367   7.972  0.6282 -0.7468  0.0354
   67SAPC  C213 5613   3.775   2.535   8.086  0.5359  0.4476 -0.0404
   67SAPC  H13R 5614   3.759   2.644   8.072 -0.6228  0.1382 -1.2968
   67SAPC  H13S 5615   3.883   2.515   8.107  0.4761 -1.1696 -1.0790
   67SAPC  C214 5616   3.679   2.514   8.203  0.0150  0.2955  0.6493
   67SAPC  H14R 5617   3.594   2.444   8.196  0.5883 -0.4168  0.6108
   67SAPC  C215 5618   3.692   2.581   8.316  0.3518  0.7837  0.3563
   67SAPC  H15R 5619   3.616   2.564   8.394 -0.7734 -1.5729 -1.1294
   67SAPC  C216 5620   3.788   2.687   8.359  0.2250  0.3750 -0.2905
   67SAPC  H16R 5621   3.843   2.732   8.274  3.3881  0.6100  1.7396
   67SAPC  H16S 5622   3.861   2.638   8.427 -1.5090 -0.8406  0.7955
   67SAPC  C217 5623   3.706   2.802   8.428  0.0224 -0.5982 -0.2427
   67SAPC  H17R 5624   3.781   2.873   8.470 -0.1687  0.2142 -1.2322
   67SAPC  H17S 5625   3.645   2.761   8.511 -0.1718  1.4175  0.6656
   67SAPC  C218 5626   3.597   2.871   8.345 -0.6761 -0.7230 -0.1317
   67SAPC  H18R 5627   3.526   2.798   8.302 -0.8607 -0.3075 -0.5407
   67SAPC  H18S 5628   3.654   2.915   8.260  0.4898 -0.5935  0.6909
   67SAPC  C219 5629   3.530   2.978   8.426 -0.0296  0.2010  0.9106
   67SAPC  H19R 5630   3.589   3.069   8.446  0.9585 -0.4312  0.9087
   67SAPC  H19S 5631   3.494   2.943   8.525 -1.5707 -1.0383 -0.0384
   67SAPC  C220 5632   3.404   3.035   8.351  0.6165  0.6190 -0.5940
   67SAPC  H20R 5633   3.313   2.972   8.360  0.8633  0.4013  0.6301
   67SAPC  H20S 5634   3.423   3.064   8.246  1.3547  2.7091  0.0728
   67SAPC  H20T 5635   3.376   3.130   8.401 -1.9505 -0.0644 -0.6239
   67SAPC   C33 5636   4.125   2.527   7.161 -0.1574 -0.0745 -0.0609
   67SAPC   H3X 5637   4.017   2.501   7.153 -0.2282 -1.2241  3.0851
   67SAPC   H3Y 5638   4.146   2.636   7.153  1.1119 -0.4228 -1.7907
   67SAPC   C34 5639   4.193   2.480   7.292 -0.7874 -0.0978 -0.4621
   67SAPC   H4X 5640   4.297   2.520   7.289 -1.7352  2.6383 -0.3959
   67SAPC   H4Y 5641   4.185   2.370   7.288 -0.4096 -0.0919 -2.3770
   67SAPC   C35 5642   4.124   2.538   7.422  0.2094  0.3378 -0.0179
   67SAPC   H5X 5643   4.015   2.546   7.406  0.3137 -0.5341 -1.3491
   67SAPC   H5Y 5644   4.174   2.635   7.444  2.0780 -0.6169  0.1973
   67SAPC   C36 5645   4.156   2.452   7.544  0.3838 -0.5358 -0.4721
   67SAPC   H6X 5646   4.126   2.348   7.517  0.9518 -0.5531 -1.0402
   67SAPC   H6Y 5647   4.080   2.478   7.620  1.7558  0.1256  0.7238
   67SAPC   C37 5648   4.293   2.454   7.609 -0.4604  0.2166  0.2560
   67SAPC   H7X 5649   4.324   2.560   7.622 -0.2165  0.2703 -0.6943
   67SAPC   H7Y 5650   4.369   2.416   7.537 -0.1336 -0.4486  0.9369
   67SAPC   C38 5651   4.283   2.377   7.731 -0.4338 -0.4225 -0.6937
   67SAPC   H8X 5652   4.389   2.373   7.765 -0.4878  0.1892 -0.4405
   67SAPC   H8Y 5653   4.254   2.271   7.718  2.4522 -1.3670 -0.1503
   67SAPC   C39 5654   4.195   2.444   7.843 -0.8030 -0.2279 -0.5793
   67SAPC   H9X 5655   4.088   2.439   7.814 -0.9279 -0.7127 -0.0590
   67SAPC   H9Y 5656   4.220   2.552   7.849 -0.4902 -0.0266 -3.6857
   67SAPC  C310 5657   4.190   2.366   7.982  0.5519  0.8721 -0.4243
   67SAPC  H10X 5658   4.171   2.264   7.942 -0.0489  1.0179 -0.5106
   67SAPC  H10Y 5659   4.111   2.410   8.047 -1.6473 -2.6511 -0.4572
   67SAPC  C311 5660   4.323   2.376   8.063  0.6940  0.8960 -0.4925
   67SAPC  H11X 5661   4.312   2.467   8.126 -1.2438  0.5888 -0.3145
   67SAPC  H11Y 5662   4.415   2.397   8.006  1.2168 -0.9619 -0.4203
   67SAPC  C312 5663   4.355   2.250   8.146 -0.1549  0.9331  0.8856
   67SAPC  H12X 5664   4.359   2.165   8.075  0.5146  1.7026 -0.0209
   67SAPC  H12Y 5665   4.275   2.219   8.216 -1.0697 -0.9489 -0.9035
   67SAPC  C313 5666   4.489   2.267   8.232  0.5766 -0.4343  0.8042
   67SAPC  H13X 5667   4.478   2.364   8.285  0.5768  0.1243 -0.1884
   67SAPC  H13Y 5668   4.570   2.290   8.160 -2.1820  0.7568 -2.1498
   67SAPC  C314 5669   4.522   2.149   8.321  0.6415  0.4714 -0.2797
   67SAPC  H14X 5670   4.621   2.177   8.362  2.0227 -1.3278 -2.1674
   67SAPC  H14Y 5671   4.523   2.045   8.281 -1.5929 -0.4168  1.6985
   67SAPC  C315 5672   4.415   2.130   8.433  0.0363 -0.5749 -0.5722
   67SAPC  H15X 5673   4.329   2.075   8.390 -0.4326 -1.0901  0.9592
   67SAPC  H15Y 5674   4.383   2.235   8.454  2.4741  0.5889 -2.1279
   67SAPC  C316 5675   4.466   2.053   8.555  0.2346  0.1867  0.3418
   67SAPC  H16X 5676   4.546   2.110   8.607  1.2349  1.1388 -2.1293
   67SAPC  H16Y 5677   4.500   1.952   8.524  1.6669 -0.3104  3.1502
   67SAPC  C317 5678   4.346   2.037   8.656  0.1023 -0.0442  0.3560
   67SAPC  H17X 5679   4.261   1.988   8.604 -0.6530  0.3931  1.1480
   67SAPC  H17Y 5680   4.308   2.136   8.689  0.5559  0.5430 -0.8374
   67SAPC  C318 5681   4.379   1.964   8.780  0.1813 -0.3184 -0.5120
   67SAPC  H18X 5682   4.386   1.855   8.760  0.3353 -0.9920  2.6428
   67SAPC  H18Y 5683   4.306   1.975   8.862  1.0084  0.3891  0.1563
   67SAPC  H18Z 5684   4.481   1.992   8.815 -0.0192 -0.4660  0.2101
   68SAPC     N 5685   4.454   2.044   5.979  0.3862 -0.8312 -0.0989
   68SAPC   C12 5686   4.434   1.981   6.115  0.2755 -0.2222 -0.2387
   68SAPC  H12A 5687   4.378   1.890   6.108 -1.0288  0.5745 -0.4939
   68SAPC  H12B 5688   4.365   2.038   6.176 -1.0588 -1.0517 -0.9477
   68SAPC   C13 5689   4.519   2.175   5.999 -0.7899  0.0936  0.5132
   68SAPC  H13A 5690   4.454   2.230   6.066 -0.7618  0.6084  0.1292
   68SAPC  H13B 5691   4.615   2.153   6.042  0.1193  0.4840 -1.2219
   68SAPC  H13C 5692   4.542   2.228   5.907 -1.5362 -1.7358 -0.7950
   68SAPC   C14 5693   4.545   1.955   5.902  0.5189  0.3727  0.3555
   68SAPC  H14A 5694   4.638   1.932   5.953 -0.4735 -2.1681  1.1594
   68SAPC  H14B 5695   4.499   1.858   5.891 -2.0925  1.3972  1.4279
   68SAPC  H14C 5696   4.568   1.998   5.806  0.4107 -2.4745 -1.0520
   68SAPC   C15 5697   4.332   2.064   5.898  0.8592  0.7022 -0.5719
   68SAPC  H15A 5698   4.282   1.969   5.886  2.5850 -0.0422 -2.5320
   68SAPC  H15B 5699   4.268   2.139   5.943 -1.0264  0.6864 -2.9943
   68SAPC  H15C 5700   4.344   2.089   5.794  0.6417  1.2064 -0.4769
   68SAPC   C11 5701   4.558   1.958   6.208 -0.3546  0.6390  0.2979
   68SAPC  H11A 5702   4.521   1.931   6.309  0.2799 -0.4321  0.2600
   68SAPC  H11B 5703   4.630   2.040   6.225  2.1198 -1.4460  0.4000
   68SAPC     P 5704   4.591   1.706   6.150  0.4989 -0.1070 -0.0017
   68SAPC   O13 5705   4.445   1.693   6.176  0.0588  0.0096 -0.1069
   68SAPC   O14 5706   4.634   1.650   6.022  0.1962 -0.3284  0.7141
   68SAPC   O12 5707   4.640   1.852   6.161 -0.0387 -0.2634 -0.0294
   68SAPC   O11 5708   4.672   1.640   6.270 -0.2297  0.6374 -0.0106
   68SAPC    C1 5709   4.817   1.628   6.252  0.2219  0.1989 -0.0344
   68SAPC    HA 5710   4.843   1.531   6.206  1.7936  0.4611  0.2424
   68SAPC    HB 5711   4.857   1.705   6.182  0.9616  0.4802  0.6786
   68SAPC    C2 5712   4.890   1.653   6.388  0.2081  0.1775 -0.1596
   68SAPC    HS 5713   5.000   1.659   6.378  0.7833 -2.4960  2.9392
   68SAPC   O21 5714   4.846   1.550   6.480  0.9006 -0.4403  0.0744
   68SAPC   C21 5715   4.935   1.454   6.488  0.3399  0.0711  0.2590
   68SAPC   O22 5716   5.024   1.435   6.402 -0.2541  0.1244 -0.5742
   68SAPC   C22 5717   4.911   1.351   6.600  0.3925 -0.4017 -0.5699
   68SAPC   H2R 5718   4.804   1.335   6.621  0.1870  0.1491 -1.1812
   68SAPC   H2S 5719   4.956   1.252   6.577 -1.2491 -1.2191 -0.4040
   68SAPC    C3 5720   4.847   1.796   6.439 -0.0396  0.5170 -0.0432
   68SAPC    HX 5721   4.737   1.810   6.433  0.2953  2.8497 -2.6811
   68SAPC    HY 5722   4.885   1.867   6.363 -2.9585  1.2258 -0.9751
   68SAPC   O31 5723   4.906   1.819   6.572  0.1440  0.6829 -0.0708
   68SAPC   C31 5724   4.835   1.778   6.678 -0.2464 -0.0956  0.1157
   68SAPC   O32 5725   4.727   1.733   6.677 -0.1422  0.2876 -0.0022
   68SAPC   C32 5726   4.897   1.831   6.802 -0.3654 -0.0008 -0.3568
   68SAPC   H2X 5727   4.856   1.933   6.816 -0.1220 -0.0879  1.1552
   68SAPC   H2Y 5728   5.008   1.839   6.800 -0.3261  0.6446  1.7549
   68SAPC   C23 5729   4.973   1.406   6.735  0.4803 -0.1468  0.2775
   68SAPC   H3R 5730   4.932   1.346   6.819  1.5610  0.3731  1.2121
   68SAPC   H3S 5731   4.928   1.507   6.746  0.8445  0.0546 -0.0766
   68SAPC   C24 5732   5.122   1.419   6.755 -0.4559  0.3085  0.1683
   68SAPC   H4R 5733   5.144   1.455   6.858 -0.4677 -0.3292  0.3978
   68SAPC   H4S 5734   5.149   1.506   6.691 -1.0633  0.7616  0.5173
   68SAPC   C25 5735   5.209   1.298   6.724  0.5532  0.0521 -0.0352
   68SAPC   H5R 5736   5.149   1.206   6.727 -1.4192  1.1257 -2.5435
   68SAPC   C26 5737   5.339   1.301   6.704 -0.3835  0.5495  0.3728
   68SAPC   H6R 5738   5.381   1.209   6.661 -2.3054  0.5628 -1.7009
   68SAPC   C27 5739   5.436   1.420   6.716  1.0400  0.0509  0.4378
   68SAPC   H7R 5740   5.487   1.434   6.814 -0.1735  2.5856  0.8097
   68SAPC   H7S 5741   5.383   1.518   6.706 -0.6266 -0.8488  0.1089
   68SAPC   C28 5742   5.529   1.423   6.606  0.0550  0.4994 -0.0061
   68SAPC   H8R 5743   5.499   1.486   6.521  2.0129  0.2643 -0.9173
   68SAPC   C29 5744   5.649   1.360   6.603 -0.1789  0.4511  0.4611
   68SAPC   H9R 5745   5.704   1.382   6.511 -2.2632 -1.8902 -1.4772
   68SAPC  C210 5746   5.718   1.282   6.719  0.3274 -0.1709 -0.1129
   68SAPC  H10R 5747   5.648   1.199   6.745 -1.3600  1.3289  0.2790
   68SAPC  H10S 5748   5.737   1.350   6.804  1.5461  0.1274 -0.5972
   68SAPC  C211 5749   5.861   1.231   6.677 -0.0998 -0.2853  0.7057
   68SAPC  H11R 5750   5.883   1.235   6.569 -0.7683 -0.9055  0.5371
   68SAPC  C212 5751   5.954   1.168   6.757  0.3570 -0.3132  0.5334
   68SAPC  H12R 5752   6.057   1.150   6.722  0.5438 -0.5639  1.1963
   68SAPC  C213 5753   5.935   1.136   6.902  0.5965 -0.1594 -0.5458
   68SAPC  H13R 5754   5.906   1.228   6.956  2.0254 -0.6087  1.0763
   68SAPC  H13S 5755   6.035   1.114   6.944  0.8957  2.3014  0.1762
   68SAPC  C214 5756   5.837   1.020   6.926 -0.7187 -0.1419  0.0522
   68SAPC  H14R 5757   5.863   0.929   6.870  1.3761  0.5064 -0.1163
   68SAPC  C215 5758   5.725   1.031   6.992 -0.1285  1.2675 -0.6310
   68SAPC  H15R 5759   5.659   0.944   6.990 -0.5030  1.5450 -2.4539
   68SAPC  C216 5760   5.665   1.146   7.067  0.5137 -0.9762  0.0726
   68SAPC  H16R 5761   5.692   1.245   7.024 -0.7633 -0.6315  0.0488
   68SAPC  H16S 5762   5.708   1.144   7.169  0.6561 -0.4701  0.0272
   68SAPC  C217 5763   5.511   1.142   7.061  0.7388 -0.2839  0.1679
   68SAPC  H17R 5764   5.483   1.043   7.103  0.7410  0.5403  2.2090
   68SAPC  H17S 5765   5.484   1.149   6.953 -0.4006  0.7267  0.5037
   68SAPC  C218 5766   5.452   1.262   7.142 -0.7088  0.3028 -0.1699
   68SAPC  H18R 5767   5.528   1.343   7.138  1.8824 -1.9037  1.1222
   68SAPC  H18S 5768   5.419   1.241   7.246  1.5863 -0.6776  0.4279
   68SAPC  C219 5769   5.320   1.307   7.087 -0.3550  0.5197  0.0490
   68SAPC  H19R 5770   5.251   1.221   7.081  0.5160 -0.2338  0.5384
   68SAPC  H19S 5771   5.345   1.341   6.984  1.7152  0.0266  0.3492
   68SAPC  C220 5772   5.266   1.425   7.175  0.4735 -0.2921  0.2358
   68SAPC  H20R 5773   5.204   1.403   7.265 -0.4332  2.5952  0.4365
   68SAPC  H20S 5774   5.202   1.481   7.103  0.9144 -0.6259 -0.4225
   68SAPC  H20T 5775   5.355   1.484   7.207  1.5614 -1.8306  0.1213
   68SAPC   C33 5776   4.847   1.752   6.922  0.2893 -0.6685 -0.0890
   68SAPC   H3X 5777   4.888   1.648   6.919  1.3577 -0.2761  0.4655
   68SAPC   H3Y 5778   4.736   1.744   6.924  0.2581 -1.3235 -2.2023
   68SAPC   C34 5779   4.887   1.828   7.055  0.9044  0.6527 -0.0427
   68SAPC   H4X 5780   4.825   1.919   7.070 -0.0234  0.0766 -0.2670
   68SAPC   H4Y 5781   4.993   1.861   7.051  0.7860  1.3346  1.5807
   68SAPC   C35 5782   4.889   1.731   7.173  0.0838 -0.1266 -0.1249
   68SAPC   H5X 5783   4.976   1.663   7.159 -1.4589 -2.1385 -0.4497
   68SAPC   H5Y 5784   4.794   1.675   7.175 -0.1192  0.1299 -1.7935
   68SAPC   C36 5785   4.920   1.800   7.300 -0.1683  0.1285 -0.0396
   68SAPC   H6X 5786   4.851   1.886   7.314 -0.2705  0.0012  0.2383
   68SAPC   H6Y 5787   5.024   1.839   7.289  0.3401 -1.0564  0.3353
   68SAPC   C37 5788   4.914   1.704   7.411  0.3659  0.2250 -0.9103
   68SAPC   H7X 5789   4.964   1.609   7.380  1.2091  0.4353 -0.2399
   68SAPC   H7Y 5790   4.814   1.669   7.444  0.2904  1.2568  0.0118
   68SAPC   C38 5791   4.993   1.766   7.529  0.1406  0.0002 -0.2946
   68SAPC   H8X 5792   4.955   1.869   7.543  1.9135  0.5363  0.8867
   68SAPC   H8Y 5793   5.101   1.790   7.515 -0.3879  2.7134 -0.2808
   68SAPC   C39 5794   4.984   1.673   7.653 -0.2576 -0.4004  1.0607
   68SAPC   H9X 5795   5.041   1.581   7.627  0.4898  0.4151 -0.2965
   68SAPC   H9Y 5796   4.878   1.644   7.672 -0.0165 -1.4819  0.8435
   68SAPC  C310 5797   5.039   1.742   7.776  0.0077 -0.1577  0.0263
   68SAPC  H10X 5798   4.983   1.833   7.806  1.0025  0.2648  0.6122
   68SAPC  H10Y 5799   5.139   1.780   7.749 -0.5381  0.1635 -1.6871
   68SAPC  C311 5800   5.053   1.642   7.889 -0.0205 -0.0739  0.0033
   68SAPC  H11X 5801   5.138   1.577   7.859 -0.0691 -0.7121  1.1879
   68SAPC  H11Y 5802   4.960   1.582   7.903 -0.2615  0.6863  2.0590
   68SAPC  C312 5803   5.091   1.698   8.022  0.2895  0.1288 -0.1647
   68SAPC  H12X 5804   5.075   1.636   8.113  1.2782 -0.9102 -0.6654
   68SAPC  H12Y 5805   5.033   1.790   8.042 -1.9791 -1.4750  0.9791
   68SAPC  C313 5806   5.245   1.719   8.024 -0.2304 -0.4488  0.1221
   68SAPC  H13X 5807   5.268   1.773   7.930 -1.0839 -2.1292 -1.0960
   68SAPC  H13Y 5808   5.302   1.624   8.022 -1.1355 -1.0002  0.2731
   68SAPC  C314 5809   5.284   1.811   8.141 -0.1590 -0.5313  0.0357
   68SAPC  H14X 5810   5.224   1.904   8.144  0.0759 -0.3941  0.5524
   68SAPC  H14Y 5811   5.390   1.836   8.119 -0.2832  0.0177  0.0622
   68SAPC  C315 5812   5.278   1.746   8.277 -0.3654  0.0356 -0.8937
   68SAPC  H15X 5813   5.359   1.670   8.272  0.9394  1.2038  0.9032
   68SAPC  H15Y 5814   5.180   1.700   8.302 -0.3529  1.9337  3.5444
   68SAPC  C316 5815   5.318   1.839   8.396 -0.5462  0.2461 -0.0497
   68SAPC  H16X 5816   5.421   1.870   8.370 -1.3260  2.9494 -0.2610
   68SAPC  H16Y 5817   5.319   1.775   8.487  0.5170  1.2341  0.6585
   68SAPC  C317 5818   5.224   1.957   8.428  0.2840  0.5272  0.7357
   68SAPC  H17X 5819   5.119   1.930   8.451  0.4522  0.0277  0.9284
   68SAPC  H17Y 5820   5.220   2.020   8.337 -0.8931 -1.1646 -0.4268
   68SAPC  C318 5821   5.275   2.024   8.556  0.6460  0.1538 -0.0428
   68SAPC  H18X 5822   5.364   2.088   8.537 -0.5232  2.0312  0.5131
   68SAPC  H18Y 5823   5.304   1.937   8.618  2.6948 -0.5206 -1.8169
   68SAPC  H18Z 5824   5.192   2.092   8.583 -1.0822 -2.2866  1.1976
   69SLPC     N 5825   1.408   3.735  10.989 -0.3080 -0.3787 -0.2566
   69SLPC   C13 5826   1.409   3.599  10.929  0.3928  0.1369 -0.1399
   69SLPC  H13A 5827   1.445   3.584  10.829 -1.5006 -3.1206 -0.4725
   69SLPC  H13B 5828   1.465   3.537  10.998  0.8497 -0.6352 -1.1933
   69SLPC  H13C 5829   1.307   3.565  10.921  0.2634 -0.6215  3.0459
   69SLPC   C14 5830   1.550   3.763  11.038 -0.2409  0.1331  0.5629
   69SLPC  H14A 5831   1.627   3.743  10.965  1.8704  0.4986  2.5525
   69SLPC  H14B 5832   1.565   3.862  11.078 -0.0909  0.9486 -1.3937
   69SLPC  H14C 5833   1.575   3.690  11.113  0.5428  0.2525  0.4329
   69SLPC   C15 5834   1.312   3.739  11.096  0.3337  0.2392 -0.1360
   69SLPC  H15A 5835   1.308   3.841  11.131  0.0745  0.7977 -1.6988
   69SLPC  H15B 5836   1.212   3.706  11.076  0.8079 -1.4755  0.1817
   69SLPC  H15C 5837   1.340   3.681  11.183  0.0319  2.2334  1.3768
   69SLPC   C12 5838   1.367   3.832  10.879 -0.4774 -0.0892 -0.1900
   69SLPC  H12A 5839   1.435   3.833  10.795  1.2047  1.3591  1.1087
   69SLPC  H12B 5840   1.368   3.933  10.919  0.2095  0.2767 -1.0905
   69SLPC   C11 5841   1.234   3.827  10.814 -0.1285 -0.6440 -0.0664
   69SLPC  H11A 5842   1.208   3.721  10.792 -1.5314 -0.2109 -0.6174
   69SLPC  H11B 5843   1.245   3.885  10.719  1.8526 -1.3039 -0.2919
   69SLPC     P 5844   0.987   3.887  10.863 -0.1442  0.3255  0.2611
   69SLPC   O13 5845   0.952   3.746  10.822 -0.1581  0.1124  0.4720
   69SLPC   O14 5846   0.912   3.949  10.975  0.7590 -0.2068  0.0893
   69SLPC   O12 5847   1.139   3.884  10.906  0.2671  0.0397  0.3435
   69SLPC   O11 5848   0.978   3.970  10.736 -0.4598 -0.6178  0.4741
   69SLPC    C1 5849   0.981   4.111  10.714  0.3874 -0.5279 -0.3220
   69SLPC    HA 5850   0.924   4.154  10.799  0.9351 -2.7442  1.2625
   69SLPC    HB 5851   1.081   4.159  10.711 -0.1463  0.5521 -2.2552
   69SLPC    C2 5852   0.921   4.174  10.587  0.3031 -0.7920  0.9799
   69SLPC    HS 5853   0.813   4.149  10.581  0.0329  0.4444  0.4710
   69SLPC   O21 5854   0.986   4.111  10.468  0.2367 -0.4664 -0.4433
   69SLPC   C21 5855   0.938   4.005  10.412 -0.3244 -0.1787 -0.1550
   69SLPC   O22 5856   0.829   3.958  10.442 -0.3041  0.2162  0.1508
   69SLPC   C22 5857   1.041   3.941  10.323  0.6053  0.3124  0.3292
   69SLPC   H2R 5858   0.998   3.842  10.295  0.5832  0.6934 -1.0533
   69SLPC   H2S 5859   1.053   3.996  10.227  0.3039  1.0319  0.6953
   69SLPC    C3 5860   0.932   4.327  10.574  0.0448  0.0031 -0.7161
   69SLPC    HX 5861   1.040   4.349  10.557  0.3692 -2.0545 -1.7022
   69SLPC    HY 5862   0.902   4.369  10.672 -1.1174 -1.8213 -0.2501
   69SLPC   O31 5863   0.846   4.374  10.468 -0.4940  0.0315  0.2755
   69SLPC   C31 5864   0.878   4.494  10.424 -0.2591  0.5661 -0.2600
   69SLPC   O32 5865   0.975   4.560  10.456  0.1489  0.2641 -0.7672
   69SLPC   C32 5866   0.775   4.539  10.323  0.1865  0.4926  0.0013
   69SLPC   H2X 5867   0.680   4.567  10.373 -0.4272  0.8166 -1.3025
   69SLPC   H2Y 5868   0.751   4.456  10.254 -0.1344  1.9619 -1.7183
   69SLPC   C23 5869   1.183   3.936  10.382  0.1510  0.4130  0.2158
   69SLPC   H3R 5870   1.169   3.913  10.490  1.4063  0.7517  0.4628
   69SLPC   H3S 5871   1.226   4.038  10.382 -0.8460  0.8498  0.1898
   69SLPC   C24 5872   1.283   3.837  10.323 -0.0350 -0.1342  0.0700
   69SLPC   H4R 5873   1.236   3.737  10.329 -2.1250  0.8397  1.4440
   69SLPC   H4S 5874   1.378   3.854  10.379  0.1761  1.5248 -0.7077
   69SLPC   C25 5875   1.320   3.871  10.181 -0.3618 -0.3082 -0.4346
   69SLPC   H5R 5876   1.362   3.973  10.187  0.4075 -0.6153 -0.4873
   69SLPC   H5S 5877   1.228   3.870  10.119 -2.0667 -1.2091  1.9336
   69SLPC   C26 5878   1.430   3.793  10.111 -0.3430  0.1018 -0.2242
   69SLPC   H6R 5879   1.388   3.698  10.071 -1.2147  0.9839 -1.4429
   69SLPC   H6S 5880   1.512   3.772  10.183  1.1230  2.0031 -1.2588
   69SLPC   C27 5881   1.497   3.858   9.990  0.3740  0.4831 -0.1023
   69SLPC   H7R 5882   1.594   3.808   9.969  0.1707 -0.6446  1.4858
   69SLPC   H7S 5883   1.519   3.966  10.005  2.5085 -0.0288  0.8418
   69SLPC   C28 5884   1.415   3.850   9.862 -0.3703 -0.2769 -0.1324
   69SLPC   H8R 5885   1.308   3.881   9.870 -0.1495  0.9715 -1.6560
   69SLPC   H8S 5886   1.421   3.745   9.825  0.0161  0.3350 -1.9197
   69SLPC   C29 5887   1.485   3.933   9.753  0.2220 -0.0847 -0.0272
   69SLPC   H9R 5888   1.580   3.985   9.774  0.2143  1.0912 -2.4850
   69SLPC  C210 5889   1.460   3.938   9.622 -0.1647 -0.3841 -0.4007
   69SLPC  H10R 5890   1.518   4.005   9.557  1.4078  0.2921  1.5604
   69SLPC  C211 5891   1.347   3.869   9.547  0.7877  0.6720  0.0122
   69SLPC  H11R 5892   1.313   3.920   9.455 -0.9977  2.1670  1.4198
   69SLPC  H11S 5893   1.259   3.849   9.613  0.4397 -1.3227 -0.9760
   69SLPC  C212 5894   1.392   3.727   9.499  0.7109  0.1081 -0.0670
   69SLPC  H12R 5895   1.449   3.678   9.579  1.1967  3.6171  1.9642
   69SLPC  C213 5896   1.368   3.679   9.379  0.0614  0.7794  0.0351
   69SLPC  H13R 5897   1.417   3.583   9.356 -1.0189  0.3530 -0.5861
   69SLPC  C214 5898   1.300   3.753   9.264 -0.7941 -0.2427  0.5318
   69SLPC  H14R 5899   1.344   3.855   9.263  0.0873 -0.6103  0.4510
   69SLPC  H14S 5900   1.189   3.756   9.266 -0.8108  1.0785 -0.7897
   69SLPC  C215 5901   1.345   3.681   9.135  1.2404 -0.4341 -0.1185
   69SLPC  H15R 5902   1.311   3.575   9.140 -1.5664  0.3422 -0.9906
   69SLPC  H15S 5903   1.453   3.683   9.112  0.7799  0.9300 -2.4414
   69SLPC  C216 5904   1.273   3.752   9.020 -0.0848  0.6202 -0.3892
   69SLPC  H16R 5905   1.161   3.751   9.022 -0.0889 -0.8065  0.6506
   69SLPC  H16S 5906   1.293   3.704   8.921 -1.4123 -2.7478  0.8156
   69SLPC  C217 5907   1.311   3.897   9.005  0.3216  0.0079 -0.1148
   69SLPC  H17R 5908   1.421   3.899   9.016  0.4472  4.3601 -0.1441
   69SLPC  H17S 5909   1.267   3.967   9.079  1.3620 -0.9062  1.4114
   69SLPC  C218 5910   1.293   3.956   8.863  0.3195  0.3502 -0.1489
   69SLPC  H18R 5911   1.186   3.968   8.836  1.0500  1.4687 -2.9368
   69SLPC  H18S 5912   1.327   3.892   8.779  1.6567  1.4332 -0.4877
   69SLPC  H18T 5913   1.352   4.050   8.853 -0.0683  0.7522  1.1863
   69SLPC   C33 5914   0.812   4.652  10.228  0.3839  0.2173  0.2216
   69SLPC   H3X 5915   0.904   4.633  10.171 -0.0800  2.1054 -1.2615
   69SLPC   H3Y 5916   0.850   4.730  10.298  1.4769 -0.9577  0.9723
   69SLPC   C34 5917   0.689   4.707  10.145 -0.1220 -0.1431  0.1635
   69SLPC   H4X 5918   0.597   4.688  10.203 -0.6226  1.3752 -0.0789
   69SLPC   H4Y 5919   0.688   4.653  10.048 -0.5744 -0.6284  0.4325
   69SLPC   C35 5920   0.696   4.860  10.147  0.1301 -0.1504  0.8331
   69SLPC   H5X 5921   0.794   4.882  10.100 -0.1794  1.5303  0.9150
   69SLPC   H5Y 5922   0.698   4.911  10.246 -1.4727  0.2992  0.6598
   69SLPC   C36 5923   0.585   4.936  10.082  0.8875 -0.4983  0.0341
   69SLPC   H6X 5924   0.611   5.043  10.095  1.3860 -0.6459  0.2408
   69SLPC   H6Y 5925   0.491   4.919  10.138  0.6028  1.6172  0.2518
   69SLPC   C37 5926   0.570   4.897   9.936  0.4512  0.1366  0.8151
   69SLPC   H7X 5927   0.549   4.788   9.926  2.5185 -0.1171 -1.7270
   69SLPC   H7Y 5928   0.650   4.900   9.860 -0.6566 -0.5706 -0.4255
   69SLPC   C38 5929   0.454   4.980   9.880 -0.8088  0.0816  0.0976
   69SLPC   H8X 5930   0.490   5.079   9.845  0.4908 -1.0074 -1.8177
   69SLPC   H8Y 5931   0.368   4.996   9.949 -1.0145  0.5130 -0.2493
   69SLPC   C39 5932   0.383   4.913   9.766  0.0121 -0.3273 -0.3078
   69SLPC   H9X 5933   0.285   4.866   9.790  0.3272 -2.2935 -2.4596
   69SLPC   H9Y 5934   0.456   4.847   9.715  1.5476 -2.8679  4.4931
   69SLPC  C310 5935   0.338   5.010   9.656 -0.2163 -0.6708  0.3644
   69SLPC  H10X 5936   0.431   5.051   9.612 -0.4755 -2.3279 -1.8742
   69SLPC  H10Y 5937   0.282   5.099   9.694  1.5925  2.0228 -2.7781
   69SLPC  C311 5938   0.262   4.947   9.537  0.0179  0.4228 -0.3042
   69SLPC  H11X 5939   0.170   4.896   9.571 -0.1721  0.8954 -0.1099
   69SLPC  H11Y 5940   0.342   4.876   9.504  2.0295  0.6892  3.4720
   69SLPC  C312 5941   0.231   5.043   9.428  0.4045  0.3983  0.0192
   69SLPC  H12X 5942   0.323   5.098   9.398  0.9194 -1.0059 -1.0993
   69SLPC  H12Y 5943   0.158   5.118   9.464  0.8092  1.0087 -0.4197
   69SLPC  C313 5944   0.157   4.972   9.307 -0.2361  0.7392 -0.0231
   69SLPC  H13X 5945   0.143   5.052   9.232 -1.8090  0.1829 -0.3619
   69SLPC  H13Y 5946   0.056   4.943   9.344  0.2413 -2.6083 -0.9565
   69SLPC  C314 5947   0.235   4.856   9.238 -0.1791 -0.3093 -0.2881
   69SLPC  H14X 5948   0.251   4.780   9.317  0.6519 -1.5357 -1.5893
   69SLPC  H14Y 5949   0.336   4.893   9.209  0.2328 -0.0727  1.3778
   69SLPC  C315 5950   0.172   4.807   9.113  0.0090 -0.2385 -0.6029
   69SLPC  H15X 5951   0.159   4.892   9.043 -1.6978 -0.4638 -0.5899
   69SLPC  H15Y 5952   0.071   4.768   9.138 -0.0780 -1.0149 -2.0932
   69SLPC  C316 5953   0.253   4.706   9.037 -0.4861  0.5626  0.2466
   69SLPC  H16X 5954   0.254   4.611   9.096 -0.7764 -0.0289 -0.6827
   69SLPC  H16Y 5955   0.360   4.730   9.021 -0.4098 -0.6065 -1.1764
   69SLPC  C317 5956   0.193   4.676   8.896 -0.2618  0.3543 -0.8125
   69SLPC  H17X 5957   0.181   4.773   8.843  0.1961  1.1392  0.4716
   69SLPC  H17Y 5958   0.087   4.648   8.914  0.1979 -2.0894 -1.5593
   69SLPC  C318 5959   0.281   4.579   8.823  0.8096 -0.4649  0.7466
   69SLPC  H18X 5960   0.290   4.486   8.882  1.4607 -0.5869  0.4629
   69SLPC  H18Y 5961   0.376   4.628   8.792 -0.2546  1.1494 -0.1458
   69SLPC  H18Z 5962   0.239   4.549   8.724  1.8607  3.0551 -0.9231
   70SLPC     N 5963   2.627   1.027  10.728 -0.0275 -0.0844 -0.4831
   70SLPC   C13 5964   2.536   0.917  10.757  0.0347 -0.3139  0.0058
   70SLPC  H13A 5965   2.446   0.953  10.805  0.4717  2.0482 -0.8293
   70SLPC  H13B 5966   2.506   0.854  10.675 -1.3419  0.4040 -0.0639
   70SLPC  H13C 5967   2.597   0.844  10.809  0.0675  0.4714  1.0945
   70SLPC   C14 5968   2.561   1.103  10.619  0.0040 -0.3660  0.0094
   70SLPC  H14A 5969   2.544   1.046  10.528 -0.9083  1.7238 -1.2084
   70SLPC  H14B 5970   2.467   1.143  10.654  0.0790  0.2823 -0.5151
   70SLPC  H14C 5971   2.621   1.188  10.589  1.0974 -0.9476  0.5199
   70SLPC   C15 5972   2.741   0.962  10.658  0.5287  0.1865  0.0832
   70SLPC  H15A 5973   2.708   0.884  10.592 -0.0296  0.8581 -0.4474
   70SLPC  H15B 5974   2.798   1.028  10.594  1.2689  0.0098  0.5422
   70SLPC  H15C 5975   2.804   0.916  10.733 -0.0707 -0.2166  0.3460
   70SLPC   C12 5976   2.665   1.117  10.846 -0.4756 -0.0665  0.5252
   70SLPC  H12A 5977   2.712   1.072  10.932  1.6792  3.0809  1.1459
   70SLPC  H12B 5978   2.574   1.150  10.894 -2.6410 -2.8331 -1.3155
   70SLPC   C11 5979   2.757   1.241  10.825 -0.4537  0.8366 -0.5810
   70SLPC  H11A 5980   2.858   1.196  10.808 -1.5891 -1.9856 -0.4025
   70SLPC  H11B 5981   2.765   1.305  10.915  2.2128 -0.0167 -0.1101
   70SLPC     P 5982   2.804   1.446  10.673 -0.4645 -0.1200  0.2691
   70SLPC   O13 5983   2.809   1.545  10.786  0.9211  0.3086 -0.4379
   70SLPC   O14 5984   2.939   1.398  10.621 -0.6815  0.4386  0.2551
   70SLPC   O12 5985   2.716   1.325  10.713  0.0834 -0.0331 -0.1074
   70SLPC   O11 5986   2.718   1.490  10.536  0.2661  0.3700  0.2464
   70SLPC    C1 5987   2.735   1.408  10.422 -0.1473  0.6490  0.4581
   70SLPC    HA 5988   2.840   1.413  10.384 -0.6299  2.2280 -0.7957
   70SLPC    HB 5989   2.703   1.304  10.445  0.4643  0.4551  0.4683
   70SLPC    C2 5990   2.654   1.461  10.308  0.4423 -0.6169  0.8228
   70SLPC    HS 5991   2.663   1.395  10.219 -1.9040  0.6383 -0.4250
   70SLPC   O21 5992   2.719   1.582  10.277  0.6594 -0.0464 -0.2209
   70SLPC   C21 5993   2.716   1.617  10.148  0.1044 -0.3706  0.5966
   70SLPC   O22 5994   2.685   1.552  10.052  0.8224 -0.2164  0.1697
   70SLPC   C22 5995   2.770   1.762  10.129 -0.7360 -0.9632 -0.5587
   70SLPC   H2R 5996   2.714   1.827  10.199  0.9265 -2.1321  2.0083
   70SLPC   H2S 5997   2.873   1.763  10.170 -1.3940  1.1712  1.2123
   70SLPC    C3 5998   2.504   1.488  10.343 -0.6543 -0.1241  0.3787
   70SLPC    HX 5999   2.514   1.561  10.425 -0.3231 -0.9140  1.0618
   70SLPC    HY 6000   2.470   1.391  10.384  1.4776 -0.5121  1.3750
   70SLPC   O31 6001   2.443   1.540  10.222  0.3931  0.0840 -0.0042
   70SLPC   C31 6002   2.390   1.439  10.155 -0.0562  0.7178  0.5092
   70SLPC   O32 6003   2.392   1.317  10.186  0.1550 -0.0243 -0.3100
   70SLPC   C32 6004   2.337   1.486  10.012  0.0121  0.6406 -0.6415
   70SLPC   H2X 6005   2.361   1.594  10.005  0.2824  0.5424 -1.2538
   70SLPC   H2Y 6006   2.226   1.482  10.003  0.0630 -1.1348 -0.8912
   70SLPC   C23 6007   2.740   1.820   9.985  0.3405  0.5530 -0.1194
   70SLPC   H3R 6008   2.750   1.929  10.005 -2.7279  0.9039 -0.0742
   70SLPC   H3S 6009   2.632   1.816   9.961  0.5213 -0.6984 -0.8016
   70SLPC   C24 6010   2.831   1.760   9.879  0.3928 -0.0302  0.6897
   70SLPC   H4R 6011   2.785   1.668   9.836 -0.4418  0.5747  0.2570
   70SLPC   H4S 6012   2.930   1.740   9.925  1.2763  0.6409 -0.8460
   70SLPC   C25 6013   2.864   1.857   9.757 -0.2071 -0.4780  0.2137
   70SLPC   H5R 6014   2.946   1.807   9.701  1.9303  0.1782  2.5523
   70SLPC   H5S 6015   2.897   1.957   9.796  0.7710 -0.8279  0.3213
   70SLPC   C26 6016   2.743   1.889   9.666  1.2362  1.5721  0.8042
   70SLPC   H6R 6017   2.773   1.946   9.576 -2.0876  0.8363 -0.9216
   70SLPC   H6S 6018   2.676   1.951   9.730  1.4698  1.3589  1.2648
   70SLPC   C27 6019   2.665   1.767   9.608 -0.0122 -0.7771 -0.6905
   70SLPC   H7R 6020   2.589   1.811   9.541 -0.3217 -2.5316 -1.5485
   70SLPC   H7S 6021   2.614   1.717   9.694 -1.9337  0.4115 -1.0851
   70SLPC   C28 6022   2.735   1.660   9.528  0.0937 -0.2029  0.2728
   70SLPC   H8R 6023   2.657   1.588   9.497  0.3823  0.4092 -2.0840
   70SLPC   H8S 6024   2.809   1.612   9.595  1.2906  0.1783 -0.7316
   70SLPC   C29 6025   2.803   1.711   9.402 -0.1376  0.0013 -0.0918
   70SLPC   H9R 6026   2.884   1.781   9.427  0.1287 -0.3740  0.1125
   70SLPC  C210 6027   2.806   1.674   9.271 -0.3806  0.1438 -0.0975
   70SLPC  H10R 6028   2.838   1.746   9.194  0.6023 -0.5811 -0.3865
   70SLPC  C211 6029   2.716   1.563   9.221 -0.6651  0.3419 -0.2825
   70SLPC  H11R 6030   2.660   1.503   9.296 -0.9796  2.2688  1.1017
   70SLPC  H11S 6031   2.784   1.487   9.177  1.2968  1.1329  1.2126
   70SLPC  C212 6032   2.603   1.613   9.133 -1.1241  0.4341 -0.5741
   70SLPC  H12R 6033   2.508   1.629   9.185 -0.7086 -1.3941  0.8626
   70SLPC  C213 6034   2.610   1.619   8.998 -0.0109  0.0046 -0.1200
   70SLPC  H13R 6035   2.513   1.628   8.948  0.7867 -0.5701 -1.8713
   70SLPC  C214 6036   2.727   1.597   8.900 -0.4584 -0.4526 -0.0448
   70SLPC  H14R 6037   2.797   1.517   8.935 -1.2963 -1.5957 -0.8986
   70SLPC  H14S 6038   2.798   1.681   8.889 -0.7547 -0.0465  1.0059
   70SLPC  C215 6039   2.673   1.546   8.771 -0.2808  0.2998 -0.1599
   70SLPC  H15R 6040   2.762   1.519   8.710 -1.0863 -1.6835 -0.5536
   70SLPC  H15S 6041   2.624   1.627   8.713  0.3582  0.9560  0.1997
   70SLPC  C216 6042   2.593   1.417   8.772 -0.6004  0.7902  0.2005
   70SLPC  H16R 6043   2.496   1.422   8.826  0.0089  2.6936  1.1985
   70SLPC  H16S 6044   2.659   1.335   8.808 -0.8337  0.8615  0.7927
   70SLPC  C217 6045   2.564   1.377   8.625  0.6622 -0.9833  0.1554
   70SLPC  H17R 6046   2.527   1.272   8.616 -3.6266  0.5054 -3.0344
   70SLPC  H17S 6047   2.656   1.385   8.563  0.5339  2.2081  0.2175
   70SLPC  C218 6048   2.445   1.457   8.573 -0.1849  0.1369  0.3505
   70SLPC  H18R 6049   2.450   1.564   8.603 -0.9306  0.6602 -1.2916
   70SLPC  H18S 6050   2.349   1.413   8.607 -0.1308 -0.4827 -0.2720
   70SLPC  H18T 6051   2.445   1.455   8.462  0.4399  1.0366  0.3199
   70SLPC   C33 6052   2.392   1.397   9.899  0.2685 -0.3664 -0.1627
   70SLPC   H3X 6053   2.369   1.289   9.916 -0.2008 -0.0102  1.7007
   70SLPC   H3Y 6054   2.502   1.409   9.894  0.0457  1.7574 -0.8666
   70SLPC   C34 6055   2.336   1.452   9.765  0.4490 -0.0293 -0.6684
   70SLPC   H4X 6056   2.362   1.560   9.756  0.1340  0.5818  3.7394
   70SLPC   H4Y 6057   2.225   1.439   9.766  0.4527 -0.1772 -1.4753
   70SLPC   C35 6058   2.381   1.367   9.641  0.1995 -0.2092 -1.3501
   70SLPC   H5X 6059   2.329   1.271   9.659  0.3169  0.2313  1.8698
   70SLPC   H5Y 6060   2.491   1.352   9.645  0.0957 -1.0516 -1.4951
   70SLPC   C36 6061   2.330   1.436   9.513  0.0254 -0.9102 -0.0422
   70SLPC   H6X 6062   2.360   1.543   9.509 -0.2906 -0.7267  1.8901
   70SLPC   H6Y 6063   2.221   1.451   9.522  0.3597  1.6846  0.5422
   70SLPC   C37 6064   2.354   1.352   9.387  0.0352 -0.4277 -0.3028
   70SLPC   H7X 6065   2.329   1.245   9.404  1.8203 -0.7952  0.3371
   70SLPC   H7Y 6066   2.461   1.353   9.357 -0.4425  1.2880 -2.0943
   70SLPC   C38 6067   2.265   1.398   9.268 -0.5396 -0.0567 -0.0716
   70SLPC   H8X 6068   2.293   1.505   9.252 -0.3271 -0.3273 -1.7111
   70SLPC   H8Y 6069   2.156   1.394   9.288 -0.7138 -0.0144 -0.9696
   70SLPC   C39 6070   2.301   1.335   9.134  0.1522  0.1737  0.5556
   70SLPC   H9X 6071   2.293   1.225   9.148 -3.7556  0.4892  1.8349
   70SLPC   H9Y 6072   2.403   1.368   9.103 -0.2816 -0.1704 -1.3945
   70SLPC  C310 6073   2.189   1.357   9.036  0.3443 -1.1401  0.3258
   70SLPC  H10X 6074   2.161   1.463   9.051  2.2796 -0.1520 -2.1697
   70SLPC  H10Y 6075   2.096   1.305   9.065 -1.1803  0.2420 -1.7976
   70SLPC  C311 6076   2.241   1.328   8.886  0.9065 -0.1222 -0.1370
   70SLPC  H11X 6077   2.305   1.237   8.876  1.2566  0.1636 -0.5277
   70SLPC  H11Y 6078   2.304   1.415   8.856  0.5699  0.2889  0.3425
   70SLPC  C312 6079   2.127   1.330   8.781  0.2397 -0.3296  0.4736
   70SLPC  H12X 6080   2.162   1.348   8.677 -1.3651 -0.5365 -0.1330
   70SLPC  H12Y 6081   2.065   1.418   8.808  0.9010  0.1645  0.3997
   70SLPC  C313 6082   2.043   1.208   8.781  0.5117  0.3101 -0.4626
   70SLPC  H13X 6083   1.997   1.201   8.882  1.8917 -1.4549  0.1018
   70SLPC  H13Y 6084   2.102   1.114   8.774 -1.9181 -1.4001  0.5909
   70SLPC  C314 6085   1.938   1.201   8.666  0.2428 -0.1021  0.0519
   70SLPC  H14X 6086   1.900   1.295   8.621 -2.3130 -0.3995  1.3918
   70SLPC  H14Y 6087   1.861   1.140   8.719  3.0777 -1.1263  3.3807
   70SLPC  C315 6088   1.983   1.103   8.553  0.9664  0.3059 -0.9966
   70SLPC  H15X 6089   1.907   1.104   8.473  0.2997  1.1656 -0.3742
   70SLPC  H15Y 6090   1.977   0.999   8.592 -1.5022  0.5816 -0.4878
   70SLPC  C316 6091   2.126   1.127   8.506 -0.5385 -0.3918 -0.2369
   70SLPC  H16X 6092   2.204   1.069   8.560  0.4916 -1.0841 -2.3552
   70SLPC  H16Y 6093   2.152   1.235   8.513 -0.9890 -0.1694 -1.6642
   70SLPC  C317 6094   2.145   1.097   8.358  0.1232  0.5571 -0.1548
   70SLPC  H17X 6095   2.059   1.143   8.305 -0.1072  0.5285  0.1814
   70SLPC  H17Y 6096   2.139   0.987   8.346 -0.6823  0.3247  1.8230
   70SLPC  C318 6097   2.278   1.136   8.306  0.4671 -0.0262 -0.0243
   70SLPC  H18X 6098   2.351   1.060   8.339 -1.1148 -1.7135 -0.2713
   70SLPC  H18Y 6099   2.300   1.244   8.324  1.6076 -0.3860  0.8497
   70SLPC  H18Z 6100   2.266   1.125   8.196  0.8303  0.1700 -0.0851
   71SLPC     N 6101   1.372   5.101  10.676  0.4393 -0.1393 -0.5491
   71SLPC   C13 6102   1.301   5.157  10.557  0.1241 -0.0691  0.8465
   71SLPC  H13A 6103   1.234   5.091  10.505  0.4526  1.0372 -1.0935
   71SLPC  H13B 6104   1.241   5.243  10.584 -3.2492 -1.4731 -1.4758
   71SLPC  H13C 6105   1.376   5.183  10.483 -0.7179 -1.5464 -0.5776
   71SLPC   C14 6106   1.466   5.000  10.624  0.3349  0.3978 -0.3247
   71SLPC  H14A 6107   1.524   5.038  10.541 -1.8064  0.4581 -1.8897
   71SLPC  H14B 6108   1.535   4.965  10.699  1.9796  2.9515 -0.5412
   71SLPC  H14C 6109   1.411   4.915  10.584 -1.0228 -0.0661  2.2986
   71SLPC   C15 6110   1.270   5.027  10.759 -0.2041  0.6235  0.3765
   71SLPC  H15A 6111   1.320   4.967  10.834 -0.2134  1.4669  1.0772
   71SLPC  H15B 6112   1.196   5.091  10.806 -2.3836 -0.0118 -2.0006
   71SLPC  H15C 6113   1.214   4.963  10.693  1.3115 -0.8718  0.4788
   71SLPC   C12 6114   1.453   5.213  10.744  0.2270  0.6430 -0.3815
   71SLPC  H12A 6115   1.509   5.164  10.822 -1.4341  0.4180  0.7116
   71SLPC  H12B 6116   1.382   5.274  10.797 -0.4687 -0.9145  0.5351
   71SLPC   C11 6117   1.542   5.307  10.657 -0.5877 -0.4838 -0.1062
   71SLPC  H11A 6118   1.586   5.390  10.717  1.3764 -2.3970  1.2615
   71SLPC  H11B 6119   1.470   5.350  10.585 -1.1492  0.6092  1.0578
   71SLPC     P 6120   1.777   5.189  10.628 -0.3022 -0.2005  0.4683
   71SLPC   O13 6121   1.786   5.166  10.776 -0.0661 -0.3027 -0.1298
   71SLPC   O14 6122   1.818   5.075  10.546  0.7575  1.0637  0.8120
   71SLPC   O12 6123   1.633   5.233  10.573 -0.0343 -0.3864 -0.3543
   71SLPC   O11 6124   1.876   5.307  10.595 -0.2059  0.0310  0.1857
   71SLPC    C1 6125   1.834   5.416  10.507 -0.2686  0.6754  0.7511
   71SLPC    HA 6126   1.731   5.449  10.533 -1.2155 -0.1885 -1.6062
   71SLPC    HB 6127   1.912   5.495  10.522  1.9157 -0.4934 -3.0917
   71SLPC    C2 6128   1.838   5.383  10.351 -0.2300 -0.5796  0.3074
   71SLPC    HS 6129   1.781   5.291  10.327  0.4067 -0.5340 -1.5556
   71SLPC   O21 6130   1.971   5.346  10.319 -0.0779  0.1768  0.3501
   71SLPC   C21 6131   1.983   5.269  10.211  0.8220  0.4385  0.3003
   71SLPC   O22 6132   1.900   5.214  10.144  0.4166  0.0187  0.5380
   71SLPC   C22 6133   2.138   5.251  10.189  0.1733  0.2677 -0.3186
   71SLPC   H2R 6134   2.180   5.354  10.182 -1.6723  1.1471  0.7974
   71SLPC   H2S 6135   2.171   5.197  10.280  0.3142 -0.3254 -0.7141
   71SLPC    C3 6136   1.776   5.501  10.277  0.1164 -0.2459 -0.1376
   71SLPC    HX 6137   1.844   5.588  10.270  0.9161 -0.8698 -0.2673
   71SLPC    HY 6138   1.695   5.537  10.344  1.5641  0.2155  1.4684
   71SLPC   O31 6139   1.722   5.450  10.149 -0.1043  0.3977 -0.0819
   71SLPC   C31 6140   1.789   5.466  10.041 -0.9154 -0.0537 -0.0164
   71SLPC   O32 6141   1.909   5.502  10.034 -0.1400  0.3833 -0.6327
   71SLPC   C32 6142   1.707   5.416   9.923  0.4871 -0.6123 -0.3269
   71SLPC   H2X 6143   1.621   5.486   9.922  0.4681 -0.3598  3.4285
   71SLPC   H2Y 6144   1.669   5.314   9.947 -1.4208  0.5542  2.0437
   71SLPC   C23 6145   2.176   5.141  10.101  1.0146 -0.4552  0.3468
   71SLPC   H3R 6146   2.115   5.048  10.112 -1.6025  1.2521  1.1723
   71SLPC   H3S 6147   2.275   5.104  10.135  1.5693  0.9076  0.2620
   71SLPC   C24 6148   2.190   5.187   9.956  0.5048  0.6567 -0.0120
   71SLPC   H4R 6149   2.269   5.265   9.962  1.8794 -0.7494  0.8356
   71SLPC   H4S 6150   2.096   5.230   9.915  0.3874 -0.3611 -0.8463
   71SLPC   C25 6151   2.218   5.070   9.864 -0.2123  0.5522 -0.4141
   71SLPC   H5R 6152   2.196   5.115   9.764  0.7540  0.2009 -0.7911
   71SLPC   H5S 6153   2.135   4.996   9.871  0.4079 -0.0924  0.1669
   71SLPC   C26 6154   2.360   5.008   9.879  0.5086 -0.3804 -0.4989
   71SLPC   H6R 6155   2.377   4.941   9.966  2.9179  0.6253 -0.1103
   71SLPC   H6S 6156   2.439   5.086   9.888  0.2275 -0.2383  0.9275
   71SLPC   C27 6157   2.398   4.934   9.744  0.1732  0.0118 -0.5293
   71SLPC   H7R 6158   2.364   5.000   9.661 -0.5639 -1.1554 -1.1860
   71SLPC   H7S 6159   2.332   4.846   9.730 -1.3177  0.8141  1.1148
   71SLPC   C28 6160   2.544   4.884   9.729 -0.3625  0.4105  0.8008
   71SLPC   H8R 6161   2.580   4.837   9.823  1.8983  0.3388 -0.0157
   71SLPC   H8S 6162   2.612   4.971   9.714  0.2554 -0.0090  1.1516
   71SLPC   C29 6163   2.557   4.789   9.618 -0.9178  0.5147 -0.0889
   71SLPC   H9R 6164   2.568   4.683   9.647 -3.2446 -0.8951 -3.6648
   71SLPC  C210 6165   2.546   4.815   9.485 -0.2722  0.8066 -0.0492
   71SLPC  H10R 6166   2.559   4.726   9.421 -1.3639  0.4279  0.2257
   71SLPC  C211 6167   2.518   4.940   9.415 -0.6299 -0.9436 -0.0200
   71SLPC  H11R 6168   2.601   4.980   9.353 -0.2561  0.7696  1.5241
   71SLPC  H11S 6169   2.499   5.019   9.491 -1.3321 -1.4538  0.3417
   71SLPC  C212 6170   2.393   4.929   9.338  0.8570 -0.3630 -0.2484
   71SLPC  H12R 6171   2.303   4.892   9.390 -0.0040 -0.0365 -1.4450
   71SLPC  C213 6172   2.381   4.946   9.208 -0.6794 -1.0486 -0.7601
   71SLPC  H13R 6173   2.280   4.924   9.173  0.0229 -3.1523 -1.6037
   71SLPC  C214 6174   2.492   4.984   9.111  0.7143 -0.2261  0.9047
   71SLPC  H14R 6175   2.587   5.015   9.160  0.6526 -0.5828  1.2552
   71SLPC  H14S 6176   2.462   5.064   9.040  0.5823 -0.2351  0.9504
   71SLPC  C215 6177   2.522   4.878   9.001 -0.2692  0.1253 -0.9457
   71SLPC  H15R 6178   2.564   4.785   9.043 -0.6355  0.0981 -0.6388
   71SLPC  H15S 6179   2.598   4.912   8.927 -0.0585  1.6867 -0.0603
   71SLPC  C216 6180   2.403   4.811   8.928  0.9054 -0.4232 -0.0731
   71SLPC  H16R 6181   2.318   4.883   8.929  0.7047 -0.6640  0.4133
   71SLPC  H16S 6182   2.372   4.729   8.995  0.8148 -0.3949 -0.0797
   71SLPC  C217 6183   2.441   4.751   8.791  0.0572  0.9483 -0.2493
   71SLPC  H17R 6184   2.368   4.669   8.771  2.0176 -1.7053  2.5195
   71SLPC  H17S 6185   2.536   4.694   8.802 -0.3742  0.4998  1.5948
   71SLPC  C218 6186   2.438   4.854   8.678  0.1801  0.6019  0.6920
   71SLPC  H18R 6187   2.518   4.929   8.698  1.6410 -0.9306  0.8364
   71SLPC  H18S 6188   2.340   4.905   8.670  0.8401  1.7686 -0.4721
   71SLPC  H18T 6189   2.457   4.803   8.581  1.8820  1.1005  0.7302
   71SLPC   C33 6190   1.774   5.417   9.785 -0.3321  0.9395  0.5390
   71SLPC   H3X 6191   1.855   5.342   9.770 -0.6245  0.9122 -1.0944
   71SLPC   H3Y 6192   1.806   5.517   9.751  1.0062  0.6476  0.8700
   71SLPC   C34 6193   1.671   5.360   9.671 -0.6307 -0.3149 -0.2453
   71SLPC   H4X 6194   1.596   5.442   9.673  0.4864  0.7601  3.2126
   71SLPC   H4Y 6195   1.614   5.271   9.706 -0.4611 -0.1997  0.3355
   71SLPC   C35 6196   1.742   5.345   9.535 -0.2857  0.0471  0.0838
   71SLPC   H5X 6197   1.814   5.261   9.544 -1.9428 -1.3331  1.2805
   71SLPC   H5Y 6198   1.786   5.442   9.504 -3.2916  1.3871 -0.3527
   71SLPC   C36 6199   1.643   5.318   9.418 -0.2542 -0.0303  0.5436
   71SLPC   H6X 6200   1.577   5.405   9.397 -2.4983 -2.1073 -1.5351
   71SLPC   H6Y 6201   1.579   5.236   9.456  2.0678 -1.9849  0.4718
   71SLPC   C37 6202   1.715   5.252   9.300 -0.4406  0.3310  0.0494
   71SLPC   H7X 6203   1.772   5.164   9.337 -0.6432 -0.1491 -0.7475
   71SLPC   H7Y 6204   1.786   5.319   9.247 -0.2027  0.5803  0.6731
   71SLPC   C38 6205   1.611   5.199   9.202 -0.1765 -0.4480  0.3272
   71SLPC   H8X 6206   1.556   5.290   9.167  0.9750 -0.6708 -2.3085
   71SLPC   H8Y 6207   1.544   5.119   9.240  1.0855 -0.6785  2.1770
   71SLPC   C39 6208   1.673   5.131   9.077 -0.7335  0.2434 -0.1709
   71SLPC   H9X 6209   1.704   5.027   9.100  1.0314  1.0931  1.6489
   71SLPC   H9Y 6210   1.759   5.189   9.036 -0.4422 -0.7505 -1.0145
   71SLPC  C310 6211   1.582   5.113   8.955  0.4406  0.5344  0.0047
   71SLPC  H10X 6212   1.628   5.044   8.880 -1.7781 -0.2177 -0.7337
   71SLPC  H10Y 6213   1.570   5.214   8.912  0.8687  1.6195  2.3107
   71SLPC  C311 6214   1.441   5.057   8.980 -0.4358 -0.2896 -0.6490
   71SLPC  H11X 6215   1.397   5.138   9.042  0.9754  0.2428 -0.3055
   71SLPC  H11Y 6216   1.456   4.965   9.041 -2.2586  1.6065  3.0464
   71SLPC  C312 6217   1.363   5.044   8.847  0.3199  0.7981  0.4073
   71SLPC  H12X 6218   1.394   5.127   8.780  0.9760  1.9443  2.0525
   71SLPC  H12Y 6219   1.254   5.039   8.871  0.7086 -2.6867  2.0760
   71SLPC  C313 6220   1.389   4.915   8.777  0.2003 -0.0331 -0.0326
   71SLPC  H13X 6221   1.353   4.829   8.837  0.1695  1.2205  1.8221
   71SLPC  H13Y 6222   1.499   4.907   8.758  0.4823  0.5894  1.2611
   71SLPC  C314 6223   1.330   4.913   8.637  0.1845  0.0751  0.7389
   71SLPC  H14X 6224   1.407   4.862   8.575 -0.3444  1.8137 -1.4864
   71SLPC  H14Y 6225   1.309   5.015   8.599  1.3417  0.5096  1.1986
   71SLPC  C315 6226   1.203   4.821   8.627 -0.7416 -0.2768  0.0857
   71SLPC  H15X 6227   1.116   4.890   8.634 -0.1934  0.7338 -1.9891
   71SLPC  H15Y 6228   1.191   4.754   8.715 -1.0229  0.0062  0.2668
   71SLPC  C316 6229   1.205   4.746   8.492 -0.4850 -0.2743 -0.6767
   71SLPC  H16X 6230   1.288   4.674   8.479 -1.6625 -1.5391 -1.5473
   71SLPC  H16Y 6231   1.222   4.815   8.407 -0.8823  3.6426  2.1468
   71SLPC  C317 6232   1.063   4.683   8.464  0.7924 -0.6328  0.0989
   71SLPC  H17X 6233   1.065   4.629   8.367 -0.2990 -0.7389  0.1241
   71SLPC  H17Y 6234   0.981   4.756   8.455  0.3632 -1.1967 -0.7531
   71SLPC  C318 6235   1.028   4.574   8.564  0.2332 -0.1398  0.1846
   71SLPC  H18X 6236   1.009   4.600   8.671 -0.3113 -0.2175  0.1086
   71SLPC  H18Y 6237   1.109   4.498   8.567  0.3245 -0.0834 -0.8103
   71SLPC  H18Z 6238   0.941   4.518   8.523 -0.3219 -0.0773  1.2321
   72SLPC     N 6239   3.628   0.326  10.842  0.0976  0.1411 -0.5471
   72SLPC   C13 6240   3.674   0.345  10.981 -0.3223  0.4967  0.1150
   72SLPC  H13A 6241   3.725   0.439  10.967  0.6579 -0.2183 -1.3979
   72SLPC  H13B 6242   3.589   0.354  11.047 -0.8977  0.3536 -0.5967
   72SLPC  H13C 6243   3.756   0.282  11.012 -1.0619  0.0319  1.1869
   72SLPC   C14 6244   3.512   0.410  10.822  0.1500 -0.3569 -0.1867
   72SLPC  H14A 6245   3.428   0.388  10.886 -0.2892 -2.6679 -1.4297
   72SLPC  H14B 6246   3.542   0.513  10.833  1.6939 -0.8390  0.3575
   72SLPC  H14C 6247   3.467   0.387  10.726 -0.1811 -2.6108  0.4476
   72SLPC   C15 6248   3.589   0.181  10.821 -0.2371  0.1215 -0.6284
   72SLPC  H15A 6249   3.562   0.158  10.719 -4.0581  2.7553 -0.3964
   72SLPC  H15B 6250   3.665   0.110  10.849 -1.8378 -1.0582  0.9849
   72SLPC  H15C 6251   3.501   0.167  10.882  0.3025  2.3448  0.7661
   72SLPC   C12 6252   3.748   0.364  10.747  0.6028 -0.4665  0.3592
   72SLPC  H12A 6253   3.719   0.359  10.643 -1.0559  3.0990  0.5079
   72SLPC  H12B 6254   3.826   0.291  10.762 -0.1533 -1.3502  0.0487
   72SLPC   C11 6255   3.806   0.508  10.761 -0.0287  1.1417  0.0641
   72SLPC  H11A 6256   3.721   0.579  10.748 -0.1850  0.7308 -1.3754
   72SLPC  H11B 6257   3.877   0.519  10.676  1.2784  2.9652  1.3258
   72SLPC     P 6258   4.025   0.517  10.914 -0.2562 -0.2334 -0.4572
   72SLPC   O13 6259   4.061   0.559  11.051 -0.1234 -0.0410  0.5688
   72SLPC   O14 6260   4.076   0.389  10.865 -0.4246 -0.4075  0.1890
   72SLPC   O12 6261   3.871   0.526  10.888  0.6520 -0.6920 -0.5108
   72SLPC   O11 6262   4.083   0.634  10.816  0.0713  0.0587  0.5275
   72SLPC    C1 6263   4.047   0.773  10.824  0.5368  0.9610  0.1123
   72SLPC    HA 6264   3.984   0.789  10.914  2.0864  2.7191  0.9611
   72SLPC    HB 6265   4.143   0.828  10.831  0.3153  1.2288  1.2238
   72SLPC    C2 6266   3.957   0.825  10.717  0.1433 -0.8386  0.0474
   72SLPC    HS 6267   3.859   0.775  10.732 -0.7849  0.9528  0.1862
   72SLPC   O21 6268   4.019   0.807  10.591 -0.2536  0.3569 -0.1012
   72SLPC   C21 6269   3.928   0.785  10.493  0.1360 -0.5638  0.4924
   72SLPC   O22 6270   3.808   0.772  10.508  0.1720 -0.3299 -0.1117
   72SLPC   C22 6271   4.004   0.767  10.365 -0.4140  0.0264  0.1461
   72SLPC   H2R 6272   4.057   0.860  10.335  0.2538 -0.5278 -0.4165
   72SLPC   H2S 6273   4.086   0.695  10.387  1.3906  1.9588 -0.0062
   72SLPC    C3 6274   3.914   0.974  10.734  0.0373 -0.2976 -0.0876
   72SLPC    HX 6275   4.004   1.038  10.731 -0.3000  0.2611  1.1557
   72SLPC    HY 6276   3.862   0.994  10.831  1.4647  2.0362  0.2625
   72SLPC   O31 6277   3.821   1.020  10.631 -0.0712 -0.2896  0.0661
   72SLPC   C31 6278   3.865   1.108  10.537  0.4460  0.3308  0.7783
   72SLPC   O32 6279   3.978   1.140  10.519  0.2791 -0.0902 -0.5473
   72SLPC   C32 6280   3.757   1.135  10.432  0.1568 -0.5045 -0.5080
   72SLPC   H2X 6281   3.765   1.245  10.421 -0.3952 -0.3155  0.8456
   72SLPC   H2Y 6282   3.654   1.115  10.467  0.8285 -1.3850  1.0474
   72SLPC   C23 6283   3.922   0.704  10.251  0.0697  0.0698  0.2877
   72SLPC   H3R 6284   3.843   0.773  10.213  0.3013  0.7757  1.0692
   72SLPC   H3S 6285   3.870   0.619  10.299  2.5086 -0.1312  2.7971
   72SLPC   C24 6286   3.995   0.672  10.123  1.6160  0.1928  0.1413
   72SLPC   H4R 6287   3.920   0.634  10.050  0.5223 -1.2339  1.9220
   72SLPC   H4S 6288   4.063   0.588  10.150 -0.6679 -1.8312 -0.0512
   72SLPC   C25 6289   4.065   0.793  10.062  0.3742  0.2376  0.3368
   72SLPC   H5R 6290   4.143   0.831  10.132  0.7672  0.5858 -0.2773
   72SLPC   H5S 6291   3.998   0.875  10.033  1.3842  0.3794 -1.7523
   72SLPC   C26 6292   4.146   0.756   9.933  0.4172  0.0212 -0.8086
   72SLPC   H6R 6293   4.204   0.663   9.953  0.6427 -0.2696 -2.6403
   72SLPC   H6S 6294   4.217   0.839   9.916  1.5729 -0.7144  0.2643
   72SLPC   C27 6295   4.064   0.713   9.813  0.1155 -0.5993 -0.7485
   72SLPC   H7R 6296   3.999   0.799   9.785 -0.3705 -0.0434  1.8360
   72SLPC   H7S 6297   3.991   0.633   9.837 -2.0257  0.9538 -1.7471
   72SLPC   C28 6298   4.128   0.642   9.699 -0.1587  0.1535  0.4063
   72SLPC   H8R 6299   4.191   0.721   9.654 -1.1152 -0.0188 -1.3060
   72SLPC   H8S 6300   4.057   0.617   9.618  0.6891 -0.9507 -0.0339
   72SLPC   C29 6301   4.224   0.525   9.734  0.4230  0.0474 -0.4280
   72SLPC   H9R 6302   4.217   0.478   9.834 -0.1194  0.7807 -0.1101
   72SLPC  C210 6303   4.316   0.469   9.662 -0.8438  0.9310 -0.6130
   72SLPC  H10R 6304   4.371   0.388   9.712 -0.8204  1.6386  0.5460
   72SLPC  C211 6305   4.346   0.515   9.522 -0.6008 -0.4922  0.7646
   72SLPC  H11R 6306   4.453   0.539   9.506 -1.2856  1.9919 -0.7428
   72SLPC  H11S 6307   4.302   0.615   9.502 -0.5310 -0.6603 -0.2895
   72SLPC  C212 6308   4.310   0.415   9.409 -0.9250  0.1144  0.1919
   72SLPC  H12R 6309   4.310   0.310   9.441  0.0529 -0.1736 -0.7141
   72SLPC  C213 6310   4.279   0.448   9.286 -0.9865  0.5168  0.0989
   72SLPC  H13R 6311   4.235   0.371   9.220 -0.0707  1.1769 -1.3341
   72SLPC  C214 6312   4.279   0.590   9.226  0.6320  0.2490 -0.6088
   72SLPC  H14R 6313   4.293   0.594   9.116 -0.7464 -0.3652 -0.8323
   72SLPC  H14S 6314   4.350   0.662   9.271  1.5527 -0.2733 -1.1866
   72SLPC  C215 6315   4.156   0.679   9.256 -0.4528 -0.5220  0.3283
   72SLPC  H15R 6316   4.188   0.779   9.218 -2.5141 -0.8790 -2.7374
   72SLPC  H15S 6317   4.137   0.686   9.365 -1.8238 -0.1070  0.0794
   72SLPC  C216 6318   4.032   0.637   9.180  0.0412 -0.2404 -0.4332
   72SLPC  H16R 6319   4.001   0.546   9.236  1.6188 -0.1901  0.6089
   72SLPC  H16S 6320   4.051   0.621   9.072  0.3721  1.1394 -0.5924
   72SLPC  C217 6321   3.908   0.727   9.203  0.3783 -0.3439  0.5084
   72SLPC  H17R 6322   3.820   0.684   9.152 -1.3372  3.8896 -0.5476
   72SLPC  H17S 6323   3.930   0.826   9.159  0.0595 -0.7231 -0.5257
   72SLPC  C218 6324   3.867   0.743   9.349  0.0116 -0.5252  0.1270
   72SLPC  H18R 6325   3.770   0.797   9.354  0.1127 -0.4128  1.0023
   72SLPC  H18S 6326   3.942   0.813   9.393 -1.2448  0.1861  1.2272
   72SLPC  H18T 6327   3.854   0.653   9.413  2.0111 -0.6502  0.4015
   72SLPC   C33 6328   3.804   1.086  10.292  0.0618  0.2382  0.4386
   72SLPC   H3X 6329   3.783   0.980  10.268  2.8607  0.3013 -3.1286
   72SLPC   H3Y 6330   3.913   1.096  10.276 -0.0669 -0.9540 -1.4403
   72SLPC   C34 6331   3.755   1.180  10.181 -0.5057  0.3655 -0.0158
   72SLPC   H4X 6332   3.805   1.276  10.205  0.2866  0.5261 -2.0587
   72SLPC   H4Y 6333   3.644   1.191  10.175 -0.8223 -2.6502 -2.2093
   72SLPC   C35 6334   3.810   1.137  10.045 -0.5377  0.0145 -0.7291
   72SLPC   H5X 6335   3.921   1.134  10.055 -0.6559  0.1371  0.9065
   72SLPC   H5Y 6336   3.780   1.227   9.988 -2.5095  0.2988  0.6740
   72SLPC   C36 6337   3.749   1.012   9.975  0.0455 -0.3879  0.0593
   72SLPC   H6X 6338   3.639   1.009   9.962  0.0730 -2.2553  0.1108
   72SLPC   H6Y 6339   3.777   0.922  10.033  0.0346 -1.4247 -1.5053
   72SLPC   C37 6340   3.798   1.008   9.827 -0.2900 -0.3872 -0.4434
   72SLPC   H7X 6341   3.766   0.907   9.794  0.4927 -0.9339  0.4072
   72SLPC   H7Y 6342   3.907   1.014   9.809 -0.0034  0.6767  1.3884
   72SLPC   C38 6343   3.736   1.117   9.732 -0.4336 -0.6378 -0.2610
   72SLPC   H8X 6344   3.782   1.215   9.755 -2.1703  0.2672 -0.4550
   72SLPC   H8Y 6345   3.627   1.126   9.752 -0.8900 -1.5164 -2.0830
   72SLPC   C39 6346   3.752   1.085   9.590 -0.4196  0.2210 -0.0835
   72SLPC   H9X 6347   3.669   1.020   9.553 -0.1188 -0.1825 -0.0619
   72SLPC   H9Y 6348   3.841   1.022   9.570 -1.2663 -1.4697  1.1760
   72SLPC  C310 6349   3.737   1.205   9.496 -0.1420 -0.2136 -0.6889
   72SLPC  H10X 6350   3.818   1.280   9.511 -0.1200 -0.3809  0.0576
   72SLPC  H10Y 6351   3.637   1.253   9.501  0.1293  0.4883 -1.6081
   72SLPC  C311 6352   3.743   1.156   9.343 -0.6896  0.1786  0.3608
   72SLPC  H11X 6353   3.654   1.103   9.305  1.1775 -2.9406  0.0148
   72SLPC  H11Y 6354   3.838   1.100   9.329 -0.2369  0.6916  1.2312
   72SLPC  C312 6355   3.756   1.276   9.248 -0.6317  0.1033 -0.1328
   72SLPC  H12X 6356   3.825   1.348   9.297 -0.6825  1.3356 -1.7792
   72SLPC  H12Y 6357   3.667   1.341   9.244  0.4508  1.6023 -0.9440
   72SLPC  C313 6358   3.810   1.236   9.108  0.9206  0.0868  0.0127
   72SLPC  H13X 6359   3.874   1.145   9.107 -1.8487 -2.0541 -1.7981
   72SLPC  H13Y 6360   3.868   1.319   9.065  0.1079 -0.2004 -1.7502
   72SLPC  C314 6361   3.703   1.215   8.996 -0.1113 -0.6778  0.6468
   72SLPC  H14X 6362   3.759   1.233   8.901 -0.4835  0.2341  0.5885
   72SLPC  H14Y 6363   3.621   1.289   9.000  0.2343 -0.0703 -1.7186
   72SLPC  C315 6364   3.633   1.075   9.000 -0.2283  0.6828 -0.0517
   72SLPC  H15X 6365   3.563   1.069   8.914  0.4908 -3.2157 -0.5541
   72SLPC  H15Y 6366   3.582   1.073   9.099 -0.2821  1.9902 -0.0374
   72SLPC  C316 6367   3.727   0.953   9.005  0.6764 -0.8925  0.0441
   72SLPC  H16X 6368   3.646   0.878   9.018 -0.2107 -0.0424 -0.4477
   72SLPC  H16Y 6369   3.790   0.957   9.097  0.2581  0.4971  0.2983
   72SLPC  C317 6370   3.795   0.911   8.868  0.2272 -0.0474 -0.0622
   72SLPC  H17X 6371   3.885   0.976   8.868  0.3829 -0.2638  0.3423
   72SLPC  H17Y 6372   3.727   0.947   8.787  0.4864 -0.7085 -0.5849
   72SLPC  C318 6373   3.833   0.765   8.844 -0.3266  0.6336  0.2533
   72SLPC  H18X 6374   3.900   0.726   8.923  1.2450  1.0411 -0.8214
   72SLPC  H18Y 6375   3.894   0.754   8.752  3.9142 -2.5152  3.0508
   72SLPC  H18Z 6376   3.748   0.694   8.837 -0.3682  0.8228 -1.9659
   73SLPC     N 6377   2.938   6.513  11.109 -0.2526  0.3307  0.3074
   73SLPC   C13 6378   3.034   6.401  11.112  0.1419  0.0871  0.7639
   73SLPC  H13A 6379   3.108   6.430  11.185  1.1277 -0.7680  0.1274
   73SLPC  H13B 6380   2.997   6.304  11.143  4.5841 -1.5402  1.7562
   73SLPC  H13C 6381   3.078   6.389  11.015  1.1701 -1.5986  1.4009
   73SLPC   C14 6382   3.020   6.644  11.100 -0.5856  0.7609 -0.2158
   73SLPC  H14A 6383   3.086   6.640  11.015  0.2957  1.0972  0.4386
   73SLPC  H14B 6384   2.948   6.723  11.084  0.4293  1.7254 -0.0867
   73SLPC  H14C 6385   3.077   6.666  11.189  0.1975 -1.9794  0.0415
   73SLPC   C15 6386   2.858   6.520  11.229  0.4638 -0.0296 -0.0109
   73SLPC  H15A 6387   2.777   6.449  11.221  1.0518 -0.5029 -4.7804
   73SLPC  H15B 6388   2.920   6.513  11.317 -0.7890  1.4583  1.0444
   73SLPC  H15C 6389   2.819   6.621  11.237  0.2373  0.0636 -1.7852
   73SLPC   C12 6390   2.844   6.491  10.988 -0.9007  0.1875 -0.4656
   73SLPC  H12A 6391   2.817   6.387  10.979  0.0563 -0.2259  1.0045
   73SLPC  H12B 6392   2.904   6.490  10.898 -1.6425 -0.8999 -0.9644
   73SLPC   C11 6393   2.732   6.588  10.958  0.9661  0.2978  1.1005
   73SLPC  H11A 6394   2.677   6.590  11.054  0.0130 -2.8796  0.7251
   73SLPC  H11B 6395   2.660   6.552  10.881 -0.1259  2.3319  1.1067
   73SLPC     P 6396   2.837   6.761  10.793  0.4265  0.0188  0.0393
   73SLPC   O13 6397   2.734   6.823  10.709 -0.2019  0.1182 -0.1437
   73SLPC   O14 6398   2.953   6.852  10.827  0.5101 -0.0999 -0.6627
   73SLPC   O12 6399   2.775   6.725  10.930  0.9221 -0.5884  0.5154
   73SLPC   O11 6400   2.892   6.622  10.743 -0.0443 -0.1161  0.8632
   73SLPC    C1 6401   2.819   6.536  10.653 -0.6235 -0.0784  0.1630
   73SLPC    HA 6402   2.801   6.444  10.714 -0.8013 -0.4033 -0.3746
   73SLPC    HB 6403   2.718   6.577  10.628 -0.6393  0.3323  0.8693
   73SLPC    C2 6404   2.902   6.511  10.523 -0.0308 -0.0747 -0.5178
   73SLPC    HS 6405   3.004   6.479  10.553 -1.2048 -2.1931  1.4859
   73SLPC   O21 6406   2.893   6.628  10.439 -0.4703 -0.5362  0.0378
   73SLPC   C21 6407   3.009   6.688  10.418  0.5957  0.4113  0.5251
   73SLPC   O22 6408   3.114   6.654  10.474  0.0863 -0.6793 -0.1360
   73SLPC   C22 6409   2.993   6.805  10.330  0.1697  0.5111  0.0178
   73SLPC   H2R 6410   2.885   6.814  10.306  0.2541 -0.6407 -0.8442
   73SLPC   H2S 6411   3.007   6.894  10.395 -2.8130  0.0381  1.4543
   73SLPC    C3 6412   2.838   6.386  10.444 -0.5574 -0.6995  1.2355
   73SLPC    HX 6413   2.737   6.421  10.414 -0.3720 -0.1580  1.2408
   73SLPC    HY 6414   2.821   6.288  10.494  2.2482 -1.5947  0.6258
   73SLPC   O31 6415   2.919   6.369  10.320 -0.2054  0.1682  0.3882
   73SLPC   C31 6416   2.861   6.299  10.222  0.0954 -0.4723  0.2424
   73SLPC   O32 6417   2.749   6.256  10.221 -0.1739  0.6565  0.5065
   73SLPC   C32 6418   2.960   6.304  10.103  0.1079  0.1865  0.3223
   73SLPC   H2X 6419   3.042   6.244  10.148 -0.3039  1.0766  2.3656
   73SLPC   H2Y 6420   2.997   6.407  10.088 -0.9556  0.3737 -1.2774
   73SLPC   C23 6421   3.073   6.816  10.193 -0.0080  0.4768 -0.0933
   73SLPC   H3R 6422   3.181   6.804  10.214  0.1349  1.2307 -0.3752
   73SLPC   H3S 6423   3.071   6.922  10.160  2.1542  0.4858 -0.3220
   73SLPC   C24 6424   3.019   6.729  10.080 -0.0248 -0.5791  0.3431
   73SLPC   H4R 6425   3.040   6.624  10.109 -1.2720 -0.6260  1.1792
   73SLPC   H4S 6426   3.079   6.753   9.990 -0.2067  0.9996  0.5991
   73SLPC   C25 6427   2.872   6.759  10.046  0.4895  0.3617  0.4044
   73SLPC   H5R 6428   2.841   6.866  10.049 -3.0316 -0.5473  0.4058
   73SLPC   H5S 6429   2.813   6.710  10.126 -0.2922 -0.5725 -0.7210
   73SLPC   C26 6430   2.820   6.700   9.912 -0.1192 -0.1180 -0.4882
   73SLPC   H6R 6431   2.710   6.716   9.916 -0.4485 -2.2993  2.5214
   73SLPC   H6S 6432   2.838   6.593   9.891 -1.2738 -0.3502 -0.3305
   73SLPC   C27 6433   2.885   6.778   9.802  0.0866 -0.3093  1.2318
   73SLPC   H7R 6434   2.986   6.737   9.782 -0.0053 -0.8247  1.7931
   73SLPC   H7S 6435   2.895   6.885   9.831 -1.3215  0.6765 -1.5247
   73SLPC   C28 6436   2.793   6.784   9.679  0.5185 -0.7206 -0.0698
   73SLPC   H8R 6437   2.840   6.861   9.614  0.4878  0.6832  1.5038
   73SLPC   H8S 6438   2.698   6.827   9.718  1.2608  0.4811  0.4993
   73SLPC   C29 6439   2.764   6.654   9.609  0.4027 -1.3384  0.1084
   73SLPC   H9R 6440   2.757   6.569   9.678 -0.3102 -0.6518  0.8847
   73SLPC  C210 6441   2.775   6.631   9.474  0.5762  0.4188 -0.1060
   73SLPC  H10R 6442   2.752   6.533   9.430  1.5018  0.6418 -1.1271
   73SLPC  C211 6443   2.791   6.745   9.375 -0.9458  0.6496 -0.2077
   73SLPC  H11R 6444   2.749   6.842   9.412 -0.5829  0.8574 -0.3355
   73SLPC  H11S 6445   2.732   6.731   9.282  1.6333  0.5302 -1.9173
   73SLPC  C212 6446   2.933   6.766   9.334  0.5838 -0.6852 -0.1672
   73SLPC  H12R 6447   3.008   6.733   9.407 -0.3021 -3.9460 -0.5683
   73SLPC  C213 6448   2.984   6.822   9.223 -0.5447  0.1677 -0.2362
   73SLPC  H13R 6449   3.092   6.804   9.216 -0.5906 -0.0161 -0.4774
   73SLPC  C214 6450   2.925   6.881   9.101 -0.3036 -0.0533  1.0537
   73SLPC  H14R 6451   2.961   6.986   9.102  1.9089 -0.7524  0.9114
   73SLPC  H14S 6452   2.815   6.875   9.113 -0.3735 -1.5129 -0.0516
   73SLPC  C215 6453   2.965   6.824   8.970  0.5932  0.1452  0.0970
   73SLPC  H15R 6454   2.928   6.721   8.954  0.5678 -0.1224  1.6727
   73SLPC  H15S 6455   3.074   6.815   8.949  0.6591  2.0988 -0.6337
   73SLPC  C216 6456   2.901   6.907   8.854 -0.1471 -0.2100  0.1090
   73SLPC  H16R 6457   2.947   7.008   8.852 -1.7790  0.6537  2.3035
   73SLPC  H16S 6458   2.795   6.924   8.882  0.0937 -0.3294  1.1259
   73SLPC  C217 6459   2.912   6.827   8.728 -0.2094  0.3609  0.1712
   73SLPC  H17R 6460   2.835   6.856   8.653  1.2472  0.6266 -1.2910
   73SLPC  H17S 6461   2.897   6.719   8.749  1.2070  0.5589  2.6210
   73SLPC  C218 6462   3.039   6.852   8.647 -0.1238  0.2411  0.3170
   73SLPC  H18R 6463   3.019   6.810   8.546 -0.5398  4.1261 -1.3804
   73SLPC  H18S 6464   3.116   6.786   8.692  0.4546  1.2862  0.9126
   73SLPC  H18T 6465   3.072   6.958   8.644 -0.6072  0.4157  0.8944
   73SLPC   C33 6466   2.905   6.239   9.980  0.2584  0.1934 -0.9452
   73SLPC   H3X 6467   2.816   6.300   9.953  0.9368  2.6635  1.8468
   73SLPC   H3Y 6468   2.893   6.129   9.977 -0.2442  0.2499 -2.7354
   73SLPC   C34 6469   3.001   6.276   9.857  0.5442  0.5054 -0.3035
   73SLPC   H4X 6470   3.089   6.210   9.863 -0.5225 -1.1286 -1.7408
   73SLPC   H4Y 6471   3.028   6.382   9.880  1.7512 -0.3124  2.4494
   73SLPC   C35 6472   2.943   6.255   9.711 -0.3766 -0.0855 -0.3078
   73SLPC   H5X 6473   2.841   6.296   9.723 -0.4820 -0.1382 -1.0206
   73SLPC   H5Y 6474   2.933   6.147   9.687 -1.5108 -0.0270 -0.1584
   73SLPC   C36 6475   3.031   6.336   9.602  0.5237  0.0305 -0.8785
   73SLPC   H6X 6476   3.133   6.294   9.612  0.6373  0.3521 -0.6757
   73SLPC   H6Y 6477   3.036   6.444   9.628  0.2813 -0.7326  2.8469
   73SLPC   C37 6478   2.972   6.325   9.461  0.7176  0.0398  0.1269
   73SLPC   H7X 6479   2.867   6.362   9.467  0.3334 -1.2587  3.2965
   73SLPC   H7Y 6480   2.962   6.221   9.423  0.9897  0.5785 -1.5013
   73SLPC   C38 6481   3.055   6.417   9.364 -0.3622  0.2325 -0.2584
   73SLPC   H8X 6482   3.163   6.390   9.363 -0.5275 -0.5356 -2.3689
   73SLPC   H8Y 6483   3.034   6.525   9.380 -0.5402  0.1104  0.3833
   73SLPC   C39 6484   3.006   6.387   9.218  0.2055  0.0229  0.3380
   73SLPC   H9X 6485   2.901   6.424   9.221  0.8545  1.9731  2.4105
   73SLPC   H9Y 6486   3.012   6.277   9.206  1.4882  0.1629 -0.4937
   73SLPC  C310 6487   3.102   6.439   9.117  0.4712 -0.4000 -0.1417
   73SLPC  H10X 6488   3.209   6.412   9.134  0.6717  0.8768  0.7976
   73SLPC  H10Y 6489   3.105   6.550   9.131 -1.3010 -0.5416  1.8163
   73SLPC  C311 6490   3.058   6.407   8.968 -0.4040  0.4570 -0.3681
   73SLPC  H11X 6491   2.956   6.447   8.952  0.1779  1.7593 -1.0327
   73SLPC  H11Y 6492   3.051   6.297   8.951 -2.4741  0.2089  1.6997
   73SLPC  C312 6493   3.155   6.478   8.879  0.4982  0.3523  0.0875
   73SLPC  H12X 6494   3.255   6.454   8.920  0.8111  2.2513  0.5329
   73SLPC  H12Y 6495   3.153   6.589   8.883 -0.0598  0.4685 -1.9707
   73SLPC  C313 6496   3.140   6.434   8.734 -0.6121 -0.1727 -0.8871
   73SLPC  H13X 6497   3.050   6.484   8.690  1.2804  3.7236 -0.7859
   73SLPC  H13Y 6498   3.126   6.325   8.723 -0.2434 -0.1985 -1.1103
   73SLPC  C314 6499   3.250   6.483   8.637 -0.2392 -0.3222  0.6031
   73SLPC  H14X 6500   3.350   6.453   8.677  0.4354 -0.0996 -0.8542
   73SLPC  H14Y 6501   3.248   6.593   8.627 -1.9696 -0.3024  0.8670
   73SLPC  C315 6502   3.236   6.434   8.492  0.1816  0.3061  0.1862
   73SLPC  H15X 6503   3.212   6.325   8.487 -1.2124  0.6395 -1.2141
   73SLPC  H15Y 6504   3.338   6.450   8.449  0.7160 -1.1305  0.8358
   73SLPC  C316 6505   3.130   6.510   8.406  0.7544 -0.3528 -0.9092
   73SLPC  H16X 6506   3.166   6.613   8.424  1.0997 -0.8679  1.8644
   73SLPC  H16Y 6507   3.035   6.503   8.463  0.1118 -0.7615 -1.9956
   73SLPC  C317 6508   3.113   6.475   8.254  0.4531  0.0231 -0.1147
   73SLPC  H17X 6509   3.216   6.474   8.211  0.1285 -0.3571 -0.8801
   73SLPC  H17Y 6510   3.057   6.554   8.200  1.0489 -0.4061 -1.3888
   73SLPC  C318 6511   3.042   6.339   8.243 -0.8640  0.5213  0.4512
   73SLPC  H18X 6512   3.038   6.309   8.136  0.0569  0.1930  0.4984
   73SLPC  H18Y 6513   2.940   6.325   8.284 -0.1384 -0.0371  2.1886
   73SLPC  H18Z 6514   3.113   6.266   8.289  0.4128  1.6401  0.3157
   74SLPC     N 6515   5.727   4.941  11.065 -0.2299 -0.1275  0.2381
   74SLPC   C13 6516   5.666   5.006  11.184  0.1408 -0.1833 -0.0346
   74SLPC  H13A 6517   5.619   4.931  11.247  2.2100 -0.6167  1.1197
   74SLPC  H13B 6518   5.736   5.061  11.245  0.3702 -1.4518  0.9107
   74SLPC  H13C 6519   5.592   5.079  11.157 -0.3898 -0.6307  0.1722
   74SLPC   C14 6520   5.827   4.837  11.119  0.7977 -0.1331  0.5819
   74SLPC  H14A 6521   5.784   4.786  11.204 -1.3117  0.8043  0.1337
   74SLPC  H14B 6522   5.874   4.781  11.040 -0.2629 -1.0570  0.5902
   74SLPC  H14C 6523   5.906   4.899  11.159  1.2293 -0.3226  0.0375
   74SLPC   C15 6524   5.800   5.041  10.982  0.4712  0.6743 -0.2217
   74SLPC  H15A 6525   5.744   5.130  10.957 -0.5440  1.6534  4.4398
   74SLPC  H15B 6526   5.892   5.080  11.025 -0.1626  1.2305  0.6766
   74SLPC  H15C 6527   5.823   4.988  10.891  1.3345 -1.2272  1.0479
   74SLPC   C12 6528   5.624   4.865  10.992 -0.0445  0.2846 -0.1566
   74SLPC  H12A 6529   5.554   4.932  10.945  1.4552  1.0234 -1.4356
   74SLPC  H12B 6530   5.568   4.805  11.062 -0.4623  1.5694  0.6410
   74SLPC   C11 6531   5.663   4.775  10.877 -0.8481 -0.0755 -0.0287
   74SLPC  H11A 6532   5.589   4.710  10.826  1.8559 -2.0203 -1.8171
   74SLPC  H11B 6533   5.730   4.692  10.906  0.4604  0.4906 -1.2900
   74SLPC     P 6534   5.646   4.944  10.666  0.2863  0.5081  0.2842
   74SLPC   O13 6535   5.501   4.939  10.693 -0.2946 -0.2672 -0.5476
   74SLPC   O14 6536   5.698   5.084  10.665 -0.6568  0.1739  0.3623
   74SLPC   O12 6537   5.723   4.856  10.772  0.4953  0.2168 -0.4163
   74SLPC   O11 6538   5.679   4.872  10.532 -0.2299  0.0811  0.1450
   74SLPC    C1 6539   5.638   4.735  10.506 -0.0474 -0.5698 -0.4622
   74SLPC    HA 6540   5.550   4.697  10.563  0.6268 -1.0422  0.2919
   74SLPC    HB 6541   5.614   4.727  10.398  1.1326  1.1781 -0.8966
   74SLPC    C2 6542   5.756   4.641  10.538 -0.6257  0.0867  0.3168
   74SLPC    HS 6543   5.829   4.679  10.614  0.9209  1.2469 -1.6422
   74SLPC   O21 6544   5.821   4.626  10.409 -0.5983  0.3103  0.6459
   74SLPC   C21 6545   5.936   4.568  10.416  0.0516  1.2796  0.1626
   74SLPC   O22 6546   5.994   4.527  10.515 -0.1898  0.0609  0.2370
   74SLPC   C22 6547   6.002   4.569  10.279 -0.9600  1.0433  0.2992
   74SLPC   H2R 6548   6.064   4.479  10.260 -1.9923  0.2942  0.3463
   74SLPC   H2S 6549   5.920   4.565  10.204 -0.0206 -1.8535 -0.7104
   74SLPC    C3 6550   5.700   4.500  10.575  0.2709  0.3998  0.2710
   74SLPC    HX 6551   5.645   4.516  10.670  2.9093  1.6879  1.6960
   74SLPC    HY 6552   5.785   4.434  10.598 -0.8903 -1.4290 -0.4716
   74SLPC   O31 6553   5.616   4.449  10.469 -0.2045 -0.4467  0.2469
   74SLPC   C31 6554   5.651   4.345  10.393 -0.7097 -0.0623 -0.6205
   74SLPC   O32 6555   5.756   4.281  10.398  0.1580 -0.8149 -0.4343
   74SLPC   C32 6556   5.534   4.303  10.303 -0.8955  0.3519 -0.3210
   74SLPC   H2X 6557   5.455   4.287  10.379  0.0476 -1.1116  0.4097
   74SLPC   H2Y 6558   5.567   4.208  10.255 -0.4019  0.4546 -0.1815
   74SLPC   C23 6559   6.094   4.690  10.260  0.3016 -0.2232  0.0294
   74SLPC   H3R 6560   6.175   4.695  10.335  1.1138 -1.5494 -0.7304
   74SLPC   H3S 6561   6.035   4.784  10.267  1.6078  0.8440 -2.1563
   74SLPC   C24 6562   6.175   4.696  10.136 -0.0156 -0.1476  0.1051
   74SLPC   H4R 6563   6.212   4.593  10.112 -2.7133 -0.9890 -0.8131
   74SLPC   H4S 6564   6.263   4.762  10.148  0.2862  0.1330 -2.8281
   74SLPC   C25 6565   6.092   4.723  10.008  0.2105  0.0939  0.0753
   74SLPC   H5R 6566   6.029   4.814  10.018  1.5502  0.9399  1.1719
   74SLPC   H5S 6567   6.026   4.634  10.001 -0.2020  0.5049 -1.5501
   74SLPC   C26 6568   6.182   4.724   9.891  0.8415 -0.2058  0.6456
   74SLPC   H6R 6569   6.273   4.662   9.900  1.9563  1.4465  1.1754
   74SLPC   H6S 6570   6.227   4.824   9.905  1.6399 -0.3535 -0.6827
   74SLPC   C27 6571   6.115   4.732   9.758 -0.3778 -0.5941  0.0455
   74SLPC   H7R 6572   6.190   4.780   9.691 -0.5252 -0.9550 -0.3848
   74SLPC   H7S 6573   6.026   4.797   9.769  1.0264  1.9783 -2.3636
   74SLPC   C28 6574   6.093   4.587   9.695  0.3094 -1.0623  0.9808
   74SLPC   H8R 6575   6.071   4.510   9.772  0.2120 -1.5418  0.4861
   74SLPC   H8S 6576   6.183   4.564   9.633 -0.6641  2.1732 -1.9401
   74SLPC   C29 6577   5.979   4.575   9.597 -0.0732  0.7491 -0.3520
   74SLPC   H9R 6578   5.890   4.518   9.628  1.0180  0.4142  2.5693
   74SLPC  C210 6579   5.975   4.642   9.482 -0.2081  0.1085  0.7355
   74SLPC  H10R 6580   5.885   4.641   9.419 -0.1071  1.4681  0.5475
   74SLPC  C211 6581   6.090   4.724   9.421  0.2281 -1.1891 -0.2543
   74SLPC  H11R 6582   6.085   4.703   9.312 -2.6404 -0.4100 -0.3687
   74SLPC  H11S 6583   6.185   4.692   9.469  0.4078  0.5242  0.6109
   74SLPC  C212 6584   6.053   4.871   9.422 -0.1101  0.4742  0.3479
   74SLPC  H12R 6585   6.016   4.905   9.520 -0.3075 -0.9469  0.7826
   74SLPC  C213 6586   6.062   4.959   9.321 -0.7720  0.9047  0.2754
   74SLPC  H13R 6587   6.039   5.066   9.334 -0.7262  1.2816 -2.2384
   74SLPC  C214 6588   6.123   4.924   9.187 -0.1755  0.3208  0.7034
   74SLPC  H14R 6589   6.210   4.855   9.198  0.5625  1.2046  0.4788
   74SLPC  H14S 6590   6.167   5.019   9.150  0.5158 -0.3065 -0.1513
   74SLPC  C215 6591   6.029   4.877   9.074  0.1970 -0.1638 -0.3378
   74SLPC  H15R 6592   5.993   4.775   9.100 -0.7081  0.3466  0.4637
   74SLPC  H15S 6593   6.087   4.856   8.982 -1.7219 -0.0662 -1.6244
   74SLPC  C216 6594   5.901   4.957   9.036  0.0949 -0.3649 -0.3597
   74SLPC  H16R 6595   5.922   5.052   8.984  0.6377 -0.3598 -0.1367
   74SLPC  H16S 6596   5.847   4.969   9.132 -0.4806  0.2406 -0.7591
   74SLPC  C217 6597   5.823   4.881   8.939 -0.4445  0.3760  0.5857
   74SLPC  H17R 6598   5.789   4.793   8.997  0.6896 -0.3076  0.2390
   74SLPC  H17S 6599   5.890   4.851   8.855 -1.1982  2.2506 -0.7609
   74SLPC  C218 6600   5.706   4.947   8.872 -0.0393 -0.3017  0.3835
   74SLPC  H18R 6601   5.749   5.026   8.807  1.5930 -0.9286  0.6494
   74SLPC  H18S 6602   5.634   4.977   8.950  0.4782 -0.0239  0.7637
   74SLPC  H18T 6603   5.650   4.874   8.810 -1.7547  0.4107  1.0479
   74SLPC   C33 6604   5.499   4.425  10.218  0.3777 -0.1529 -0.3423
   74SLPC   H3X 6605   5.456   4.519  10.260  0.5988  0.4308 -1.3635
   74SLPC   H3Y 6606   5.418   4.381  10.155 -0.3350  0.8780 -0.1706
   74SLPC   C34 6607   5.609   4.464  10.111  0.8215  0.1724  0.6944
   74SLPC   H4X 6608   5.703   4.482  10.167  0.7161 -1.2324  1.3761
   74SLPC   H4Y 6609   5.577   4.553  10.054  1.1121 -0.0981  0.1009
   74SLPC   C35 6610   5.621   4.355  10.002  0.5809 -0.4921 -0.1986
   74SLPC   H5X 6611   5.521   4.350   9.955  0.2694 -0.0311  0.3994
   74SLPC   H5Y 6612   5.637   4.258  10.054  0.2475 -0.8303 -0.7212
   74SLPC   C36 6613   5.730   4.383   9.902  0.0799  0.4916  0.6862
   74SLPC   H6X 6614   5.823   4.352   9.953  0.0160  1.5083  1.4448
   74SLPC   H6Y 6615   5.744   4.493   9.894  0.8003  0.3811  0.3204
   74SLPC   C37 6616   5.720   4.321   9.758 -0.3193 -0.0429  0.0392
   74SLPC   H7X 6617   5.711   4.210   9.763  0.8916 -0.2746 -1.8347
   74SLPC   H7Y 6618   5.818   4.328   9.706 -0.3837 -2.9896 -0.6702
   74SLPC   C38 6619   5.604   4.372   9.674 -0.0376  0.0204  0.2711
   74SLPC   H8X 6620   5.584   4.479   9.699 -2.6454 -0.2843 -0.2148
   74SLPC   H8Y 6621   5.511   4.314   9.696  0.6607  0.0033  3.7629
   74SLPC   C39 6622   5.639   4.352   9.521  0.4628 -0.1033 -0.3828
   74SLPC   H9X 6623   5.744   4.379   9.500  0.6602  0.1207  0.8192
   74SLPC   H9Y 6624   5.586   4.420   9.450  2.1809  1.8358  0.0974
   74SLPC  C310 6625   5.616   4.208   9.474  0.7519 -0.7819 -0.1527
   74SLPC  H10X 6626   5.505   4.208   9.474  0.7082 -0.3396 -2.3441
   74SLPC  H10Y 6627   5.652   4.141   9.555 -0.3398 -0.0604  0.9576
   74SLPC  C311 6628   5.688   4.169   9.345  0.5608  0.4032  0.4621
   74SLPC  H11X 6629   5.792   4.134   9.358  0.3887  0.4723  2.2944
   74SLPC  H11Y 6630   5.695   4.266   9.292 -0.1989  1.2647  1.8728
   74SLPC  C312 6631   5.605   4.070   9.260  0.6417  0.3321 -0.2917
   74SLPC  H12X 6632   5.519   4.134   9.232  1.6826  1.1887 -1.6961
   74SLPC  H12Y 6633   5.578   3.984   9.325  0.5319  0.3600 -0.3010
   74SLPC  C313 6634   5.675   4.017   9.141 -0.3244  0.2425  0.4129
   74SLPC  H13X 6635   5.763   3.958   9.173  1.3456  1.5142 -1.5659
   74SLPC  H13Y 6636   5.706   4.107   9.083  1.2938 -0.4367  0.1684
   74SLPC  C314 6637   5.581   3.948   9.042 -0.0299  0.0620  0.4593
   74SLPC  H14X 6638   5.514   4.025   9.001  2.5106  2.2422  0.1191
   74SLPC  H14Y 6639   5.535   3.859   9.090 -1.4366 -0.9993 -2.6211
   74SLPC  C315 6640   5.656   3.896   8.921 -0.3011 -0.0026 -0.7506
   74SLPC  H15X 6641   5.744   3.835   8.952  1.0307  0.5665 -3.1792
   74SLPC  H15Y 6642   5.697   3.977   8.857 -1.4712  0.5836 -0.7811
   74SLPC  C316 6643   5.566   3.817   8.826  0.3118  0.6242  0.2430
   74SLPC  H16X 6644   5.479   3.880   8.798 -0.3124 -0.8518 -1.3573
   74SLPC  H16Y 6645   5.517   3.727   8.869 -0.1162  0.3146 -0.8540
   74SLPC  C317 6646   5.638   3.770   8.694 -0.1277  0.3255 -0.4369
   74SLPC  H17X 6647   5.682   3.862   8.651  1.5164  0.4779  1.4207
   74SLPC  H17Y 6648   5.565   3.718   8.629  0.7236 -0.8048 -0.5350
   74SLPC  C318 6649   5.754   3.670   8.714  0.9621  0.6983 -0.5469
   74SLPC  H18X 6650   5.819   3.718   8.791 -0.2059  0.7539  0.4480
   74SLPC  H18Y 6651   5.817   3.652   8.624 -0.9524 -0.1836 -1.7783
   74SLPC  H18Z 6652   5.713   3.577   8.758 -2.4324  0.9317 -2.8423
   75SLPC     N 6653   6.757   4.879   6.323  0.1977  0.3755 -0.5210
   75SLPC   C13 6654   6.714   4.848   6.187 -0.0518  0.4684 -0.0707
   75SLPC  H13A 6655   6.692   4.935   6.126  1.5052  1.4930  0.7501
   75SLPC  H13B 6656   6.799   4.798   6.142  0.1751  0.4564  0.3712
   75SLPC  H13C 6657   6.634   4.776   6.189 -0.4078  0.8284 -0.9101
   75SLPC   C14 6658   6.876   4.972   6.318 -0.0572 -0.5724  0.6778
   75SLPC  H14A 6659   6.899   4.998   6.420  1.9869  0.7065 -0.0547
   75SLPC  H14B 6660   6.967   4.919   6.294  0.4764  0.4410  0.4360
   75SLPC  H14C 6661   6.870   5.062   6.259  0.9651 -1.1427 -0.3279
   75SLPC   C15 6662   6.809   4.759   6.390 -0.2898 -0.5481 -0.2076
   75SLPC  H15A 6663   6.848   4.781   6.489  0.8497  1.1332 -0.9835
   75SLPC  H15B 6664   6.732   4.685   6.395 -1.5528  0.7451  0.1410
   75SLPC  H15C 6665   6.901   4.720   6.350 -1.5636 -2.5043 -1.3269
   75SLPC   C12 6666   6.651   4.952   6.408  0.1243 -0.2930 -0.7871
   75SLPC  H12A 6667   6.599   5.018   6.340 -0.8519 -1.8266 -1.5874
   75SLPC  H12B 6668   6.708   5.009   6.480  1.2432 -0.9917 -1.0916
   75SLPC   C11 6669   6.549   4.863   6.482 -0.3217 -0.0182  0.7358
   75SLPC  H11A 6670   6.486   4.927   6.548 -1.8279  0.0610 -0.7159
   75SLPC  H11B 6671   6.599   4.792   6.551  1.0221  1.1684  1.0278
   75SLPC     P 6672   6.386   4.667   6.426  0.0811 -0.0538 -0.0529
   75SLPC   O13 6673   6.253   4.665   6.369 -0.1046  0.5355  0.3082
   75SLPC   O14 6674   6.479   4.559   6.384 -0.3279 -0.1110 -0.0819
   75SLPC   O12 6675   6.458   4.809   6.397 -0.2793  0.2416  0.9565
   75SLPC   O11 6676   6.373   4.671   6.584  0.1491 -0.6449  0.1959
   75SLPC    C1 6677   6.244   4.700   6.642 -0.8457 -0.7826  0.6261
   75SLPC    HA 6678   6.209   4.792   6.591 -0.5523 -0.4455  1.0315
   75SLPC    HB 6679   6.165   4.627   6.614  0.7637 -1.3036 -3.1980
   75SLPC    C2 6680   6.255   4.751   6.788  0.3379 -0.4971 -0.0489
   75SLPC    HS 6681   6.335   4.826   6.800 -0.2545  0.2304 -0.5129
   75SLPC   O21 6682   6.266   4.637   6.874  0.2455  0.3316  0.5920
   75SLPC   C21 6683   6.351   4.656   6.979 -0.3839 -0.5089  0.4078
   75SLPC   O22 6684   6.398   4.759   7.014  0.3584 -0.4682 -0.0393
   75SLPC   C22 6685   6.375   4.525   7.049  0.5344  0.0574  0.0269
   75SLPC   H2R 6686   6.285   4.486   7.101  1.3913  2.1474  3.3767
   75SLPC   H2S 6687   6.404   4.444   6.979  0.4298  2.2211 -2.7139
   75SLPC    C3 6688   6.121   4.829   6.832 -0.2904 -0.3631  0.2952
   75SLPC    HX 6689   6.042   4.752   6.823 -0.0937 -0.3760 -1.6902
   75SLPC    HY 6690   6.088   4.905   6.759 -2.6486 -0.8961  0.7118
   75SLPC   O31 6691   6.130   4.879   6.966  0.4674  0.0388 -0.1166
   75SLPC   C31 6692   6.179   5.005   6.987 -0.3056  0.2345 -0.1656
   75SLPC   O32 6693   6.234   5.075   6.906  0.8455 -0.0490  0.3657
   75SLPC   C32 6694   6.171   5.029   7.135 -0.7110  0.5138 -0.0381
   75SLPC   H2X 6695   6.240   4.960   7.187  0.2360  0.3976 -1.4165
   75SLPC   H2Y 6696   6.068   5.017   7.175 -0.7121  1.1502  0.1642
   75SLPC   C23 6697   6.484   4.530   7.164 -0.2286 -0.1763 -0.2940
   75SLPC   H3R 6698   6.444   4.593   7.246  0.6356  0.2870 -0.2120
   75SLPC   H3S 6699   6.564   4.582   7.107 -0.3701  0.2250 -0.1325
   75SLPC   C24 6700   6.542   4.388   7.202  0.6099 -0.2244 -0.4215
   75SLPC   H4R 6701   6.585   4.339   7.112  2.0022 -0.4694  0.3449
   75SLPC   H4S 6702   6.456   4.334   7.248  1.6479 -0.1506  1.6884
   75SLPC   C25 6703   6.659   4.395   7.303  0.2300 -0.2940  0.5422
   75SLPC   H5R 6704   6.742   4.464   7.276  0.0888  1.2370  3.5409
   75SLPC   H5S 6705   6.708   4.295   7.314 -1.7944 -1.5790 -1.2087
   75SLPC   C26 6706   6.607   4.433   7.444 -0.7449  0.4307 -0.4389
   75SLPC   H6R 6707   6.526   4.363   7.476 -1.8397  1.9124  0.1472
   75SLPC   H6S 6708   6.561   4.534   7.447  0.6372  1.0707  0.1873
   75SLPC   C27 6709   6.716   4.425   7.548 -0.3949 -0.0155 -0.0999
   75SLPC   H7R 6710   6.811   4.456   7.500  0.1822 -0.8635  0.4490
   75SLPC   H7S 6711   6.722   4.318   7.577  1.3703 -0.3460 -1.4627
   75SLPC   C28 6712   6.692   4.500   7.680  0.4314 -0.0563 -0.2561
   75SLPC   H8R 6713   6.583   4.493   7.701  0.4799  0.0348  0.0310
   75SLPC   H8S 6714   6.709   4.608   7.665  0.7338 -0.3290 -2.1340
   75SLPC   C29 6715   6.768   4.462   7.801  0.9239  0.4867 -0.3828
   75SLPC   H9R 6716   6.860   4.515   7.828 -1.0862  2.8280  2.6603
   75SLPC  C210 6717   6.732   4.372   7.894  0.7578  0.2694 -0.4987
   75SLPC  H10R 6718   6.799   4.354   7.980  1.3145 -1.8750 -1.3185
   75SLPC  C211 6719   6.607   4.274   7.889  0.5417  0.2788  0.9293
   75SLPC  H11R 6720   6.649   4.171   7.876  1.5735  0.2103  3.9963
   75SLPC  H11S 6721   6.555   4.306   7.797 -3.3198  1.8030  3.4098
   75SLPC  C212 6722   6.504   4.288   8.001  0.0459 -0.0421  0.5373
   75SLPC  H12R 6723   6.462   4.390   8.004  0.5264  0.1626  0.5354
   75SLPC  C213 6724   6.465   4.196   8.088 -0.1098  0.2333 -0.1003
   75SLPC  H13R 6725   6.397   4.239   8.163 -1.6545  0.9517 -1.8299
   75SLPC  C214 6726   6.516   4.056   8.120 -0.4439 -0.0806 -0.3011
   75SLPC  H14R 6727   6.593   4.035   8.043  0.2552  2.0102 -0.2411
   75SLPC  H14S 6728   6.440   3.976   8.118  0.1406 -0.6739  0.4523
   75SLPC  C215 6729   6.585   4.054   8.252  0.2715 -0.0946 -0.7053
   75SLPC  H15R 6730   6.670   4.125   8.258  1.3165 -1.4371  3.7258
   75SLPC  H15S 6731   6.633   3.956   8.268  0.1344 -0.1889 -0.8610
   75SLPC  C216 6732   6.493   4.078   8.376 -0.2859  0.3550  0.0552
   75SLPC  H16R 6733   6.401   4.015   8.373 -0.3220  0.4365 -2.3405
   75SLPC  H16S 6734   6.454   4.182   8.381 -1.7631 -0.1453 -0.4664
   75SLPC  C217 6735   6.572   4.052   8.507 -0.4480  0.1610 -0.1431
   75SLPC  H17R 6736   6.658   4.121   8.515 -0.9846  0.6956  1.2734
   75SLPC  H17S 6737   6.614   3.949   8.512  0.6416  0.5556 -0.9764
   75SLPC  C218 6738   6.483   4.066   8.634  0.1298 -0.3323 -0.0108
   75SLPC  H18R 6739   6.534   4.014   8.717  0.4927  1.0183  0.6499
   75SLPC  H18S 6740   6.385   4.017   8.619  0.5473 -1.3943  0.6942
   75SLPC  H18T 6741   6.479   4.176   8.651  0.5021 -0.1261 -1.1498
   75SLPC   C33 6742   6.201   5.173   7.170 -0.2906  0.4894 -1.1338
   75SLPC   H3X 6743   6.298   5.206   7.128  0.2960  1.6379  0.9911
   75SLPC   H3Y 6744   6.121   5.240   7.131  0.1185  0.8912 -1.2868
   75SLPC   C34 6745   6.205   5.209   7.323  0.5353 -0.5676 -0.0725
   75SLPC   H4X 6746   6.223   5.319   7.321 -2.8543  0.1006 -0.2800
   75SLPC   H4Y 6747   6.287   5.145   7.361  0.0438 -0.1443  1.8310
   75SLPC   C35 6748   6.069   5.182   7.392 -0.2828  0.0564 -0.4158
   75SLPC   H5X 6749   6.044   5.074   7.379  1.4273 -0.2970 -1.1195
   75SLPC   H5Y 6750   5.987   5.227   7.332 -2.0193 -2.8770 -0.4420
   75SLPC   C36 6751   6.057   5.230   7.538 -0.8445  0.5745 -0.4961
   75SLPC   H6X 6752   5.952   5.225   7.575 -0.4784 -0.3522  0.4830
   75SLPC   H6Y 6753   6.075   5.340   7.544 -2.3897  0.9318 -1.5663
   75SLPC   C37 6754   6.162   5.167   7.636  0.5277  0.2699 -0.5496
   75SLPC   H7X 6755   6.263   5.202   7.605  0.9705 -0.4466  0.0530
   75SLPC   H7Y 6756   6.155   5.057   7.632 -0.0249  0.1358  2.2660
   75SLPC   C38 6757   6.146   5.214   7.781  0.2376  0.3927 -0.4965
   75SLPC   H8X 6758   6.046   5.205   7.829 -0.2487  0.9801 -1.3726
   75SLPC   H8Y 6759   6.156   5.325   7.775 -1.2784  0.6152  0.3698
   75SLPC   C39 6760   6.260   5.173   7.878  0.1058  0.3420 -0.0290
   75SLPC   H9X 6761   6.359   5.158   7.829  0.9973  0.4644  1.6442
   75SLPC   H9Y 6762   6.242   5.071   7.919 -0.2127  0.2971 -0.2867
   75SLPC  C310 6763   6.296   5.275   7.990 -0.0354  0.2258 -0.1563
   75SLPC  H10X 6764   6.345   5.361   7.940  1.9055 -0.3313  0.6905
   75SLPC  H10Y 6765   6.377   5.236   8.054 -1.3536 -0.7148  0.9993
   75SLPC  C311 6766   6.181   5.325   8.075 -0.3878  0.5593  0.2457
   75SLPC  H11X 6767   6.154   5.252   8.154  0.1086 -0.5406 -0.5734
   75SLPC  H11Y 6768   6.091   5.340   8.011 -1.3831 -0.7980  1.2596
   75SLPC  C312 6769   6.211   5.467   8.135 -0.0381  0.5907 -0.9168
   75SLPC  H12X 6770   6.121   5.485   8.197  0.2754  1.6681 -0.7467
   75SLPC  H12Y 6771   6.221   5.528   8.043  0.6875  1.3555 -0.3513
   75SLPC  C313 6772   6.338   5.485   8.227  1.0028  0.1295  0.5464
   75SLPC  H13X 6773   6.418   5.442   8.163  1.5545 -1.4257  2.1830
   75SLPC  H13Y 6774   6.327   5.423   8.319  1.6256  0.3552  0.7849
   75SLPC  C314 6775   6.371   5.627   8.266  0.0940  0.3699 -0.4808
   75SLPC  H14X 6776   6.281   5.687   8.293 -0.3209 -0.3786 -0.1747
   75SLPC  H14Y 6777   6.418   5.671   8.176  1.1344 -1.5170 -0.9036
   75SLPC  C315 6778   6.464   5.640   8.390  0.6353  0.4274 -0.2974
   75SLPC  H15X 6779   6.496   5.746   8.388  1.0420  0.3041 -0.4245
   75SLPC  H15Y 6780   6.552   5.575   8.368  0.2131 -0.1416 -0.3448
   75SLPC  C316 6781   6.399   5.599   8.521 -0.1701  0.7540 -0.3062
   75SLPC  H16X 6782   6.350   5.500   8.508 -1.6251  0.8633  3.2476
   75SLPC  H16Y 6783   6.310   5.665   8.533 -1.7318 -1.0145 -1.4201
   75SLPC  C317 6784   6.505   5.585   8.631  1.4501  0.4046 -0.2476
   75SLPC  H17X 6785   6.529   5.685   8.672 -2.1099  1.1306  0.4070
   75SLPC  H17Y 6786   6.589   5.527   8.587 -0.8902 -0.3897 -4.2278
   75SLPC  C318 6787   6.445   5.508   8.750 -0.0398 -0.5726  0.7490
   75SLPC  H18X 6788   6.520   5.454   8.812  0.8948 -1.1132 -0.7998
   75SLPC  H18Y 6789   6.380   5.430   8.703 -0.8875  0.2436  0.5297
   75SLPC  H18Z 6790   6.374   5.570   8.808 -1.0781  0.4638 -1.5089
   76SLPC     N 6791   0.596   2.513   6.011  0.3000  0.0451 -0.8476
   76SLPC   C13 6792   0.537   2.372   6.006 -0.2458 -0.5848 -0.0395
   76SLPC  H13A 6793   0.504   2.350   5.905 -0.3949  0.9207 -0.3323
   76SLPC  H13B 6794   0.602   2.290   6.034 -0.5541 -0.9609 -0.3948
   76SLPC  H13C 6795   0.450   2.354   6.067 -1.4838 -2.8080 -2.2367
   76SLPC   C14 6796   0.496   2.606   5.938  0.2399 -0.0329 -0.5364
   76SLPC  H14A 6797   0.545   2.700   5.918 -2.4523  1.8400  1.0195
   76SLPC  H14B 6798   0.457   2.577   5.842  2.0571  0.7595 -1.5674
   76SLPC  H14C 6799   0.415   2.624   6.008 -0.5460  0.3813 -1.5371
   76SLPC   C15 6800   0.720   2.513   5.928 -0.0165  1.3174  0.2814
   76SLPC  H15A 6801   0.788   2.434   5.957 -2.0924 -0.6863 -0.0827
   76SLPC  H15B 6802   0.702   2.484   5.826 -0.1494  1.1796  0.3449
   76SLPC  H15C 6803   0.772   2.608   5.932  0.7865  0.9782 -1.3454
   76SLPC   C12 6804   0.611   2.562   6.148  0.2376  0.2414 -0.2685
   76SLPC  H12A 6805   0.657   2.494   6.218 -1.0225  1.3702  1.7788
   76SLPC  H12B 6806   0.510   2.560   6.185 -0.1836 -2.0134 -1.4115
   76SLPC   C11 6807   0.675   2.696   6.168  0.9125 -0.7452  0.3372
   76SLPC  H11A 6808   0.770   2.701   6.110  0.0445  0.9952 -1.0256
   76SLPC  H11B 6809   0.701   2.697   6.277 -0.9134  1.1687  0.8053
   76SLPC     P 6810   0.478   2.858   6.245  0.6240  0.1708 -0.1857
   76SLPC   O13 6811   0.451   2.999   6.235 -0.2646  0.2251  0.8229
   76SLPC   O14 6812   0.358   2.766   6.246  0.1790  0.1304 -0.7085
   76SLPC   O12 6813   0.581   2.809   6.144 -0.5117  0.1153  0.2921
   76SLPC   O11 6814   0.547   2.835   6.386  0.1673  1.0907 -0.3772
   76SLPC    C1 6815   0.645   2.926   6.426 -0.3264  0.7218 -0.0269
   76SLPC    HA 6816   0.708   2.958   6.340 -1.2592 -1.4737 -1.6143
   76SLPC    HB 6817   0.602   3.016   6.473 -0.8651  0.7159 -0.4962
   76SLPC    C2 6818   0.739   2.862   6.536  0.4117  0.1781 -0.1551
   76SLPC    HS 6819   0.789   2.783   6.475 -1.6810 -0.5130 -1.0651
   76SLPC   O21 6820   0.663   2.794   6.641 -0.8192  0.1953  0.3870
   76SLPC   C21 6821   0.735   2.718   6.720  0.6705  0.3349  0.4187
   76SLPC   O22 6822   0.854   2.701   6.712  0.1001  0.7221 -0.6104
   76SLPC   C22 6823   0.648   2.669   6.833  0.0735 -0.4256  0.0563
   76SLPC   H2R 6824   0.545   2.667   6.789  0.3645 -1.6324 -0.5994
   76SLPC   H2S 6825   0.671   2.562   6.853  2.6068 -0.6769 -3.3868
   76SLPC    C3 6826   0.834   2.972   6.600 -0.4861 -0.1107 -0.3118
   76SLPC    HX 6827   0.884   3.033   6.521  0.8019 -1.3211 -0.4832
   76SLPC    HY 6828   0.917   2.923   6.655 -1.3711 -2.6853 -1.1165
   76SLPC   O31 6829   0.758   3.054   6.695  0.3091  0.0265  0.4771
   76SLPC   C31 6830   0.841   3.137   6.768  0.3888  0.9407  0.0126
   76SLPC   O32 6831   0.961   3.140   6.753  0.4094 -0.8767  0.7100
   76SLPC   C32 6832   0.766   3.228   6.863 -0.0063 -0.1554 -0.3812
   76SLPC   H2X 6833   0.665   3.245   6.820 -0.3861  1.7154  1.1271
   76SLPC   H2Y 6834   0.820   3.326   6.868  1.7633 -1.1357  0.8294
   76SLPC   C23 6835   0.690   2.758   6.947 -0.1895 -0.1132 -0.1019
   76SLPC   H3R 6836   0.667   2.864   6.925  0.5294  0.1079  0.1657
   76SLPC   H3S 6837   0.799   2.748   6.969 -0.2606  1.6148  1.2276
   76SLPC   C24 6838   0.627   2.715   7.078  0.0497  0.0555  0.0543
   76SLPC   H4R 6839   0.643   2.605   7.079 -2.4865 -0.4053 -1.5807
   76SLPC   H4S 6840   0.519   2.741   7.074 -0.2806  0.1620  4.5161
   76SLPC   C25 6841   0.692   2.787   7.199 -0.0863  0.6006 -0.1565
   76SLPC   H5R 6842   0.681   2.898   7.192 -0.0415  0.5674 -0.7384
   76SLPC   H5S 6843   0.800   2.760   7.201 -0.4261 -0.8790 -0.7865
   76SLPC   C26 6844   0.632   2.729   7.330  0.2472 -0.6580  0.7542
   76SLPC   H6R 6845   0.677   2.628   7.345 -1.4311 -1.5159  0.2928
   76SLPC   H6S 6846   0.521   2.716   7.326  0.3352 -1.1881 -0.5195
   76SLPC   C27 6847   0.658   2.822   7.452  0.4642  0.1171 -0.7510
   76SLPC   H7R 6848   0.620   2.926   7.439 -0.5280  0.0044  0.9384
   76SLPC   H7S 6849   0.768   2.825   7.466  0.3144  1.1462  0.3728
   76SLPC   C28 6850   0.597   2.762   7.576  0.4545 -0.2197 -0.3598
   76SLPC   H8R 6851   0.619   2.654   7.593 -1.3962 -0.1481  3.8359
   76SLPC   H8S 6852   0.654   2.798   7.664  0.8483 -1.7785  0.0565
   76SLPC   C29 6853   0.445   2.793   7.583 -0.1581 -0.1636 -0.3959
   76SLPC   H9R 6854   0.384   2.767   7.495 -0.6689  1.3606 -0.5387
   76SLPC  C210 6855   0.377   2.838   7.695  0.4216  0.3212  0.6520
   76SLPC  H10R 6856   0.271   2.855   7.674  0.3451 -0.7568  0.0834
   76SLPC  C211 6857   0.421   2.876   7.833 -0.1159 -0.4574  0.3758
   76SLPC  H11R 6858   0.357   2.964   7.858  1.3535  0.7127  0.1816
   76SLPC  H11S 6859   0.528   2.903   7.851  0.0335 -0.3022 -0.6951
   76SLPC  C212 6860   0.391   2.762   7.931 -0.2339 -0.3313  0.7255
   76SLPC  H12R 6861   0.283   2.752   7.950  0.0413 -0.6579  2.2355
   76SLPC  C213 6862   0.472   2.683   8.004 -0.4306 -0.4892 -0.6266
   76SLPC  H13R 6863   0.420   2.605   8.061 -2.3573  1.1646  0.0014
   76SLPC  C214 6864   0.617   2.690   8.011 -0.0353  0.8136  0.3075
   76SLPC  H14R 6865   0.669   2.725   7.919 -0.4490  2.0543  0.5220
   76SLPC  H14S 6866   0.661   2.590   8.033  1.0460  0.5394 -2.6774
   76SLPC  C215 6867   0.658   2.782   8.128  0.2526  0.1458  0.5946
   76SLPC  H15R 6868   0.607   2.879   8.111  0.1056  0.4519  2.5383
   76SLPC  H15S 6869   0.769   2.789   8.122  0.3444 -0.4310  1.3690
   76SLPC  C216 6870   0.622   2.742   8.270  0.4814  0.5726  0.2606
   76SLPC  H16R 6871   0.686   2.658   8.305 -0.2731  0.3551  1.1934
   76SLPC  H16S 6872   0.513   2.726   8.286 -0.0123  1.2924 -2.0927
   76SLPC  C217 6873   0.657   2.857   8.359 -0.1385  0.2381  0.5011
   76SLPC  H17R 6874   0.595   2.946   8.336 -0.1162  0.9186  2.8408
   76SLPC  H17S 6875   0.760   2.889   8.331  0.2243 -1.0244  0.3333
   76SLPC  C218 6876   0.642   2.830   8.510 -0.2467 -0.0950 -0.1026
   76SLPC  H18R 6877   0.667   2.924   8.563  0.9248 -0.4994  0.0821
   76SLPC  H18S 6878   0.711   2.746   8.532 -0.2716 -0.1469 -0.2206
   76SLPC  H18T 6879   0.543   2.787   8.540 -0.0932 -0.4866 -0.1486
   76SLPC   C33 6880   0.765   3.161   7.003  0.0970  0.4599 -0.0272
   76SLPC   H3X 6881   0.869   3.144   7.037  0.0897  1.8044  0.7018
   76SLPC   H3Y 6882   0.711   3.064   6.999  2.7763 -1.0963 -1.0340
   76SLPC   C34 6883   0.695   3.251   7.108 -0.2387  0.3356 -0.4619
   76SLPC   H4X 6884   0.588   3.257   7.078 -0.4593 -0.8087  0.0060
   76SLPC   H4Y 6885   0.736   3.353   7.113 -0.7791  0.7897 -3.3306
   76SLPC   C35 6886   0.701   3.181   7.246  0.1211  0.4660 -0.0868
   76SLPC   H5X 6887   0.807   3.165   7.277  0.0992  0.7080  0.1126
   76SLPC   H5Y 6888   0.645   3.085   7.246 -0.9693  1.0286  1.9903
   76SLPC   C36 6889   0.638   3.274   7.353 -0.0900 -0.3179  0.3036
   76SLPC   H6X 6890   0.535   3.296   7.318 -0.1814 -2.0367 -0.6047
   76SLPC   H6Y 6891   0.694   3.369   7.348  1.1948 -1.0466  0.4108
   76SLPC   C37 6892   0.634   3.220   7.501  0.7429  0.4405  0.6858
   76SLPC   H7X 6893   0.727   3.167   7.530  0.4533 -0.2558  0.3677
   76SLPC   H7Y 6894   0.550   3.149   7.515 -0.8551  1.9885 -0.5668
   76SLPC   C38 6895   0.606   3.334   7.602 -0.1838  0.1943  0.2376
   76SLPC   H8X 6896   0.506   3.376   7.578  0.1955  0.8244 -0.2764
   76SLPC   H8Y 6897   0.674   3.420   7.583  0.7679 -1.0213 -2.2458
   76SLPC   C39 6898   0.608   3.294   7.748  0.4245  0.0943 -0.2388
   76SLPC   H9X 6899   0.711   3.263   7.775 -0.1390 -0.6696  1.1397
   76SLPC   H9Y 6900   0.548   3.201   7.763  1.4072 -0.4352  0.4842
   76SLPC  C310 6901   0.570   3.399   7.859  0.6550  0.7661 -0.0185
   76SLPC  H10X 6902   0.469   3.438   7.831  1.1602  0.7425 -1.9815
   76SLPC  H10Y 6903   0.630   3.493   7.858 -0.2305  1.3424 -0.8637
   76SLPC  C311 6904   0.579   3.342   8.002  0.1484 -0.7830  0.3266
   76SLPC  H11X 6905   0.684   3.325   8.034  0.1673  0.5695  1.0901
   76SLPC  H11Y 6906   0.537   3.240   7.999  0.1763 -0.7851 -2.6822
   76SLPC  C312 6907   0.508   3.415   8.111  0.9073  0.2156 -0.1381
   76SLPC  H12X 6908   0.426   3.474   8.063  1.2629  0.7288 -0.1273
   76SLPC  H12Y 6909   0.583   3.479   8.163  1.6889  1.5020 -2.6758
   76SLPC  C313 6910   0.448   3.318   8.216 -0.3837  0.5055  0.0824
   76SLPC  H13X 6911   0.528   3.262   8.269 -0.7106 -0.8529 -0.8308
   76SLPC  H13Y 6912   0.388   3.236   8.171  0.5055  0.5010 -1.1345
   76SLPC  C314 6913   0.352   3.389   8.312 -0.4937 -0.1267  0.4213
   76SLPC  H14X 6914   0.284   3.452   8.250  1.4949 -1.3311 -3.2910
   76SLPC  H14Y 6915   0.421   3.451   8.374 -0.4074 -1.1636  1.3896
   76SLPC  C315 6916   0.267   3.293   8.388 -0.4135  0.1158  0.2913
   76SLPC  H15X 6917   0.248   3.210   8.317 -0.4087 -0.5088  0.9995
   76SLPC  H15Y 6918   0.164   3.334   8.394  0.0057  1.7543 -2.2588
   76SLPC  C316 6919   0.331   3.253   8.524  0.1572  0.0493 -0.4379
   76SLPC  H16X 6920   0.347   3.342   8.589  2.2900  0.1299 -1.0018
   76SLPC  H16Y 6921   0.428   3.202   8.508  0.4344  0.8115 -1.2661
   76SLPC  C317 6922   0.248   3.159   8.607  0.0226  0.0291 -0.5647
   76SLPC  H17X 6923   0.165   3.220   8.649  0.7366 -0.3487  1.5156
   76SLPC  H17Y 6924   0.308   3.119   8.692 -1.0368  0.8765  0.6081
   76SLPC  C318 6925   0.204   3.039   8.520  0.6378  0.2281  0.3818
   76SLPC  H18X 6926   0.147   2.961   8.575  0.2097 -0.7715 -1.3886
   76SLPC  H18Y 6927   0.281   2.984   8.463 -0.9450 -3.0003  1.1078
   76SLPC  H18Z 6928   0.128   3.064   8.443  0.5783  1.5710  0.8525
   77SLPC     N 6929   4.783   2.711   6.260  0.6975 -0.8250 -0.2101
   77SLPC   C13 6930   4.772   2.573   6.308  0.0968 -0.4041 -0.0732
   77SLPC  H13A 6931   4.670   2.554   6.339  0.5178  0.4683  2.0030
   77SLPC  H13B 6932   4.784   2.495   6.234 -1.6514 -3.1046  2.2507
   77SLPC  H13C 6933   4.841   2.559   6.390  0.2689  1.1678  0.0706
   77SLPC   C14 6934   4.709   2.725   6.127  0.1799 -0.2167 -0.3454
   77SLPC  H14A 6935   4.606   2.705   6.152 -0.0779  2.0739  0.6914
   77SLPC  H14B 6936   4.712   2.826   6.088 -2.5371  0.4603  0.9484
   77SLPC  H14C 6937   4.740   2.656   6.050  0.1137  0.7975 -1.3170
   77SLPC   C15 6938   4.930   2.745   6.247  0.5242 -0.1146 -0.0196
   77SLPC  H15A 6939   4.965   2.698   6.157 -1.7198 -0.5629 -0.7208
   77SLPC  H15B 6940   4.946   2.852   6.244  0.5591 -0.0915  0.7965
   77SLPC  H15C 6941   4.991   2.711   6.330  0.4241  0.7913  0.4386
   77SLPC   C12 6942   4.720   2.796   6.367  0.1029 -0.0551 -0.7300
   77SLPC  H12A 6943   4.616   2.769   6.380  0.4027 -0.2742  1.5834
   77SLPC  H12B 6944   4.725   2.900   6.339 -0.2823  0.3348  0.5690
   77SLPC   C11 6945   4.772   2.787   6.517  0.2303  0.3944  0.2650
   77SLPC  H11A 6946   4.729   2.865   6.584 -0.2407 -1.7175  2.5462
   77SLPC  H11B 6947   4.881   2.804   6.511  0.4094 -1.0307 -1.2915
   77SLPC     P 6948   4.598   2.631   6.628 -0.4500  0.2591  0.1012
   77SLPC   O13 6949   4.576   2.717   6.740  0.7633 -0.0472 -0.4995
   77SLPC   O14 6950   4.510   2.642   6.513 -0.2218  0.2403  0.4970
   77SLPC   O12 6951   4.744   2.660   6.573  0.6476  0.0362 -0.2240
   77SLPC   O11 6952   4.598   2.491   6.687  0.4064 -0.1378 -0.0411
   77SLPC    C1 6953   4.635   2.367   6.636 -1.3746 -0.5320  0.8567
   77SLPC    HA 6954   4.551   2.298   6.656  0.8543 -3.1317  1.8866
   77SLPC    HB 6955   4.628   2.368   6.525 -1.7625  0.5738  0.8731
   77SLPC    C2 6956   4.761   2.295   6.688 -0.0621  0.2811 -0.0776
   77SLPC    HS 6957   4.739   2.187   6.675 -0.5250  0.3549  0.0630
   77SLPC   O21 6958   4.769   2.326   6.828 -0.2675  0.3860  0.0276
   77SLPC   C21 6959   4.670   2.270   6.904  0.0424  0.0046  0.0652
   77SLPC   O22 6960   4.586   2.195   6.863 -0.3977  1.1877 -0.0652
   77SLPC   C22 6961   4.689   2.299   7.053  0.0712 -0.1086  0.3977
   77SLPC   H2R 6962   4.789   2.258   7.078  0.8208  1.0835 -0.5661
   77SLPC   H2S 6963   4.703   2.408   7.065  1.0459  0.2039 -2.6973
   77SLPC    C3 6964   4.892   2.332   6.606  0.3462 -0.1936 -0.1549
   77SLPC    HX 6965   4.905   2.443   6.605  1.6162 -0.3239 -0.4646
   77SLPC    HY 6966   4.875   2.292   6.504  0.5855 -2.6874  0.7079
   77SLPC   O31 6967   5.004   2.254   6.662  0.6318 -0.5097  0.0147
   77SLPC   C31 6968   5.098   2.323   6.718  0.3262 -0.0025 -0.4138
   77SLPC   O32 6969   5.090   2.443   6.736 -0.6112 -0.1498  0.0127
   77SLPC   C32 6970   5.205   2.239   6.769  0.0591 -0.6704 -1.4834
   77SLPC   H2X 6971   5.295   2.283   6.720  0.5640 -1.5237 -1.3520
   77SLPC   H2Y 6972   5.203   2.132   6.739 -0.0743 -1.6849  1.7800
   77SLPC   C23 6973   4.576   2.247   7.140  0.6006 -0.4121  0.1052
   77SLPC   H3R 6974   4.560   2.137   7.129  0.3518 -0.5475  1.6159
   77SLPC   H3S 6975   4.477   2.295   7.121  0.5769 -1.3081 -2.4553
   77SLPC   C24 6976   4.589   2.272   7.292 -0.3242 -0.1498 -0.5203
   77SLPC   H4R 6977   4.499   2.253   7.354  1.4961  3.2426  3.6684
   77SLPC   H4S 6978   4.608   2.380   7.313 -0.4776  0.2916 -2.4476
   77SLPC   C25 6979   4.696   2.187   7.355 -1.8249  0.1964  0.3104
   77SLPC   H5R 6980   4.801   2.204   7.325 -2.0878  1.1725 -0.1253
   77SLPC   H5S 6981   4.677   2.079   7.335 -1.2229  0.1553 -0.0433
   77SLPC   C26 6982   4.698   2.204   7.504  0.1630  0.0533 -0.4537
   77SLPC   H6R 6983   4.597   2.200   7.550  1.2337  1.1335  2.2550
   77SLPC   H6S 6984   4.738   2.306   7.523  2.0047 -1.1173  2.7617
   77SLPC   C27 6985   4.781   2.104   7.592  0.2595 -0.4896  0.3318
   77SLPC   H7R 6986   4.865   2.072   7.526 -1.9741 -0.4639 -2.6811
   77SLPC   H7S 6987   4.717   2.018   7.619  1.2906 -2.0009 -1.7486
   77SLPC   C28 6988   4.853   2.144   7.718 -0.2284  0.0660  0.3055
   77SLPC   H8R 6989   4.901   2.243   7.703 -0.3848  0.5753  2.6623
   77SLPC   H8S 6990   4.934   2.075   7.751  0.1324  0.6906  0.7562
   77SLPC   C29 6991   4.753   2.170   7.826  0.0269 -0.4647  0.1491
   77SLPC   H9R 6992   4.656   2.204   7.786  1.4236  2.1634 -1.2451
   77SLPC  C210 6993   4.780   2.150   7.956  0.2662 -0.6057 -0.5427
   77SLPC  H10R 6994   4.709   2.180   8.036 -0.1197  2.1100 -1.7639
   77SLPC  C211 6995   4.911   2.102   8.011  0.3932 -0.1342  0.2883
   77SLPC  H11R 6996   4.987   2.181   7.993  0.6802  0.0603  2.1539
   77SLPC  H11S 6997   4.941   2.013   7.951  0.9352 -0.3959  0.9348
   77SLPC  C212 6998   4.892   2.060   8.151  0.0094 -0.3475 -0.0289
   77SLPC  H12R 6999   4.849   1.960   8.166 -0.6909 -0.1379 -0.5899
   77SLPC  C213 7000   4.918   2.123   8.266 -0.0773  0.4258 -0.0390
   77SLPC  H13R 7001   4.898   2.063   8.356  1.0031 -1.7731 -1.1767
   77SLPC  C214 7002   4.974   2.260   8.289  0.0373 -0.0802  0.0793
   77SLPC  H14R 7003   4.982   2.306   8.188 -1.3659  1.7570  0.7538
   77SLPC  H14S 7004   5.077   2.233   8.322 -0.2594  1.4131  2.4315
   77SLPC  C215 7005   4.880   2.355   8.380  0.2697  0.0465  0.2646
   77SLPC  H15R 7006   4.780   2.368   8.334 -0.6497 -2.9610  1.1828
   77SLPC  H15S 7007   4.933   2.452   8.370 -1.4283  0.7191 -3.7448
   77SLPC  C216 7008   4.873   2.301   8.523  0.1016 -0.6606 -0.0951
   77SLPC  H16R 7009   4.958   2.238   8.558 -0.8043 -1.9260 -0.1097
   77SLPC  H16S 7010   4.787   2.231   8.529  0.0949 -0.7454 -1.0736
   77SLPC  C217 7011   4.836   2.412   8.627  0.4457 -1.4072  0.0356
   77SLPC  H17R 7012   4.744   2.464   8.593 -0.1998 -1.7654  1.1890
   77SLPC  H17S 7013   4.919   2.485   8.624 -0.6156 -0.1471  0.6814
   77SLPC  C218 7014   4.824   2.370   8.776 -0.0741  0.2241  0.5990
   77SLPC  H18R 7015   4.923   2.337   8.814  0.5480 -0.6092 -1.6109
   77SLPC  H18S 7016   4.756   2.283   8.784  0.4816 -0.3269 -0.5166
   77SLPC  H18T 7017   4.780   2.446   8.844  1.3010  2.7630 -1.1738
   77SLPC   C33 7018   5.218   2.239   6.923  0.2461 -0.4689 -0.5815
   77SLPC   H3X 7019   5.213   2.343   6.961  1.5903 -0.5149 -0.2298
   77SLPC   H3Y 7020   5.320   2.203   6.946  1.0631  2.1104  0.1652
   77SLPC   C34 7021   5.122   2.143   6.986  1.0237 -0.7924  0.2985
   77SLPC   H4X 7022   5.147   2.037   6.961  0.6309 -0.2480 -2.7395
   77SLPC   H4Y 7023   5.021   2.154   6.941  1.2666  1.7833  0.2838
   77SLPC   C35 7024   5.094   2.146   7.140 -0.0514  0.2232 -0.6343
   77SLPC   H5X 7025   5.009   2.075   7.148  0.1874 -0.0634 -0.6438
   77SLPC   H5Y 7026   5.075   2.248   7.181  1.1063 -0.0827  0.7469
   77SLPC   C36 7027   5.197   2.086   7.234  0.1398 -0.3357 -0.6286
   77SLPC   H6X 7028   5.287   2.150   7.224  0.0629 -0.3441 -1.4577
   77SLPC   H6Y 7029   5.228   1.988   7.191 -1.9643 -0.5741 -1.8008
   77SLPC   C37 7030   5.155   2.077   7.385 -0.0340 -0.4837 -0.5710
   77SLPC   H7X 7031   5.088   1.993   7.409  1.0863 -0.7510  1.9317
   77SLPC   H7Y 7032   5.104   2.173   7.406 -0.6839 -0.8178 -0.6125
   77SLPC   C38 7033   5.274   2.058   7.485 -0.5151  0.4196  0.6633
   77SLPC   H8X 7034   5.346   2.137   7.456 -0.3167  0.5540  1.5048
   77SLPC   H8Y 7035   5.321   1.958   7.481  0.5043  0.8011  2.3406
   77SLPC   C39 7036   5.240   2.087   7.624 -0.0448 -0.0165  0.0966
   77SLPC   H9X 7037   5.161   2.025   7.672 -0.5185  0.5999  0.1251
   77SLPC   H9Y 7038   5.217   2.195   7.621  0.9198  0.1788 -2.2075
   77SLPC  C310 7039   5.365   2.088   7.711 -0.2250 -0.5880  0.2052
   77SLPC  H10X 7040   5.450   2.126   7.650 -0.0011 -0.5531  0.5296
   77SLPC  H10Y 7041   5.389   1.983   7.739 -1.5933 -1.6306 -2.2496
   77SLPC  C311 7042   5.358   2.165   7.844 -0.6983 -0.3324  0.1968
   77SLPC  H11X 7043   5.260   2.154   7.894 -3.3684  4.1232 -3.3168
   77SLPC  H11Y 7044   5.366   2.271   7.813  1.9262 -1.5299 -4.1498
   77SLPC  C312 7045   5.470   2.114   7.934  0.5624  0.3327 -0.1273
   77SLPC  H12X 7046   5.566   2.154   7.896 -0.3023  3.4183  0.6663
   77SLPC  H12Y 7047   5.482   2.005   7.953  3.1691  0.8844  2.0111
   77SLPC  C313 7048   5.450   2.159   8.079  0.3305 -0.2851  1.0483
   77SLPC  H13X 7049   5.353   2.130   8.124  0.5113  0.8661  2.2340
   77SLPC  H13Y 7050   5.435   2.269   8.083 -0.2559 -0.3303  0.3466
   77SLPC  C314 7051   5.560   2.117   8.177 -0.0003 -0.2845  0.2302
   77SLPC  H14X 7052   5.655   2.151   8.131 -0.9711  0.3159 -1.4627
   77SLPC  H14Y 7053   5.555   2.006   8.187 -0.6559 -0.1580  1.4437
   77SLPC  C315 7054   5.539   2.187   8.309 -0.1759 -0.0713  0.2708
   77SLPC  H15X 7055   5.439   2.174   8.355  0.5040 -1.4376  1.4624
   77SLPC  H15Y 7056   5.564   2.293   8.290  3.3445 -1.1039 -1.7742
   77SLPC  C316 7057   5.638   2.146   8.417 -0.2662 -0.0017  0.1153
   77SLPC  H16X 7058   5.737   2.131   8.370  0.2777  0.0658  1.2128
   77SLPC  H16Y 7059   5.606   2.053   8.470  2.2040 -1.4454 -0.7896
   77SLPC  C317 7060   5.664   2.258   8.516  0.4077 -0.0295 -0.0658
   77SLPC  H17X 7061   5.574   2.291   8.574  0.2376 -0.7435  0.0872
   77SLPC  H17Y 7062   5.691   2.347   8.455 -0.8447  1.8363  1.9134
   77SLPC  C318 7063   5.781   2.243   8.611  1.0508 -0.4982  0.7579
   77SLPC  H18X 7064   5.781   2.325   8.686 -1.3233 -0.5979  0.9529
   77SLPC  H18Y 7065   5.881   2.256   8.565  0.4013  0.5776 -0.3889
   77SLPC  H18Z 7066   5.780   2.145   8.663 -2.8211 -1.2748 -0.4947
   78SLPC     N 7067   0.437   3.627   5.760  0.3549  0.1601  0.1064
   78SLPC   C13 7068   0.475   3.771   5.780 -0.4938  0.1750  0.0310
   78SLPC  H13A 7069   0.570   3.782   5.830 -0.5656  3.1756 -0.3017
   78SLPC  H13B 7070   0.477   3.824   5.686 -3.0353 -1.7575 -1.2313
   78SLPC  H13C 7071   0.398   3.823   5.834 -1.6956  0.0490 -1.5130
   78SLPC   C14 7072   0.507   3.567   5.638  0.2020 -0.2958  0.1104
   78SLPC  H14A 7073   0.613   3.552   5.656  0.3923 -0.3036 -0.9540
   78SLPC  H14B 7074   0.476   3.466   5.614  0.3074 -0.3605  0.2416
   78SLPC  H14C 7075   0.499   3.621   5.545  0.0591 -0.5035  0.0000
   78SLPC   C15 7076   0.293   3.624   5.715  0.1247 -0.6928 -0.6583
   78SLPC  H15A 7077   0.262   3.531   5.669  2.4060 -2.2487  0.7869
   78SLPC  H15B 7078   0.228   3.622   5.801 -0.0691  1.0144 -0.7283
   78SLPC  H15C 7079   0.273   3.702   5.643  1.0339  1.3593  1.1991
   78SLPC   C12 7080   0.465   3.541   5.883 -0.5103  0.0204 -0.2351
   78SLPC  H12A 7081   0.573   3.542   5.894 -0.5641 -0.1420  0.3327
   78SLPC  H12B 7082   0.443   3.443   5.844 -0.9207  0.3796 -0.9196
   78SLPC   C11 7083   0.391   3.572   6.020  0.2622  0.4544 -0.1905
   78SLPC  H11A 7084   0.417   3.500   6.100 -0.9897  0.4087  0.1937
   78SLPC  H11B 7085   0.282   3.560   6.003  0.4941 -2.6255  0.0463
   78SLPC     P 7086   0.558   3.723   6.157  0.3803 -0.1954  0.3438
   78SLPC   O13 7087   0.662   3.623   6.135  0.1726 -0.0804  0.5680
   78SLPC   O14 7088   0.596   3.861   6.128 -0.2801  0.3088 -0.3090
   78SLPC   O12 7089   0.422   3.697   6.075  0.0106 -0.7437 -0.5718
   78SLPC   O11 7090   0.522   3.716   6.304  0.2237 -0.0990  0.5025
   78SLPC    C1 7091   0.385   3.728   6.351  0.3624  0.1037 -0.1058
   78SLPC    HA 7092   0.360   3.836   6.358  1.0154  0.1811  1.5410
   78SLPC    HB 7093   0.316   3.685   6.276  1.1736 -0.9860 -0.2502
   78SLPC    C2 7094   0.363   3.654   6.491 -1.3178  0.0123 -0.3132
   78SLPC    HS 7095   0.263   3.682   6.530 -1.7697  0.7747 -1.9262
   78SLPC   O21 7096   0.461   3.696   6.588  0.0012  0.4481 -0.6807
   78SLPC   C21 7097   0.457   3.820   6.624 -0.1098 -0.7168 -0.5193
   78SLPC   O22 7098   0.358   3.896   6.604  0.1068 -0.0500  0.3135
   78SLPC   C22 7099   0.590   3.860   6.695  0.4772 -0.2621  0.6102
   78SLPC   H2R 7100   0.638   3.765   6.728  0.9428 -0.7190 -1.2901
   78SLPC   H2S 7101   0.664   3.892   6.618  0.4112 -1.9114 -0.1771
   78SLPC    C3 7102   0.376   3.503   6.479  0.6420  0.1725 -0.6234
   78SLPC    HX 7103   0.484   3.488   6.456  1.3225  1.7157  1.2434
   78SLPC    HY 7104   0.321   3.459   6.393 -1.1378  1.8521 -0.4188
   78SLPC   O31 7105   0.322   3.443   6.601 -0.4325 -0.2184  0.4200
   78SLPC   C31 7106   0.406   3.380   6.677 -0.1829 -0.3715  0.2806
   78SLPC   O32 7107   0.529   3.385   6.673 -0.5687  0.1668  0.5850
   78SLPC   C32 7108   0.335   3.301   6.787 -0.0897 -0.0429 -0.9129
   78SLPC   H2X 7109   0.418   3.244   6.833 -1.0069 -0.8383 -0.1998
   78SLPC   H2Y 7110   0.265   3.229   6.740 -1.3195 -0.9113  2.0073
   78SLPC   C23 7111   0.565   3.966   6.801  0.1594 -0.1053 -0.2648
   78SLPC   H3R 7112   0.526   4.056   6.749  2.5278  0.8832 -0.4606
   78SLPC   H3S 7113   0.663   3.988   6.848  0.4928 -0.8952 -0.5838
   78SLPC   C24 7114   0.467   3.913   6.913  1.2790  0.3029  0.1559
   78SLPC   H4R 7115   0.500   3.810   6.941  0.1105 -0.2258 -0.3342
   78SLPC   H4S 7116   0.366   3.900   6.869  0.7668  2.4284  0.6209
   78SLPC   C25 7117   0.456   4.005   7.032  0.8138 -0.8920 -0.2724
   78SLPC   H5R 7118   0.366   3.990   7.095  0.2827  1.1073 -0.4840
   78SLPC   H5S 7119   0.424   4.102   6.987 -1.1356 -2.3469 -2.1724
   78SLPC   C26 7120   0.586   4.015   7.123  0.1571  0.2115  0.5426
   78SLPC   H6R 7121   0.665   4.070   7.066  2.3436 -0.8428  2.3946
   78SLPC   H6S 7122   0.621   3.910   7.133  0.5786  0.0281 -2.0672
   78SLPC   C27 7123   0.544   4.056   7.263  0.0829 -0.1100 -0.3361
   78SLPC   H7R 7124   0.465   3.987   7.300  0.4686 -1.0395 -1.2037
   78SLPC   H7S 7125   0.506   4.160   7.266 -0.1369 -0.2038  0.3187
   78SLPC   C28 7126   0.663   4.056   7.366 -0.4427 -0.3935  0.7578
   78SLPC   H8R 7127   0.703   3.955   7.393  1.3102  0.0061 -0.1629
   78SLPC   H8S 7128   0.621   4.084   7.465 -0.9005 -0.7926  0.6797
   78SLPC   C29 7129   0.778   4.148   7.330 -0.5523 -0.0087 -0.1609
   78SLPC   H9R 7130   0.742   4.218   7.253 -1.0211 -0.6220 -0.5006
   78SLPC  C210 7131   0.894   4.161   7.395  0.3725  0.0650 -0.0569
   78SLPC  H10R 7132   0.968   4.232   7.355  0.0927 -0.3384 -1.3424
   78SLPC  C211 7133   0.942   4.072   7.514 -0.7806  0.1579  0.0205
   78SLPC  H11R 7134   1.017   4.003   7.471 -0.4663  2.2440 -3.1062
   78SLPC  H11S 7135   0.865   4.017   7.573 -0.5568  1.4771  1.6190
   78SLPC  C212 7136   1.006   4.147   7.625 -0.5026 -0.1425 -0.0230
   78SLPC  H12R 7137   1.023   4.254   7.607 -0.5025 -0.0414  0.5497
   78SLPC  C213 7138   1.044   4.099   7.749 -0.1505 -0.9574  0.6925
   78SLPC  H13R 7139   1.090   4.168   7.820 -1.5522 -0.3926  1.0856
   78SLPC  C214 7140   1.027   3.963   7.793  0.0698  0.2492 -0.4237
   78SLPC  H14R 7141   1.099   3.897   7.739  1.6125  0.2474  1.5006
   78SLPC  H14S 7142   0.923   3.934   7.768  0.3477 -0.5113 -0.7284
   78SLPC  C215 7143   1.053   3.946   7.942  0.3525  0.0975 -0.3159
   78SLPC  H15R 7144   1.016   3.852   7.989 -1.4103  2.7019  4.1455
   78SLPC  H15S 7145   1.001   4.018   8.009 -0.9912 -0.8587 -0.2853
   78SLPC  C216 7146   1.198   3.956   7.972  1.0387 -0.5456  0.1050
   78SLPC  H16R 7147   1.239   4.055   7.943  1.0036 -0.4296  0.4466
   78SLPC  H16S 7148   1.249   3.890   7.899 -0.6764 -0.6648 -1.0555
   78SLPC  C217 7149   1.247   3.911   8.115 -0.7942  0.4637 -0.6922
   78SLPC  H17R 7150   1.358   3.913   8.114 -0.6235 -3.1534  0.1473
   78SLPC  H17S 7151   1.220   3.805   8.130 -1.1120  0.5522 -0.6209
   78SLPC  C218 7152   1.205   3.993   8.237 -0.5033  0.4780  0.1378
   78SLPC  H18R 7153   1.219   4.099   8.207  2.3190  0.4689  1.1478
   78SLPC  H18S 7154   1.275   3.985   8.322  1.5023  0.5935 -1.4245
   78SLPC  H18T 7155   1.097   3.982   8.259  0.0991 -1.5548  2.6496
   78SLPC   C33 7156   0.258   3.386   6.889 -0.3543  0.0354 -0.2288
   78SLPC   H3X 7157   0.206   3.316   6.958 -1.2076 -1.9869 -2.7644
   78SLPC   H3Y 7158   0.185   3.447   6.833 -0.3162 -1.6767 -2.2938
   78SLPC   C34 7159   0.352   3.460   6.982 -0.0508 -0.8898  0.1488
   78SLPC   H4X 7160   0.377   3.557   6.934 -3.9132  0.1401 -0.1088
   78SLPC   H4Y 7161   0.443   3.397   6.994  0.5498  0.0998  0.9681
   78SLPC   C35 7162   0.290   3.488   7.117 -0.3908 -0.5064  0.2368
   78SLPC   H5X 7163   0.276   3.397   7.179 -0.0063  0.4682  1.8168
   78SLPC   H5Y 7164   0.185   3.524   7.112 -0.3935 -0.3805  1.0756
   78SLPC   C36 7165   0.368   3.599   7.190 -0.5922 -0.4154  0.3310
   78SLPC   H6X 7166   0.376   3.691   7.130 -0.6980 -0.4444  0.2717
   78SLPC   H6Y 7167   0.470   3.560   7.208  0.0587  0.2000 -1.7780
   78SLPC   C37 7168   0.307   3.634   7.328  1.0226 -0.4898  0.2481
   78SLPC   H7X 7169   0.223   3.565   7.349  1.3281 -0.4582  1.7075
   78SLPC   H7Y 7170   0.261   3.735   7.333 -1.4428 -1.5279 -0.2569
   78SLPC   C38 7171   0.413   3.628   7.441  0.2950 -0.0392  0.3350
   78SLPC   H8X 7172   0.469   3.532   7.433  1.4687  0.6453  0.1407
   78SLPC   H8Y 7173   0.349   3.628   7.532 -0.0286  0.0246  0.1100
   78SLPC   C39 7174   0.499   3.752   7.447 -0.1042 -0.7745 -0.5952
   78SLPC   H9X 7175   0.441   3.847   7.448  2.5968  1.0655  3.0885
   78SLPC   H9Y 7176   0.560   3.754   7.354 -2.3375  3.0517 -2.1960
   78SLPC  C310 7177   0.596   3.749   7.571  0.2811 -0.0109  0.6089
   78SLPC  H10X 7178   0.685   3.811   7.548  0.8989 -1.9260 -2.7126
   78SLPC  H10Y 7179   0.627   3.645   7.592  0.8861  0.1964  0.7463
   78SLPC  C311 7180   0.540   3.810   7.704 -0.3898  0.0223 -0.2382
   78SLPC  H11X 7181   0.475   3.746   7.767  0.0126 -1.0465 -0.8913
   78SLPC  H11Y 7182   0.480   3.899   7.675 -0.2271  0.1834 -0.0781
   78SLPC  C312 7183   0.656   3.859   7.795  0.2732  0.8379 -0.5883
   78SLPC  H12X 7184   0.719   3.938   7.748  3.4932 -1.2002  0.0140
   78SLPC  H12Y 7185   0.725   3.779   7.828 -1.3312 -0.5487 -0.5242
   78SLPC  C313 7186   0.600   3.929   7.920 -0.3214 -0.2024  0.4783
   78SLPC  H13X 7187   0.579   3.845   7.989  0.1339 -0.3735  0.4092
   78SLPC  H13Y 7188   0.505   3.984   7.900  0.4733  1.8980  2.0533
   78SLPC  C314 7189   0.711   4.019   7.979 -0.5434  0.2077  0.2152
   78SLPC  H14X 7190   0.740   4.096   7.904  3.0379 -1.5353 -0.4258
   78SLPC  H14Y 7191   0.803   3.958   7.997  2.0983  3.1865 -1.9710
   78SLPC  C315 7192   0.675   4.097   8.108 -0.7059  0.1400 -0.4580
   78SLPC  H15X 7193   0.568   4.125   8.111 -1.2844 -1.7609 -1.5076
   78SLPC  H15Y 7194   0.728   4.194   8.102  1.3977 -0.9109  0.1099
   78SLPC  C316 7195   0.730   4.012   8.232  0.5960 -0.4410  0.3655
   78SLPC  H16X 7196   0.840   4.008   8.223  0.9298  2.0000  2.3168
   78SLPC  H16Y 7197   0.677   3.915   8.227 -1.8488  0.8505 -1.0597
   78SLPC  C317 7198   0.694   4.076   8.363  0.8594  0.1273  0.2394
   78SLPC  H17X 7199   0.584   4.065   8.377  1.1231 -1.6993  1.2487
   78SLPC  H17Y 7200   0.725   4.182   8.348  1.0091  0.0613  0.0857
   78SLPC  C318 7201   0.763   4.024   8.483 -0.2672  0.7732  0.4864
   78SLPC  H18X 7202   0.873   4.017   8.471 -0.2806 -0.6403  1.0278
   78SLPC  H18Y 7203   0.726   3.924   8.513 -0.9145  0.1484 -2.1244
   78SLPC  H18Z 7204   0.736   4.092   8.566 -2.9635 -0.7222  0.9620
   79SLPC     N 7205   2.319   5.995   6.214  0.4528  0.0231  0.0922
   79SLPC   C13 7206   2.253   6.107   6.136  0.0406 -0.4520  0.5047
   79SLPC  H13A 7207   2.298   6.119   6.038 -0.7218 -2.4784 -0.1559
   79SLPC  H13B 7208   2.147   6.095   6.118  0.0620 -0.0086  0.0525
   79SLPC  H13C 7209   2.258   6.195   6.198  1.7782 -1.0325  1.2285
   79SLPC   C14 7210   2.459   6.001   6.187  0.1586  0.3062  0.1694
   79SLPC  H14A 7211   2.493   6.092   6.233 -0.8471  0.4922  0.5729
   79SLPC  H14B 7212   2.498   5.906   6.221 -3.5151 -1.3211  0.3099
   79SLPC  H14C 7213   2.491   6.009   6.084  1.9320  0.2456  0.6844
   79SLPC   C15 7214   2.270   5.864   6.156 -0.5673  0.4021  0.8648
   79SLPC  H15A 7215   2.332   5.825   6.077 -0.4278 -1.1034  1.6861
   79SLPC  H15B 7216   2.263   5.787   6.231 -4.6691 -0.5189 -0.2214
   79SLPC  H15C 7217   2.172   5.879   6.112  0.3656  0.1225 -1.4477
   79SLPC   C12 7218   2.293   6.010   6.361 -0.5869 -0.1425 -0.1159
   79SLPC  H12A 7219   2.193   5.990   6.397 -0.0789 -1.9580  0.3525
   79SLPC  H12B 7220   2.303   6.116   6.380 -0.7218 -0.1573  0.0373
   79SLPC   C11 7221   2.376   5.922   6.464  0.0599  0.1869 -0.0229
   79SLPC  H11A 7222   2.323   5.945   6.558 -1.2188 -1.4878 -0.2923
   79SLPC  H11B 7223   2.480   5.962   6.471  0.1996  0.1140 -1.3215
   79SLPC     P 7224   2.476   5.688   6.374  0.1304  0.0022 -0.5373
   79SLPC   O13 7225   2.423   5.597   6.272 -0.4088 -0.3251 -0.2576
   79SLPC   O14 7226   2.589   5.770   6.334  0.2588 -0.2455 -0.1808
   79SLPC   O12 7227   2.361   5.781   6.432 -0.4180 -0.4500  0.2906
   79SLPC   O11 7228   2.520   5.608   6.503  0.0344 -0.3190 -0.3769
   79SLPC    C1 7229   2.522   5.666   6.634  0.2648 -0.7543  0.5621
   79SLPC    HA 7230   2.471   5.762   6.653 -0.8352 -1.1950 -0.0811
   79SLPC    HB 7231   2.475   5.593   6.703 -0.0640 -1.5508 -0.4689
   79SLPC    C2 7232   2.665   5.691   6.685 -0.0965  0.4453  0.1989
   79SLPC    HS 7233   2.706   5.760   6.608 -1.3392  1.5897  0.5315
   79SLPC   O21 7234   2.738   5.565   6.700 -0.3386 -0.0098 -0.4282
   79SLPC   C21 7235   2.862   5.579   6.737  0.7417  0.8084 -0.2571
   79SLPC   O22 7236   2.928   5.680   6.714 -0.1979  0.6928 -0.5560
   79SLPC   C22 7237   2.920   5.448   6.808  0.1202 -0.1283 -0.0957
   79SLPC   H2R 7238   2.851   5.362   6.824 -0.3017 -0.1436 -1.8769
   79SLPC   H2S 7239   2.980   5.404   6.725  1.4824 -2.0317  1.7641
   79SLPC    C3 7240   2.643   5.760   6.816 -0.0577  0.0418  0.1089
   79SLPC    HX 7241   2.574   5.844   6.796 -0.3730 -0.0855  0.6280
   79SLPC    HY 7242   2.731   5.810   6.862 -0.7644  1.2785  0.1318
   79SLPC   O31 7243   2.579   5.677   6.912 -0.5792 -0.0467 -0.5153
   79SLPC   C31 7244   2.552   5.744   7.029 -0.0797  0.6380  0.3923
   79SLPC   O32 7245   2.611   5.842   7.067 -0.1601 -0.1077  0.2753
   79SLPC   C32 7246   2.451   5.667   7.112 -0.2399 -0.4981 -1.0124
   79SLPC   H2X 7247   2.453   5.556   7.113 -2.3956 -0.6408  2.3785
   79SLPC   H2Y 7248   2.352   5.708   7.083 -0.1086 -0.3628 -1.2770
   79SLPC   C23 7249   3.001   5.479   6.933 -0.7464  0.3495 -0.6586
   79SLPC   H3R 7250   3.081   5.554   6.916  0.6744 -1.0653 -0.4248
   79SLPC   H3S 7251   3.050   5.388   6.973 -1.2414 -0.1578 -1.1837
   79SLPC   C24 7252   2.907   5.524   7.047  0.1526  0.4951 -0.5921
   79SLPC   H4R 7253   2.831   5.446   7.071  0.9995 -0.5694 -1.2546
   79SLPC   H4S 7254   2.843   5.607   7.011  1.1051  1.9930  0.9984
   79SLPC   C25 7255   2.992   5.551   7.170  0.2337  0.2701 -0.0181
   79SLPC   H5R 7256   3.072   5.618   7.131 -0.5492 -0.5652 -3.3759
   79SLPC   H5S 7257   3.045   5.459   7.201 -1.2008  0.2708  2.7331
   79SLPC   C26 7258   2.910   5.589   7.289 -0.0402 -0.1642  0.0869
   79SLPC   H6R 7259   2.853   5.501   7.326 -0.8710 -0.4390 -1.7292
   79SLPC   H6S 7260   2.837   5.667   7.261  0.4830  0.7074  1.0572
   79SLPC   C27 7261   2.992   5.644   7.406 -0.2360  0.0404 -0.1445
   79SLPC   H7R 7262   3.073   5.704   7.358  0.1985  0.0888  0.6296
   79SLPC   H7S 7263   3.028   5.560   7.469  0.9848 -0.0207 -0.8754
   79SLPC   C28 7264   2.906   5.730   7.501 -1.2105 -0.8702  0.3889
   79SLPC   H8R 7265   2.837   5.650   7.535  0.4367 -2.2255  0.7332
   79SLPC   H8S 7266   2.845   5.811   7.457  0.3380  0.6767  0.9749
   79SLPC   C29 7267   2.994   5.788   7.611 -0.3529 -0.0232 -0.3691
   79SLPC   H9R 7268   3.069   5.861   7.578 -0.3608  1.3059  2.2839
   79SLPC  C210 7269   2.992   5.763   7.747  0.1681 -0.1482  0.4194
   79SLPC  H10R 7270   3.056   5.831   7.804 -0.7891  1.8488 -0.7850
   79SLPC  C211 7271   2.903   5.667   7.816 -0.0231  0.6911 -0.5833
   79SLPC  H11R 7272   2.964   5.589   7.865 -1.3356  1.7332  3.0447
   79SLPC  H11S 7273   2.834   5.614   7.747  1.9974 -0.7922 -1.5666
   79SLPC  C212 7274   2.835   5.738   7.930 -0.1551 -0.2823 -0.4553
   79SLPC  H12R 7275   2.737   5.785   7.910  1.0271  2.8789  0.6272
   79SLPC  C213 7276   2.877   5.778   8.049  0.3263 -0.0004  0.5023
   79SLPC  H13R 7277   2.812   5.838   8.114  0.3204  1.0184 -0.4140
   79SLPC  C214 7278   3.019   5.743   8.100  0.5146  0.4461 -0.2131
   79SLPC  H14R 7279   3.068   5.828   8.152 -1.4298  1.1758  0.5387
   79SLPC  H14S 7280   3.078   5.713   8.011 -1.9660  0.4143 -1.9719
   79SLPC  C215 7281   3.010   5.623   8.203 -0.2358 -0.5880  0.6602
   79SLPC  H15R 7282   2.977   5.532   8.148  1.0045 -1.5245  1.4097
   79SLPC  H15S 7283   2.936   5.649   8.282  1.0003  3.3734  0.7503
   79SLPC  C216 7284   3.146   5.593   8.273 -0.0439  0.6166  0.1712
   79SLPC  H16R 7285   3.192   5.664   8.344  2.0992 -0.2708 -0.2229
   79SLPC  H16S 7286   3.210   5.591   8.181 -1.1797 -2.7815 -0.7233
   79SLPC  C217 7287   3.155   5.454   8.337 -0.0142  0.2487 -0.0283
   79SLPC  H17R 7288   3.126   5.379   8.260 -1.2675 -0.5034  1.1341
   79SLPC  H17S 7289   3.100   5.450   8.433 -0.5888  1.0049 -0.3152
   79SLPC  C218 7290   3.299   5.433   8.385  0.8101 -0.3920 -0.3665
   79SLPC  H18R 7291   3.359   5.437   8.291  1.2818  0.5387 -0.0330
   79SLPC  H18S 7292   3.308   5.337   8.439 -1.3191 -0.5347 -0.1811
   79SLPC  H18T 7293   3.321   5.518   8.453  1.2380 -0.3881 -0.5097
   79SLPC   C33 7294   2.473   5.709   7.259  0.3186  0.0037 -0.1072
   79SLPC   H3X 7295   2.439   5.813   7.278 -1.2050 -0.5521  0.3582
   79SLPC   H3Y 7296   2.575   5.703   7.303 -0.2750  1.5955  1.6026
   79SLPC   C34 7297   2.385   5.626   7.350 -0.4524  0.6148  0.1164
   79SLPC   H4X 7298   2.421   5.521   7.354  0.0082  0.8167  2.7314
   79SLPC   H4Y 7299   2.277   5.628   7.324 -0.6432 -4.5302 -0.3434
   79SLPC   C35 7300   2.387   5.688   7.491  0.2765 -0.0136  0.7736
   79SLPC   H5X 7301   2.369   5.797   7.483 -0.3479 -0.2534 -1.6269
   79SLPC   H5Y 7302   2.483   5.655   7.538  0.1280 -1.3898  0.1609
   79SLPC   C36 7303   2.275   5.631   7.588  0.0529  0.1210  0.3303
   79SLPC   H6X 7304   2.310   5.527   7.607  1.7938  0.6221 -0.0020
   79SLPC   H6Y 7305   2.180   5.617   7.531  0.1231  1.1468 -0.0634
   79SLPC   C37 7306   2.259   5.711   7.713 -0.0585  0.1205 -0.4187
   79SLPC   H7X 7307   2.166   5.677   7.762  0.3174  0.6248  0.6632
   79SLPC   H7Y 7308   2.241   5.815   7.679  0.3555  0.8961  1.6472
   79SLPC   C38 7309   2.379   5.704   7.811  0.3212 -0.0229 -0.5984
   79SLPC   H8X 7310   2.468   5.750   7.762 -0.5506  1.1582 -1.1251
   79SLPC   H8Y 7311   2.401   5.597   7.834 -0.3531  0.0854  0.6283
   79SLPC   C39 7312   2.351   5.766   7.944  0.1774 -0.2391  0.2438
   79SLPC   H9X 7313   2.435   5.746   8.015  0.7431 -0.1795 -0.3934
   79SLPC   H9Y 7314   2.253   5.730   7.981 -0.8330 -1.2018 -3.0890
   79SLPC  C310 7315   2.347   5.923   7.944  0.1925 -0.4030 -0.1126
   79SLPC  H10X 7316   2.244   5.949   7.909 -0.2099 -0.0214  1.2955
   79SLPC  H10Y 7317   2.424   5.954   7.871 -1.3224 -1.1737 -2.1459
   79SLPC  C311 7318   2.371   5.991   8.084  0.0294 -0.0146  0.6086
   79SLPC  H11X 7319   2.384   6.099   8.064 -2.9484  0.8514  2.6240
   79SLPC  H11Y 7320   2.463   5.950   8.132  1.4405 -1.3011 -2.8462
   79SLPC  C312 7321   2.265   5.961   8.188 -0.5824 -0.0238 -0.2035
   79SLPC  H12X 7322   2.252   5.852   8.201  1.3173 -0.1455  1.1285
   79SLPC  H12Y 7323   2.167   6.008   8.167 -0.4757  0.8951  1.1901
   79SLPC  C313 7324   2.303   6.027   8.322 -0.0545  0.8976 -0.3487
   79SLPC  H13X 7325   2.275   6.135   8.327  0.5117  1.0964 -1.2660
   79SLPC  H13Y 7326   2.412   6.011   8.336  0.1639  1.6890 -1.0538
   79SLPC  C314 7327   2.232   5.966   8.447  0.3052 -0.1376 -0.1761
   79SLPC  H14X 7328   2.242   5.855   8.451  2.0652 -0.2482 -3.6641
   79SLPC  H14Y 7329   2.127   6.001   8.457  0.2591 -0.2768 -0.1766
   79SLPC  C315 7330   2.311   6.023   8.569  0.0872  0.0015  0.4341
   79SLPC  H15X 7331   2.301   6.133   8.569 -2.3990 -0.1690  1.2085
   79SLPC  H15Y 7332   2.413   5.981   8.556 -0.2087 -0.3600 -0.9007
   79SLPC  C316 7333   2.265   5.975   8.708 -0.1170  0.6670  0.1819
   79SLPC  H16X 7334   2.342   5.994   8.785  0.2464  0.1300 -0.0384
   79SLPC  H16Y 7335   2.259   5.864   8.715  0.5233  0.6886  1.1825
   79SLPC  C317 7336   2.142   6.046   8.738  0.2660 -0.1414 -0.1148
   79SLPC  H17X 7337   2.057   5.997   8.686 -1.7469  1.5882  1.4360
   79SLPC  H17Y 7338   2.138   6.155   8.719 -3.2896 -0.1734 -0.2045
   79SLPC  C318 7339   2.101   6.026   8.881  0.2943 -0.5575 -0.0153
   79SLPC  H18X 7340   2.098   6.117   8.945 -1.3785 -1.0614  0.6627
   79SLPC  H18Y 7341   2.171   5.959   8.935  1.1753  0.7488  0.5343
   79SLPC  H18Z 7342   2.004   5.972   8.878 -0.5037  0.7360 -3.6918
   80SLPC     N 7343   6.222   3.513   6.102  0.1130  0.9316 -0.1135
   80SLPC   C13 7344   6.318   3.434   6.013 -0.0513  0.1525  0.0441
   80SLPC  H13A 7345   6.414   3.477   5.988  0.9760 -1.6405  0.6939
   80SLPC  H13B 7346   6.339   3.335   6.051 -0.6569 -0.7411 -1.8312
   80SLPC  H13C 7347   6.278   3.430   5.913  0.8670 -0.2314 -0.3242
   80SLPC   C14 7348   6.093   3.433   6.110  0.2240 -0.5465  0.0244
   80SLPC  H14A 7349   6.031   3.489   6.179 -0.3745 -0.8059 -0.2956
   80SLPC  H14B 7350   6.039   3.425   6.017  0.0972  3.6730 -0.4852
   80SLPC  H14C 7351   6.108   3.335   6.153  0.4746 -0.5185 -0.0009
   80SLPC   C15 7352   6.181   3.640   6.041  0.3715 -0.4184 -0.1618
   80SLPC  H15A 7353   6.112   3.619   5.960  1.6411 -2.8016 -0.7242
   80SLPC  H15B 7354   6.142   3.703   6.120  0.2002 -0.4694 -0.2045
   80SLPC  H15C 7355   6.267   3.698   6.011 -0.6753  1.6749  0.6981
   80SLPC   C12 7356   6.281   3.540   6.240  0.3702 -0.4270  0.2317
   80SLPC  H12A 7357   6.294   3.446   6.292 -0.5582 -0.4212  0.4762
   80SLPC  H12B 7358   6.209   3.597   6.295 -0.1683  0.6527 -1.4976
   80SLPC   C11 7359   6.410   3.616   6.248 -0.3658 -0.3628 -0.0406
   80SLPC  H11A 7360   6.407   3.660   6.350 -3.7211  1.0654 -0.6131
   80SLPC  H11B 7361   6.417   3.695   6.169  0.1704 -1.8802 -1.5662
   80SLPC     P 7362   6.654   3.549   6.151  0.1574  0.3345  0.1095
   80SLPC   O13 7363   6.659   3.452   6.037 -0.4991  0.0087 -0.0229
   80SLPC   O14 7364   6.665   3.686   6.106  0.3130 -0.6669  0.1144
   80SLPC   O12 7365   6.522   3.530   6.233 -0.2165  0.1382 -0.0856
   80SLPC   O11 7366   6.770   3.525   6.263 -0.1070  0.2959 -0.1906
   80SLPC    C1 7367   6.811   3.598   6.375 -0.4082  0.0811  0.4256
   80SLPC    HA 7368   6.917   3.570   6.389 -0.4987 -1.1951 -1.0805
   80SLPC    HB 7369   6.811   3.706   6.350  1.3295  0.0875  0.3356
   80SLPC    C2 7370   6.721   3.556   6.500  0.0818 -0.3624 -0.0946
   80SLPC    HS 7371   6.614   3.582   6.485  0.1195 -1.3368 -2.5296
   80SLPC   O21 7372   6.781   3.626   6.605 -0.8613 -0.2133 -0.9038
   80SLPC   C21 7373   6.704   3.680   6.702 -0.2405  0.7318 -0.3359
   80SLPC   O22 7374   6.584   3.678   6.710  0.1851 -0.6792 -0.2320
   80SLPC   C22 7375   6.806   3.751   6.791  0.0452  0.2559  0.0658
   80SLPC   H2R 7376   6.882   3.680   6.830  0.4647  0.7052  0.0800
   80SLPC   H2S 7377   6.859   3.819   6.721  0.3661  0.6738  0.7099
   80SLPC    C3 7378   6.736   3.402   6.529  0.4911  0.1207 -0.7892
   80SLPC    HX 7379   6.842   3.389   6.498  0.4567  2.2174 -1.9139
   80SLPC    HY 7380   6.670   3.357   6.452  2.0337  0.3463 -2.2921
   80SLPC   O31 7381   6.699   3.361   6.666  0.3491 -0.2978 -0.3624
   80SLPC   C31 7382   6.737   3.238   6.696  0.1921  0.3044  0.1609
   80SLPC   O32 7383   6.806   3.171   6.621 -0.2064 -0.0525 -0.2306
   80SLPC   C32 7384   6.689   3.198   6.846  0.3079  0.2032 -0.1801
   80SLPC   H2X 7385   6.780   3.172   6.905  0.9907  0.9490 -0.8794
   80SLPC   H2Y 7386   6.631   3.109   6.815 -2.5626  1.7859  0.2664
   80SLPC   C23 7387   6.741   3.823   6.906 -0.5769 -0.3233  0.3275
   80SLPC   H3R 7388   6.663   3.756   6.948 -0.8479  0.0567  0.4291
   80SLPC   H3S 7389   6.687   3.911   6.864 -1.2340 -0.4891  0.8124
   80SLPC   C24 7390   6.842   3.864   7.017 -0.8886  0.2351  0.7521
   80SLPC   H4R 7391   6.918   3.926   6.964  1.2306 -2.7588  0.0196
   80SLPC   H4S 7392   6.890   3.776   7.064  0.6027  0.2526 -0.6362
   80SLPC   C25 7393   6.783   3.959   7.121 -0.1042  0.1613  0.0504
   80SLPC   H5R 7394   6.693   3.912   7.167  0.7295  0.2922  1.8627
   80SLPC   H5S 7395   6.732   4.043   7.069 -2.7001 -2.1792 -1.5189
   80SLPC   C26 7396   6.881   3.985   7.243 -0.8411 -0.5653  0.1112
   80SLPC   H6R 7397   6.944   4.069   7.206 -1.0491 -0.1648  0.6476
   80SLPC   H6S 7398   6.945   3.895   7.254  0.6577  0.7035  2.7591
   80SLPC   C27 7399   6.815   4.025   7.374  0.5256 -0.2713  0.6272
   80SLPC   H7R 7400   6.759   3.933   7.402 -1.5176  0.0938 -1.9626
   80SLPC   H7S 7401   6.733   4.099   7.361  0.5870 -0.0416  1.4811
   80SLPC   C28 7402   6.922   4.067   7.477 -0.6068  0.3755  0.0916
   80SLPC   H8R 7403   6.997   3.986   7.492 -1.0973 -0.0313  0.3715
   80SLPC   H8S 7404   6.874   4.073   7.577  0.4264  1.5283  0.5475
   80SLPC   C29 7405   7.005   4.186   7.444 -0.5071 -0.0538 -1.0792
   80SLPC   H9R 7406   6.987   4.237   7.348 -0.4579  2.3791  0.1090
   80SLPC  C210 7407   7.106   4.238   7.509 -0.0649  0.0245 -0.3536
   80SLPC  H10R 7408   7.161   4.321   7.462  3.2977 -1.9320 -0.2081
   80SLPC  C211 7409   7.164   4.196   7.637 -0.5329  0.1348 -0.5166
   80SLPC  H11R 7410   7.190   4.088   7.641 -3.2974 -0.5689  1.8609
   80SLPC  H11S 7411   7.090   4.207   7.720 -0.4146 -0.3730 -0.3418
   80SLPC  C212 7412   7.292   4.275   7.682  0.1050 -0.5342  1.0821
   80SLPC  H12R 7413   7.385   4.224   7.653 -0.0977  0.9812 -2.8807
   80SLPC  C213 7414   7.297   4.398   7.743 -0.2417 -0.4270 -0.6087
   80SLPC  H13R 7415   7.399   4.423   7.777 -0.5429 -1.9221  1.6121
   80SLPC  C214 7416   7.187   4.479   7.790  0.6146  0.1948  0.5199
   80SLPC  H14R 7417   7.093   4.446   7.743  1.1340  0.0789 -0.4639
   80SLPC  H14S 7418   7.210   4.580   7.749 -0.3008  0.0387 -0.3838
   80SLPC  C215 7419   7.168   4.477   7.946  0.5115 -0.6744  0.4221
   80SLPC  H15R 7420   7.126   4.374   7.955 -1.5633  0.1529  0.8211
   80SLPC  H15S 7421   7.093   4.554   7.975  1.8381  0.8244 -0.0089
   80SLPC  C216 7422   7.298   4.493   8.034 -1.0166 -0.1942 -0.4439
   80SLPC  H16R 7423   7.352   4.583   7.998  1.3069 -1.4104 -0.1739
   80SLPC  H16S 7424   7.360   4.401   8.025 -0.8626 -0.3832  2.0030
   80SLPC  C217 7425   7.270   4.510   8.183  0.4293 -0.7234 -0.0691
   80SLPC  H17R 7426   7.227   4.417   8.228 -1.5225  1.3256  2.6626
   80SLPC  H17S 7427   7.192   4.584   8.211 -2.2329 -2.9207 -1.1698
   80SLPC  C218 7428   7.402   4.531   8.269 -0.6691  1.4820  0.2188
   80SLPC  H18R 7429   7.459   4.607   8.211 -1.0902  0.6587 -1.3427
   80SLPC  H18S 7430   7.462   4.437   8.278 -1.3349  1.0141 -0.1092
   80SLPC  H18T 7431   7.372   4.574   8.367 -2.8686  1.8412 -0.5583
   80SLPC   C33 7432   6.601   3.298   6.928  0.1658 -0.3541 -0.0182
   80SLPC   H3X 7433   6.553   3.245   7.013  0.6013 -1.1298 -0.2471
   80SLPC   H3Y 7434   6.521   3.341   6.865 -0.2027 -0.6842  0.2209
   80SLPC   C34 7435   6.688   3.415   6.975 -0.5965 -0.7456 -1.1105
   80SLPC   H4X 7436   6.742   3.469   6.894  1.7957  1.2197  1.5985
   80SLPC   H4Y 7437   6.774   3.388   7.041  0.1385 -0.1779 -1.8113
   80SLPC   C35 7438   6.600   3.520   7.052  0.4942  0.3700 -0.1203
   80SLPC   H5X 7439   6.503   3.470   7.072 -0.1071  1.5933  0.1323
   80SLPC   H5Y 7440   6.575   3.600   6.979  2.0225  0.1849 -0.8794
   80SLPC   C36 7441   6.647   3.574   7.185 -0.0116  0.2738  0.2911
   80SLPC   H6X 7442   6.584   3.660   7.216 -0.3614 -0.2697  1.1290
   80SLPC   H6Y 7443   6.750   3.615   7.180 -0.6037  1.6485 -1.2397
   80SLPC   C37 7444   6.643   3.464   7.292 -0.5417  0.2336 -0.7051
   80SLPC   H7X 7445   6.726   3.391   7.279 -0.6090  0.2884 -1.4459
   80SLPC   H7Y 7446   6.548   3.408   7.282  0.9296 -3.3543  2.7087
   80SLPC   C38 7447   6.640   3.521   7.430 -0.0001  0.3545 -0.4814
   80SLPC   H8X 7448   6.608   3.435   7.493 -2.7061 -0.4497 -2.7546
   80SLPC   H8Y 7449   6.552   3.589   7.434  1.1313  1.8435  0.3034
   80SLPC   C39 7450   6.761   3.607   7.483  0.7633  0.1951  0.7475
   80SLPC   H9X 7451   6.792   3.683   7.409 -1.7851  0.8375  0.2249
   80SLPC   H9Y 7452   6.845   3.536   7.499 -0.4004 -1.4581 -0.1940
   80SLPC  C310 7453   6.744   3.670   7.618 -0.1435 -0.7999 -0.2523
   80SLPC  H10X 7454   6.737   3.590   7.695 -0.4182  1.3645  2.1020
   80SLPC  H10Y 7455   6.653   3.733   7.608 -0.2617 -0.9279  0.0092
   80SLPC  C311 7456   6.865   3.752   7.666 -1.2842  0.1234  0.2357
   80SLPC  H11X 7457   6.923   3.809   7.590 -1.5052  1.0104  0.7247
   80SLPC  H11Y 7458   6.938   3.672   7.691  0.1311  0.8735 -1.2688
   80SLPC  C312 7459   6.848   3.843   7.784  0.0937  0.3162 -0.3835
   80SLPC  H12X 7460   6.825   3.793   7.881  2.0127 -0.5839 -0.3598
   80SLPC  H12Y 7461   6.769   3.919   7.762 -1.0371 -1.1688 -1.7133
   80SLPC  C313 7462   6.975   3.910   7.819 -0.0774 -0.1045 -0.0390
   80SLPC  H13X 7463   7.026   3.954   7.731  1.3251  2.0580  1.7101
   80SLPC  H13Y 7464   7.047   3.832   7.851  2.4382  2.0057 -0.1882
   80SLPC  C314 7465   6.959   4.029   7.924  0.1317 -0.1880 -0.9302
   80SLPC  H14X 7466   6.897   4.119   7.904  0.2432  1.2459  3.8853
   80SLPC  H14Y 7467   7.063   4.067   7.932 -0.5630  1.4295  1.8260
   80SLPC  C315 7468   6.917   3.985   8.065 -0.3477  0.6004  0.7154
   80SLPC  H15X 7469   6.820   3.931   8.055  0.8459 -1.4841 -0.1720
   80SLPC  H15Y 7470   6.908   4.066   8.140 -1.0074 -0.6040  1.9941
   80SLPC  C316 7471   7.017   3.892   8.129  0.2966  0.4910  0.9523
   80SLPC  H16X 7472   7.115   3.944   8.137  0.7840  0.0478 -1.4826
   80SLPC  H16Y 7473   7.044   3.812   8.058  1.0450  0.1438  1.6006
   80SLPC  C317 7474   6.973   3.833   8.258 -0.1285  0.3781  0.0251
   80SLPC  H17X 7475   6.880   3.773   8.248 -1.5842  2.4395  0.5233
   80SLPC  H17Y 7476   6.959   3.917   8.329  0.5334 -0.6808  1.4768
   80SLPC  C318 7477   7.093   3.752   8.325 -0.8034 -0.8344 -0.2959
   80SLPC  H18X 7478   7.144   3.686   8.251  1.6182 -0.3024  0.8135
   80SLPC  H18Y 7479   7.052   3.694   8.410 -2.2128 -1.1425 -1.1351
   80SLPC  H18Z 7480   7.169   3.820   8.367 -0.3987 -1.1696 -0.4727
   81SAPS     N 7481   2.753   2.412  10.959 -0.0812  0.7005  0.1312
   81SAPS   HN1 7482   2.685   2.338  10.932 -0.2608  0.7342  0.4801
   81SAPS   HN2 7483   2.694   2.497  10.971 -1.1476 -0.1221  0.9690
   81SAPS   HN3 7484   2.824   2.434  10.887  0.4019 -0.0112  0.3827
   81SAPS   C12 7485   2.817   2.378  11.089 -0.1757  0.1777 -0.7907
   81SAPS  H12A 7486   2.891   2.452  11.116 -0.9002  0.4765  0.4605
   81SAPS   C13 7487   2.724   2.389  11.220 -0.3542  0.6582 -0.9176
   81SAPS  O13A 7488   2.602   2.418  11.202 -0.2977  0.4966 -0.0832
   81SAPS  O13B 7489   2.768   2.368  11.339 -0.6105 -0.2829 -0.1583
   81SAPS   C11 7490   2.885   2.235  11.088  0.4916 -0.6025 -0.2393
   81SAPS  H11A 7491   2.933   2.218  11.187  0.1961 -1.7265 -0.2648
   81SAPS  H11B 7492   2.965   2.245  11.012  0.8468 -0.3986  0.1563
   81SAPS     P 7493   2.837   1.994  10.992  0.1919  0.0903 -0.2318
   81SAPS   O13 7494   2.926   1.921  11.084 -0.6313  0.0961 -0.9704
   81SAPS   O14 7495   2.718   1.927  10.951  0.0014  0.3242  0.2277
   81SAPS   O12 7496   2.796   2.133  11.059 -0.3605 -0.9268 -0.3367
   81SAPS   O11 7497   2.910   2.045  10.860 -0.0723 -0.1401 -0.1521
   81SAPS    C1 7498   2.842   2.057  10.733  0.0013  0.5344 -0.0811
   81SAPS    HA 7499   2.816   1.956  10.696  0.7609  0.2152  0.2379
   81SAPS    HB 7500   2.749   2.115  10.754 -0.6862 -1.4536  3.1009
   81SAPS    C2 7501   2.915   2.132  10.611  0.5315 -0.0216  0.0827
   81SAPS    HS 7502   2.838   2.153  10.533 -0.5069  2.2053  1.6083
   81SAPS   O21 7503   3.031   2.061  10.573 -0.2162  0.0793 -0.9120
   81SAPS   C21 7504   3.002   1.951  10.499 -0.3469 -0.0907 -0.0226
   81SAPS   O22 7505   2.890   1.920  10.461 -0.1098 -0.4007 -0.2414
   81SAPS   C22 7506   3.129   1.883  10.459 -0.6554  0.1532 -0.3885
   81SAPS   H2R 7507   3.219   1.947  10.473 -1.2491  0.7734  0.7439
   81SAPS   H2S 7508   3.137   1.809  10.542 -0.8672  1.1049  0.4969
   81SAPS    C3 7509   2.965   2.273  10.661  0.4295  0.3589 -0.5759
   81SAPS    HX 7510   3.040   2.275  10.743 -1.1912  2.7594  0.9974
   81SAPS    HY 7511   2.880   2.330  10.706  1.6984  1.7441  0.1666
   81SAPS   O31 7512   3.009   2.345  10.546  0.2211  0.0793  0.0285
   81SAPS   C31 7513   3.140   2.323  10.528 -0.5594  0.3425 -0.7611
   81SAPS   O32 7514   3.215   2.254  10.598 -0.2725  0.4824 -0.3989
   81SAPS   C32 7515   3.178   2.410  10.410 -0.5415  0.0271  0.7295
   81SAPS   H2X 7516   3.110   2.498  10.415 -0.6418  0.0224 -0.3725
   81SAPS   H2Y 7517   3.145   2.343  10.328  1.0390 -1.1815  1.0359
   81SAPS   C23 7518   3.114   1.816  10.319 -0.0183  0.0270 -0.3534
   81SAPS   H3R 7519   3.026   1.748  10.315  1.0105 -1.3574 -0.1494
   81SAPS   H3S 7520   3.204   1.753  10.300  0.8674  1.5805 -1.5363
   81SAPS   C24 7521   3.114   1.903  10.188  0.0807  0.6115  0.2261
   81SAPS   H4R 7522   3.011   1.944  10.188 -0.1331  0.0845  0.5638
   81SAPS   H4S 7523   3.114   1.835  10.100  1.6418  0.7243  0.0992
   81SAPS   C25 7524   3.219   2.011  10.177  0.0203  0.1768  0.2598
   81SAPS   H5R 7525   3.290   2.009  10.262  1.3894  0.0566 -0.8426
   81SAPS   C26 7526   3.225   2.107  10.084  0.2498 -0.0777  0.2744
   81SAPS   H6R 7527   3.320   2.163  10.087  0.4293 -0.2091 -1.6675
   81SAPS   C27 7528   3.127   2.129   9.974 -0.1158  1.2020  0.3311
   81SAPS   H7R 7529   3.037   2.063   9.978  0.6127  0.1126 -0.5398
   81SAPS   H7S 7530   3.168   2.101   9.875  0.3424  0.5958  0.6760
   81SAPS   C28 7531   3.083   2.269   9.978 -0.2773  0.7769 -0.6719
   81SAPS   H8R 7532   3.153   2.340   9.932  0.5000  1.6139  1.6519
   81SAPS   C29 7533   2.980   2.323  10.050 -0.4597  0.2902 -0.0397
   81SAPS   H9R 7534   2.971   2.432  10.061 -1.8621  0.1121  0.7150
   81SAPS  C210 7535   2.869   2.254  10.133 -0.5235  0.9166  0.2450
   81SAPS  H10R 7536   2.905   2.150  10.139  0.8987  1.2133 -2.0954
   81SAPS  H10S 7537   2.772   2.243  10.080 -0.5667  0.3529  0.4342
   81SAPS  C211 7538   2.835   2.315  10.267  0.2415  0.0173 -0.8436
   81SAPS  H11R 7539   2.924   2.317  10.332 -1.1990  2.4845  1.2671
   81SAPS  C212 7540   2.713   2.348  10.321 -0.1393 -0.2235 -0.3357
   81SAPS  H12R 7541   2.702   2.392  10.421 -5.2677 -1.2499 -0.2040
   81SAPS  C213 7542   2.581   2.334  10.244 -0.8493 -0.7588 -0.0902
   81SAPS  H13R 7543   2.500   2.309  10.315  1.5304  0.1951  3.2165
   81SAPS  H13S 7544   2.591   2.250  10.171  1.2080 -1.5892  1.0390
   81SAPS  C214 7545   2.567   2.474  10.174 -0.0302  0.6115  0.4556
   81SAPS  H14R 7546   2.600   2.561  10.233  2.0411 -0.8278  1.5262
   81SAPS  C215 7547   2.514   2.493  10.054 -0.5035 -0.0834  0.0763
   81SAPS  H15R 7548   2.521   2.596  10.014  0.6687 -0.2213 -0.1044
   81SAPS  C216 7549   2.463   2.385   9.965 -0.0878  0.2209 -0.0796
   81SAPS  H16R 7550   2.352   2.381   9.977  0.0023  0.6548  1.0239
   81SAPS  H16S 7551   2.499   2.284   9.993 -0.6341  0.0467  0.0184
   81SAPS  C217 7552   2.520   2.398   9.827  0.1504  0.6750 -0.0734
   81SAPS  H17R 7553   2.507   2.503   9.792 -1.5431  0.9257  1.2102
   81SAPS  H17S 7554   2.467   2.329   9.758  2.8429  0.5184 -2.1353
   81SAPS  C218 7555   2.668   2.336   9.807  0.1496  0.4455 -0.2348
   81SAPS  H18R 7556   2.688   2.239   9.858 -1.5381  0.4224  0.4424
   81SAPS  H18S 7557   2.745   2.407   9.844  0.9928 -0.1567 -0.8003
   81SAPS  C219 7558   2.695   2.311   9.656 -0.0904 -0.1980  0.5895
   81SAPS  H19R 7559   2.670   2.408   9.608 -0.0778 -1.2797 -1.7257
   81SAPS  H19S 7560   2.648   2.229   9.597 -0.7516  1.9819 -2.1034
   81SAPS  C220 7561   2.842   2.289   9.642 -0.1283  0.5026  0.0551
   81SAPS  H20R 7562   2.872   2.254   9.541  1.1129 -3.4427  1.6104
   81SAPS  H20S 7563   2.881   2.209   9.709  2.4090  0.7701 -0.9803
   81SAPS  H20T 7564   2.896   2.381   9.673 -0.8036  0.0890  2.7375
   81SAPS   C33 7565   3.332   2.440  10.400  0.2420 -0.8494  0.4577
   81SAPS   H3X 7566   3.388   2.344  10.406  2.9616  0.4854 -1.3666
   81SAPS   H3Y 7567   3.371   2.511  10.475  0.9488  0.7128 -1.3080
   81SAPS   C34 7568   3.372   2.497  10.261  0.4737 -0.2312 -0.2470
   81SAPS   H4X 7569   3.317   2.592  10.249 -0.3955 -0.2257  2.8347
   81SAPS   H4Y 7570   3.345   2.426  10.180  0.0413 -0.3989  0.0433
   81SAPS   C35 7571   3.518   2.532  10.251 -0.1644  0.0063  0.0871
   81SAPS   H5X 7572   3.579   2.444  10.283 -0.2296  0.0827  0.4251
   81SAPS   H5Y 7573   3.538   2.609  10.329 -3.8416 -0.4018  1.5995
   81SAPS   C36 7574   3.568   2.576  10.113 -0.0110 -0.2225 -0.3609
   81SAPS   H6X 7575   3.676   2.602  10.122  0.7169 -3.1897  0.3547
   81SAPS   H6Y 7576   3.522   2.674  10.086 -2.3337 -1.1750 -0.0854
   81SAPS   C37 7577   3.573   2.478  10.005 -0.6836  0.6904 -1.4169
   81SAPS   H7X 7578   3.472   2.443   9.976 -0.2179  0.1648 -2.4808
   81SAPS   H7Y 7579   3.645   2.399  10.037  0.2143  2.4697  1.3043
   81SAPS   C38 7580   3.617   2.527   9.868  0.1283  0.4859  0.4941
   81SAPS   H8X 7581   3.706   2.590   9.887  0.6989 -0.0158 -0.4435
   81SAPS   H8Y 7582   3.536   2.586   9.821  0.4846  0.4799 -0.1327
   81SAPS   C39 7583   3.654   2.408   9.773  0.3693  0.2793 -0.0131
   81SAPS   H9X 7584   3.569   2.339   9.755  0.9792 -1.9476  4.3008
   81SAPS   H9Y 7585   3.735   2.345   9.815  2.5217  1.8226 -1.5952
   81SAPS  C310 7586   3.692   2.466   9.635  0.0711 -0.5387 -0.2617
   81SAPS  H10X 7587   3.801   2.489   9.634  0.2867 -1.5128 -0.1923
   81SAPS  H10Y 7588   3.636   2.558   9.606 -1.6154 -0.9963  1.3333
   81SAPS  C311 7589   3.668   2.366   9.522 -0.1971 -0.0014  0.0134
   81SAPS  H11X 7590   3.572   2.311   9.529  0.7710 -1.5621  1.9988
   81SAPS  H11Y 7591   3.749   2.293   9.544 -0.8298 -0.8657 -0.4583
   81SAPS  C312 7592   3.684   2.424   9.380  0.4454 -0.5723  0.3224
   81SAPS  H12X 7593   3.780   2.479   9.372 -0.4464  1.1465  0.8156
   81SAPS  H12Y 7594   3.598   2.491   9.357  0.4314 -0.6949  0.0183
   81SAPS  C313 7595   3.683   2.308   9.277 -0.3079 -0.3073 -0.1326
   81SAPS  H13X 7596   3.589   2.250   9.291 -1.7818  1.2740 -2.6648
   81SAPS  H13Y 7597   3.767   2.239   9.298  0.0194  0.0145 -0.3746
   81SAPS  C314 7598   3.675   2.358   9.136 -0.2527 -0.1677  0.3554
   81SAPS  H14X 7599   3.754   2.432   9.114  1.0456 -1.1748  1.3909
   81SAPS  H14Y 7600   3.580   2.413   9.128 -0.4073 -0.5600 -0.7543
   81SAPS  C315 7601   3.681   2.252   9.025  0.2158  0.5780  0.5417
   81SAPS  H15X 7602   3.610   2.171   9.051  0.3846  0.1963 -0.1567
   81SAPS  H15Y 7603   3.780   2.202   9.015  0.1590  0.7249 -1.2187
   81SAPS  C316 7604   3.631   2.296   8.883 -0.4764 -0.5304 -0.8816
   81SAPS  H16X 7605   3.523   2.318   8.889 -0.7907 -2.3199  1.5549
   81SAPS  H16Y 7606   3.632   2.201   8.824 -0.1559 -1.2464  0.2371
   81SAPS  C317 7607   3.731   2.395   8.804 -0.5786 -0.3010  0.6506
   81SAPS  H17X 7608   3.830   2.346   8.820  0.1485  1.0264  0.3856
   81SAPS  H17Y 7609   3.732   2.492   8.857  0.3637  0.0626  0.0089
   81SAPS  C318 7610   3.703   2.414   8.653 -0.1894 -0.2114  0.3720
   81SAPS  H18X 7611   3.773   2.490   8.612  0.7551 -1.0293  0.4176
   81SAPS  H18Y 7612   3.600   2.451   8.634  0.6536  0.8861 -2.6490
   81SAPS  H18Z 7613   3.722   2.322   8.594 -2.7656  1.0991 -2.8026
   82SAPS     N 7614   0.176   0.824  10.578  0.3437  0.5026  0.6527
   82SAPS   HN1 7615   0.203   0.878  10.663  0.1092 -0.7256  1.5411
   82SAPS   HN2 7616   0.215   0.873  10.495 -0.4063  0.1428  0.0751
   82SAPS   HN3 7617   0.072   0.820  10.576  0.2980  1.5060  0.6152
   82SAPS   C12 7618   0.238   0.685  10.594 -0.6585 -0.0984 -0.1830
   82SAPS  H12A 7619   0.223   0.622  10.507  2.1748 -1.4607  0.2214
   82SAPS   C13 7620   0.392   0.670  10.616  0.3311 -0.9204 -0.0414
   82SAPS  O13A 7621   0.450   0.776  10.646  1.0276  0.0140 -0.4738
   82SAPS  O13B 7622   0.449   0.557  10.653  0.1813  0.3722 -0.1540
   82SAPS   C11 7623   0.174   0.617  10.714  0.0820 -0.9125 -0.5021
   82SAPS  H11A 7624   0.198   0.681  10.801 -3.0680 -0.7046  0.3262
   82SAPS  H11B 7625   0.217   0.515  10.724 -1.2445 -1.3305  1.4698
   82SAPS     P 7626  -0.054   0.484  10.652 -0.2972  0.2218  0.0644
   82SAPS   O13 7627  -0.048   0.375  10.749 -0.2292 -0.1025 -0.5658
   82SAPS   O14 7628  -0.188   0.528  10.614 -0.4245  0.3011 -0.1741
   82SAPS   O12 7629   0.032   0.605  10.697 -0.2020 -0.5729 -0.2906
   82SAPS   O11 7630   0.022   0.449  10.520  0.0598 -0.4673 -0.4021
   82SAPS    C1 7631  -0.017   0.487  10.390 -0.1365  0.3884 -0.4081
   82SAPS    HA 7632  -0.116   0.447  10.361 -1.0133  0.6062  2.0863
   82SAPS    HB 7633  -0.008   0.596  10.371  0.4676 -0.1544 -3.9718
   82SAPS    C2 7634   0.080   0.419  10.287  0.2167 -0.2243 -0.6679
   82SAPS    HS 7635   0.184   0.452  10.312 -0.5926 -0.1166  3.3259
   82SAPS   O21 7636   0.047   0.454  10.156 -0.0240  0.1720  0.2408
   82SAPS   C21 7637   0.068   0.570  10.110 -0.6430 -0.3862 -0.3825
   82SAPS   O22 7638   0.133   0.654  10.169 -0.0428 -0.1199  0.1891
   82SAPS   C22 7639   0.002   0.575   9.970 -0.1754 -0.3328 -0.2986
   82SAPS   H2R 7640   0.076   0.621   9.901 -2.5630  2.4690 -1.1887
   82SAPS   H2S 7641  -0.011   0.469   9.941 -0.9490 -1.1962  2.8542
   82SAPS    C3 7642   0.078   0.264  10.308 -0.1144 -0.4422 -0.1778
   82SAPS    HX 7643  -0.027   0.226  10.308 -0.3680  0.0792  2.0212
   82SAPS    HY 7644   0.121   0.241  10.408  0.6559  1.0516 -0.1420
   82SAPS   O31 7645   0.143   0.198  10.194  0.3966  0.3224 -0.8394
   82SAPS   C31 7646   0.255   0.130  10.231 -0.4801 -0.1330  0.5256
   82SAPS   O32 7647   0.316   0.138  10.332 -0.7835  0.2381 -0.4292
   82SAPS   C32 7648   0.304   0.043  10.116 -0.2580  0.1672 -0.1856
   82SAPS   H2X 7649   0.241   0.069  10.028 -0.1592  1.5474  0.1387
   82SAPS   H2Y 7650   0.277  -0.061  10.144  0.3359  0.4856  1.6750
   82SAPS   C23 7651  -0.127   0.647   9.977 -0.0106  0.4086 -0.1510
   82SAPS   H3R 7652  -0.130   0.744  10.030 -0.1627  0.4251 -0.1907
   82SAPS   H3S 7653  -0.198   0.584  10.035 -0.7482  0.5517 -0.8856
   82SAPS   C24 7654  -0.184   0.661   9.839 -0.0930 -0.5309  0.4198
   82SAPS   H4R 7655  -0.292   0.687   9.844 -0.0339  0.2575 -1.5983
   82SAPS   H4S 7656  -0.176   0.562   9.789 -0.9169 -0.3231 -0.1452
   82SAPS   C25 7657  -0.136   0.777   9.748  0.3124  0.4799  0.0296
   82SAPS   H5R 7658  -0.124   0.874   9.798  1.2678 -0.4413  1.6795
   82SAPS   C26 7659  -0.098   0.777   9.617 -0.0425  0.1744 -0.2175
   82SAPS   H6R 7660  -0.057   0.868   9.572 -0.5276  0.1731 -0.6690
   82SAPS   C27 7661  -0.087   0.655   9.526 -1.1302  0.3047 -0.4425
   82SAPS   H7R 7662  -0.162   0.650   9.444  0.4423 -2.6155 -1.8512
   82SAPS   H7S 7663  -0.110   0.561   9.581  0.9228  1.2938  2.3562
   82SAPS   C28 7664   0.053   0.646   9.469 -0.2429 -0.7804  0.3898
   82SAPS   H8R 7665   0.135   0.652   9.542 -0.4855 -0.3001  0.6226
   82SAPS   C29 7666   0.085   0.627   9.338  0.4464 -0.0057 -0.3292
   82SAPS   H9R 7667   0.190   0.611   9.310  0.7308  1.3993 -0.1389
   82SAPS  C210 7668  -0.010   0.617   9.217  0.0215 -0.1196 -0.1019
   82SAPS  H10R 7669   0.030   0.662   9.124 -1.8963  1.2078 -0.3473
   82SAPS  H10S 7670  -0.088   0.695   9.232  1.6361  1.8188 -1.2992
   82SAPS  C211 7671  -0.078   0.482   9.197 -0.0938  0.3810  0.1219
   82SAPS  H11R 7672  -0.062   0.410   9.278 -1.0553  0.0023 -0.0174
   82SAPS  C212 7673  -0.120   0.444   9.074  0.7018  0.7841 -0.3809
   82SAPS  H12R 7674  -0.162   0.342   9.074  0.3247  0.9375 -0.4319
   82SAPS  C213 7675  -0.124   0.528   8.953 -0.2654  0.2779  0.5604
   82SAPS  H13R 7676  -0.147   0.631   8.987  1.5774  1.4208 -1.3713
   82SAPS  H13S 7677  -0.197   0.493   8.876  0.1196  0.6033  0.0383
   82SAPS  C214 7678   0.015   0.540   8.892  1.0065  0.1933 -0.1361
   82SAPS  H14R 7679   0.102   0.501   8.946  0.9841 -1.0339 -0.9326
   82SAPS  C215 7680   0.034   0.580   8.764 -0.6918 -0.5067  0.1045
   82SAPS  H15R 7681   0.137   0.583   8.724 -0.7666 -2.4434 -0.3206
   82SAPS  C216 7682  -0.077   0.628   8.677 -0.4468  0.1210 -0.1131
   82SAPS  H16R 7683  -0.043   0.722   8.628  1.1243 -0.6134 -0.5173
   82SAPS  H16S 7684  -0.171   0.645   8.733  0.5031 -1.1549  2.0083
   82SAPS  C217 7685  -0.108   0.533   8.557  0.1551 -0.9856  0.1617
   82SAPS  H17R 7686  -0.192   0.576   8.498  3.2925  1.4866 -2.8856
   82SAPS  H17S 7687  -0.135   0.430   8.591  0.1937 -1.5576 -1.4504
   82SAPS  C218 7688   0.023   0.523   8.475  0.5096 -0.2302 -0.5050
   82SAPS  H18R 7689   0.107   0.493   8.541 -0.5766  1.3151  1.7660
   82SAPS  H18S 7690   0.048   0.626   8.442  0.0864  0.1213  0.2296
   82SAPS  C219 7691   0.002   0.432   8.357  0.2250  0.3703  0.3415
   82SAPS  H19R 7692  -0.062   0.484   8.283  1.1090  0.6019 -0.2797
   82SAPS  H19S 7693  -0.055   0.339   8.375  0.5781 -0.1695 -1.1615
   82SAPS  C220 7694   0.130   0.392   8.278 -0.3880  0.2728 -0.2990
   82SAPS  H20R 7695   0.100   0.340   8.184 -1.2110 -0.8244  0.5421
   82SAPS  H20S 7696   0.180   0.316   8.343  1.4287 -0.6927 -2.6420
   82SAPS  H20T 7697   0.200   0.475   8.255 -0.3686  1.0877  2.3981
   82SAPS   C33 7698   0.456   0.062  10.079 -0.0503 -0.9326 -0.0196
   82SAPS   H3X 7699   0.521   0.059  10.169 -1.3859 -0.0104  1.0127
   82SAPS   H3Y 7700   0.466   0.167  10.044 -0.2566 -0.6656  0.7204
   82SAPS   C34 7701   0.512  -0.037   9.971 -0.7670  0.1138  0.1166
   82SAPS   H4X 7702   0.433  -0.068   9.899  1.1780  0.5611 -2.3428
   82SAPS   H4Y 7703   0.531  -0.137  10.016  1.7991  0.9940  1.1822
   82SAPS   C35 7704   0.638   0.011   9.901 -0.1856  0.2241 -1.2192
   82SAPS   H5X 7705   0.717   0.015   9.980 -1.2482 -0.3133 -0.0983
   82SAPS   H5Y 7706   0.613   0.111   9.858 -2.7872  0.3680  0.4126
   82SAPS   C36 7707   0.682  -0.084   9.788  0.6334 -0.3363  0.5871
   82SAPS   H6X 7708   0.692  -0.190   9.822 -0.9313 -0.5414  0.5074
   82SAPS   H6Y 7709   0.788  -0.068   9.760  0.1865 -0.1237 -1.1701
   82SAPS   C37 7710   0.590  -0.063   9.668  0.1818 -0.3468  0.3955
   82SAPS   H7X 7711   0.613   0.041   9.636  0.2255 -0.5253 -0.1564
   82SAPS   H7Y 7712   0.482  -0.075   9.689  0.2701 -0.2949  0.9115
   82SAPS   C38 7713   0.625  -0.155   9.543  0.1800 -0.3458  1.0671
   82SAPS   H8X 7714   0.589  -0.260   9.545 -1.8089  0.2597 -0.3231
   82SAPS   H8Y 7715   0.736  -0.163   9.534  0.6298  4.0536  0.6011
   82SAPS   C39 7716   0.575  -0.094   9.403  0.2441  0.0532 -0.0479
   82SAPS   H9X 7717   0.633  -0.003   9.379 -0.5349  0.5841  0.0639
   82SAPS   H9Y 7718   0.471  -0.063   9.425 -0.1726 -1.5517  0.4422
   82SAPS  C310 7719   0.595  -0.188   9.284 -0.4293  0.0335  0.1805
   82SAPS  H10X 7720   0.556  -0.289   9.309  1.2854 -0.4825  0.9068
   82SAPS  H10Y 7721   0.705  -0.202   9.288 -0.2959  0.8455 -0.2368
   82SAPS  C311 7722   0.540  -0.134   9.154  0.6631  0.5586  0.2917
   82SAPS  H11X 7723   0.438  -0.095   9.176 -0.3437 -1.8960  0.2835
   82SAPS  H11Y 7724   0.523  -0.222   9.089 -0.6614 -1.1954  2.8445
   82SAPS  C312 7725   0.630  -0.038   9.086  0.3541 -0.0246  1.2094
   82SAPS  H12X 7726   0.664   0.044   9.152  0.8584 -0.1227  1.0753
   82SAPS  H12Y 7727   0.558   0.013   9.019 -0.1413  0.4507  2.0972
   82SAPS  C313 7728   0.740  -0.104   9.001  0.0411 -0.0233 -0.4497
   82SAPS  H13X 7729   0.694  -0.199   8.965 -1.6777  0.9815 -1.0277
   82SAPS  H13Y 7730   0.821  -0.127   9.074  0.1015 -1.6948 -0.9932
   82SAPS  C314 7731   0.787  -0.023   8.881  0.0133 -0.3648 -0.1326
   82SAPS  H14X 7732   0.851   0.059   8.922 -1.0946  0.4240  0.0661
   82SAPS  H14Y 7733   0.700   0.021   8.827 -0.7755 -1.9314 -0.1805
   82SAPS  C315 7734   0.869  -0.091   8.767  0.1339  0.3895  0.3974
   82SAPS  H15X 7735   0.954  -0.148   8.811  0.8008  0.0720 -1.2424
   82SAPS  H15Y 7736   0.910  -0.012   8.701  1.1626 -0.3836  0.0793
   82SAPS  C316 7737   0.776  -0.187   8.685 -0.3423  0.0741 -0.1414
   82SAPS  H16X 7738   0.698  -0.127   8.634 -0.2376  0.9295  0.6749
   82SAPS  H16Y 7739   0.710  -0.243   8.755 -1.1503  1.8379  0.5623
   82SAPS  C317 7740   0.848  -0.273   8.587  0.1501 -0.3826  0.5067
   82SAPS  H17X 7741   0.945  -0.314   8.624 -0.2141 -0.3507  1.5490
   82SAPS  H17Y 7742   0.880  -0.206   8.505 -1.0950 -1.2899 -0.7797
   82SAPS  C318 7743   0.761  -0.381   8.529  0.1482 -0.2456  0.1502
   82SAPS  H18X 7744   0.687  -0.336   8.459  0.6213 -1.1741 -0.9862
   82SAPS  H18Y 7745   0.702  -0.425   8.612  2.1139  0.2495  1.8843
   82SAPS  H18Z 7746   0.808  -0.461   8.467 -3.4554 -1.9629 -0.6375
   83SAPS     N 7747   2.617   4.490  11.147 -0.0065  0.4062  0.6920
   83SAPS   HN1 7748   2.615   4.594  11.160  1.2149  0.7276 -1.3141
   83SAPS   HN2 7749   2.701   4.438  11.178  0.9774  0.5948 -1.4357
   83SAPS   HN3 7750   2.630   4.476  11.045 -0.2043 -0.1970  0.7482
   83SAPS   C12 7751   2.491   4.432  11.197 -0.0417  0.5863 -0.9651
   83SAPS  H12A 7752   2.504   4.326  11.209 -1.5383  0.3475 -1.3246
   83SAPS   C13 7753   2.455   4.475  11.346 -0.1620  0.4013  0.4235
   83SAPS  O13A 7754   2.540   4.529  11.423 -0.1005 -0.5356  0.0728
   83SAPS  O13B 7755   2.353   4.419  11.394  0.5446  0.8651  0.2025
   83SAPS   C11 7756   2.383   4.461  11.094  0.1827  0.4624  1.0723
   83SAPS  H11A 7757   2.386   4.570  11.071  2.2941 -0.0089 -1.2892
   83SAPS  H11B 7758   2.285   4.442  11.143 -0.1981  0.7825  0.4451
   83SAPS     P 7759   2.324   4.262  10.945  0.0802  0.3787  0.2345
   83SAPS   O13 7760   2.421   4.149  10.950 -0.1660 -0.3855 -0.1843
   83SAPS   O14 7761   2.214   4.254  11.038  0.3022 -0.6845 -0.2894
   83SAPS   O12 7762   2.402   4.403  10.962  0.0374  0.0147 -0.3737
   83SAPS   O11 7763   2.264   4.269  10.795 -0.7073  0.7459 -0.1450
   83SAPS    C1 7764   2.282   4.384  10.723 -0.0841  0.7897 -0.8438
   83SAPS    HA 7765   2.228   4.468  10.771  0.0411  0.4114 -0.0255
   83SAPS    HB 7766   2.391   4.402  10.718  0.3073 -0.9578  0.4589
   83SAPS    C2 7767   2.231   4.366  10.572 -0.3787  0.2445  0.1162
   83SAPS    HS 7768   2.122   4.352  10.584 -0.1614 -0.7124  1.1520
   83SAPS   O21 7769   2.287   4.240  10.521 -0.0460 -0.3950  0.2850
   83SAPS   C21 7770   2.212   4.172  10.438 -0.8092  0.5618  0.2657
   83SAPS   O22 7771   2.103   4.201  10.393  0.4439 -0.0953  1.1745
   83SAPS   C22 7772   2.295   4.049  10.402  0.1141 -0.0967 -0.5256
   83SAPS   H2R 7773   2.298   3.977  10.487  1.6108  0.3026 -0.2025
   83SAPS   H2S 7774   2.221   3.999  10.336 -1.9669  3.5377 -1.1471
   83SAPS    C3 7775   2.270   4.491  10.478  0.0874 -0.1930 -0.1899
   83SAPS    HX 7776   2.381   4.482  10.485 -0.0369 -1.6750  0.1922
   83SAPS    HY 7777   2.228   4.583  10.525 -0.6403 -0.3872 -0.4514
   83SAPS   O31 7778   2.217   4.467  10.348 -0.3955  0.2051  0.2255
   83SAPS   C31 7779   2.256   4.542  10.244 -0.2038  0.4443  0.4157
   83SAPS   O32 7780   2.330   4.639  10.250  0.4532  0.0210 -0.4339
   83SAPS   C32 7781   2.184   4.487  10.123 -0.5580 -0.3449  0.7068
   83SAPS   H2X 7782   2.086   4.537  10.108 -0.3709  0.1276  1.0439
   83SAPS   H2Y 7783   2.161   4.378  10.128  0.3472 -0.5518  0.6281
   83SAPS   C23 7784   2.421   4.084  10.321 -0.6590  0.2222 -0.3091
   83SAPS   H3R 7785   2.475   4.166  10.373  1.0954 -0.8027 -0.4188
   83SAPS   H3S 7786   2.387   4.120  10.221 -0.3744 -1.9455 -1.2488
   83SAPS   C24 7787   2.519   3.967  10.304  0.8344  0.0787  0.4941
   83SAPS   H4R 7788   2.476   3.872  10.266 -1.4925  1.1393  0.3148
   83SAPS   H4S 7789   2.561   3.940  10.404 -0.5967 -0.8725  0.8711
   83SAPS   C25 7790   2.627   4.015  10.203  0.6752 -0.2646 -1.1546
   83SAPS   H5R 7791   2.637   4.125  10.205 -0.2393 -0.1729 -1.2626
   83SAPS   C26 7792   2.706   3.934  10.128  0.2439 -0.7543 -0.0042
   83SAPS   H6R 7793   2.776   3.982  10.058 -2.0456  2.1691 -0.5259
   83SAPS   C27 7794   2.698   3.785  10.122  0.3096  0.5119 -0.4616
   83SAPS   H7R 7795   2.611   3.774  10.053 -1.4927  1.0674  1.6151
   83SAPS   H7S 7796   2.665   3.744  10.220  2.8381 -2.4596 -0.7008
   83SAPS   C28 7797   2.822   3.710  10.082  0.2460 -0.1769 -1.3653
   83SAPS   H8R 7798   2.911   3.712  10.147  0.6699 -1.7465 -1.8514
   83SAPS   C29 7799   2.844   3.653   9.962  0.1139 -0.3598 -0.2593
   83SAPS   H9R 7800   2.938   3.599   9.948  1.1126  1.5764 -1.4783
   83SAPS  C210 7801   2.747   3.660   9.847  0.1624 -0.4397 -0.7049
   83SAPS  H10R 7802   2.651   3.626   9.892  0.5683  0.0477  0.5691
   83SAPS  H10S 7803   2.768   3.576   9.778 -0.1188 -0.4123 -0.8244
   83SAPS  C211 7804   2.718   3.794   9.783  0.4153 -0.1573 -0.3390
   83SAPS  H11R 7805   2.709   3.878   9.853  0.7720  1.0578 -1.7055
   83SAPS  C212 7806   2.705   3.817   9.648 -0.0713  0.2062 -0.6491
   83SAPS  H12R 7807   2.675   3.920   9.623 -0.6758  0.9228  2.5870
   83SAPS  C213 7808   2.721   3.715   9.537  0.6996  0.0819  0.4289
   83SAPS  H13R 7809   2.621   3.669   9.523  1.8261 -2.3588 -0.2538
   83SAPS  H13S 7810   2.780   3.626   9.569  0.3228 -0.1366  0.5265
   83SAPS  C214 7811   2.777   3.766   9.407  0.0507 -0.5369 -0.5984
   83SAPS  H14R 7812   2.843   3.851   9.425 -0.3733 -0.3437  0.0884
   83SAPS  C215 7813   2.770   3.720   9.280  0.3209 -0.2432 -0.4485
   83SAPS  H15R 7814   2.815   3.781   9.200 -0.9383  0.4149 -0.6758
   83SAPS  C216 7815   2.709   3.590   9.250 -0.3842 -0.2635  0.4820
   83SAPS  H16R 7816   2.612   3.612   9.203  0.7118 -0.7767 -2.2004
   83SAPS  H16S 7817   2.686   3.532   9.342  0.5431  1.7581  2.0981
   83SAPS  C217 7818   2.799   3.506   9.150  0.3317 -1.0229  0.3274
   83SAPS  H17R 7819   2.758   3.404   9.138 -1.4951 -0.1240 -1.9396
   83SAPS  H17S 7820   2.897   3.494   9.200  0.9517  2.4138  0.2027
   83SAPS  C218 7821   2.818   3.566   9.001 -0.8385  0.3377  0.1034
   83SAPS  H18R 7822   2.865   3.665   9.018 -0.3771 -0.2285  2.3695
   83SAPS  H18S 7823   2.719   3.589   8.954 -1.6786 -0.6705  1.3112
   83SAPS  C219 7824   2.907   3.473   8.912  0.1661  0.3537 -0.0876
   83SAPS  H19R 7825   2.844   3.384   8.891 -1.2776  1.8018 -2.3597
   83SAPS  H19S 7826   2.994   3.445   8.974  0.0497  1.7285  0.7415
   83SAPS  C220 7827   2.955   3.506   8.772  0.4149 -0.1834  0.2834
   83SAPS  H20R 7828   3.001   3.606   8.759 -2.7974  1.4591  0.4324
   83SAPS  H20S 7829   2.875   3.497   8.695  1.8117 -0.1588 -1.2145
   83SAPS  H20T 7830   3.026   3.426   8.742  2.6478  0.2023  3.8579
   83SAPS   C33 7831   2.263   4.514   9.994  0.4122 -0.4334  0.4664
   83SAPS   H3X 7832   2.354   4.450   9.992  0.1078 -0.8621  0.1833
   83SAPS   H3Y 7833   2.291   4.621   9.990  1.4554 -0.7175 -0.2951
   83SAPS   C34 7834   2.176   4.494   9.865  0.1007 -0.0002 -0.4996
   83SAPS   H4X 7835   2.085   4.557   9.865 -1.5979 -2.3369 -0.2702
   83SAPS   H4Y 7836   2.134   4.392   9.873  1.3101 -0.5682 -1.0860
   83SAPS   C35 7837   2.263   4.524   9.742 -0.3307  0.2676  0.5173
   83SAPS   H5X 7838   2.351   4.457   9.739  0.0281  0.6438  1.8404
   83SAPS   H5Y 7839   2.310   4.625   9.748  0.6778 -0.1924  0.5497
   83SAPS   C36 7840   2.186   4.504   9.609  0.5002  0.1104 -0.1228
   83SAPS   H6X 7841   2.087   4.553   9.620  0.7268  0.1943  1.9443
   83SAPS   H6Y 7842   2.158   4.400   9.581 -1.9926  0.7994 -0.4066
   83SAPS   C37 7843   2.248   4.561   9.481 -0.4957 -0.8753  0.5954
   83SAPS   H7X 7844   2.356   4.537   9.473  0.2014  1.5556  1.7930
   83SAPS   H7Y 7845   2.236   4.671   9.486 -1.5576 -1.0307  2.4742
   83SAPS   C38 7846   2.174   4.506   9.360  1.2901 -0.3191 -0.1796
   83SAPS   H8X 7847   2.074   4.551   9.342  1.5122 -0.1133 -0.9488
   83SAPS   H8Y 7848   2.163   4.396   9.374 -0.1581 -0.0929  0.6982
   83SAPS   C39 7849   2.248   4.536   9.230 -0.4126 -0.6464  0.0287
   83SAPS   H9X 7850   2.352   4.500   9.243 -0.1556 -0.1386 -0.5671
   83SAPS   H9Y 7851   2.245   4.647   9.235 -0.2356 -0.5766 -1.2012
   83SAPS  C310 7852   2.193   4.463   9.108  0.7093  0.6157  0.0610
   83SAPS  H10X 7853   2.111   4.524   9.064  0.4189 -0.0003 -0.2649
   83SAPS  H10Y 7854   2.143   4.369   9.141  0.0316  0.5719 -1.0376
   83SAPS  C311 7855   2.306   4.439   9.009 -0.1719  0.1208 -0.2376
   83SAPS  H11X 7856   2.388   4.397   9.072 -0.2521  0.7314  0.2852
   83SAPS  H11Y 7857   2.343   4.535   8.967  1.1901 -0.3655 -0.1866
   83SAPS  C312 7858   2.286   4.334   8.899 -0.5889  0.2243 -0.1384
   83SAPS  H12X 7859   2.280   4.234   8.947 -1.0624 -0.8690 -2.3187
   83SAPS  H12Y 7860   2.385   4.335   8.848 -0.5347  2.1963 -0.0460
   83SAPS  C313 7861   2.176   4.360   8.801  0.6501 -0.0241  0.4077
   83SAPS  H13X 7862   2.211   4.443   8.737  1.8715 -0.3328  0.6563
   83SAPS  H13Y 7863   2.081   4.385   8.853  0.3013 -1.3210  0.4481
   83SAPS  C314 7864   2.142   4.253   8.697  0.0362 -0.0202  0.1120
   83SAPS  H14X 7865   2.031   4.257   8.698 -0.0747 -1.9856  1.7493
   83SAPS  H14Y 7866   2.171   4.150   8.724 -0.0434  0.2802  1.4440
   83SAPS  C315 7867   2.182   4.294   8.555 -0.8567 -0.5710  0.0218
   83SAPS  H15X 7868   2.144   4.398   8.544 -0.6909 -0.4858  0.2676
   83SAPS  H15Y 7869   2.125   4.230   8.483  1.2842 -1.6980 -0.7549
   83SAPS  C316 7870   2.334   4.287   8.535 -0.0475  0.0688 -0.8570
   83SAPS  H16X 7871   2.360   4.179   8.526 -0.7037 -0.0064 -2.0623
   83SAPS  H16Y 7872   2.385   4.331   8.623  1.8549 -2.5631 -0.5165
   83SAPS  C317 7873   2.374   4.357   8.406  0.0623 -0.7533 -0.3271
   83SAPS  H17X 7874   2.316   4.324   8.318 -0.7984  2.6152 -1.1690
   83SAPS  H17Y 7875   2.483   4.354   8.385 -0.0350 -0.0450 -0.9939
   83SAPS  C318 7876   2.362   4.507   8.413  0.4961  0.0420  0.3821
   83SAPS  H18X 7877   2.262   4.534   8.453 -0.2244 -0.4160 -1.0136
   83SAPS  H18Y 7878   2.369   4.546   8.309 -0.6238  0.4093  0.4327
   83SAPS  H18Z 7879   2.441   4.554   8.475  0.3294  2.6537 -1.2291
   84SAPS     N 7880   4.115   4.905  11.095  0.0780  0.2611 -0.2058
   84SAPS   HN1 7881   4.101   4.821  11.035  0.8392 -0.1870  0.2295
   84SAPS   HN2 7882   4.019   4.921  11.131  0.4907 -1.0646  1.6251
   84SAPS   HN3 7883   4.141   4.990  11.040  1.1017  1.6180  2.2050
   84SAPS   C12 7884   4.210   4.891  11.209  0.4537 -0.1105 -0.2139
   84SAPS  H12A 7885   4.207   4.970  11.283  1.3986 -0.9069  0.7211
   84SAPS   C13 7886   4.186   4.759  11.288  1.4807  0.1855  0.5539
   84SAPS  O13A 7887   4.069   4.712  11.307  0.8619  0.0951  0.3475
   84SAPS  O13B 7888   4.276   4.728  11.371 -0.4680 -0.1120 -0.1895
   84SAPS   C11 7889   4.350   4.879  11.150  0.0234 -0.4493 -0.5060
   84SAPS  H11A 7890   4.375   4.793  11.085  2.1732 -1.4668  1.5482
   84SAPS  H11B 7891   4.418   4.872  11.237 -0.4637 -0.0856 -0.0857
   84SAPS     P 7892   4.450   5.123  11.107  0.2636  0.1616 -0.3860
   84SAPS   O13 7893   4.352   5.224  11.148 -0.1644 -0.5930  0.7414
   84SAPS   O14 7894   4.555   5.089  11.205  0.4507 -0.3698  0.1690
   84SAPS   O12 7895   4.365   4.996  11.071 -0.2515  0.0444  0.0428
   84SAPS   O11 7896   4.511   5.169  10.969  0.2564 -0.0742  0.0400
   84SAPS    C1 7897   4.589   5.075  10.894 -0.1814 -0.0831 -0.0296
   84SAPS    HA 7898   4.698   5.093  10.889  0.3472 -2.8315 -0.0030
   84SAPS    HB 7899   4.583   4.974  10.938  0.0408  0.7266  1.9287
   84SAPS    C2 7900   4.557   5.069  10.737 -0.7496 -0.4359 -0.8517
   84SAPS    HS 7901   4.611   4.980  10.698  1.9532 -0.4541  2.5008
   84SAPS   O21 7902   4.590   5.187  10.669  0.0884  0.3492 -0.1452
   84SAPS   C21 7903   4.720   5.208  10.633 -0.2766 -0.1014 -0.3443
   84SAPS   O22 7904   4.812   5.137  10.670  0.1212  0.0295  0.1645
   84SAPS   C22 7905   4.713   5.311  10.523 -1.0078  0.1297 -0.2539
   84SAPS   H2R 7906   4.633   5.286  10.450 -2.6393 -1.1177  1.8573
   84SAPS   H2S 7907   4.678   5.404  10.573 -0.0490  0.3067  0.0915
   84SAPS    C3 7908   4.409   5.049  10.716 -0.0544  0.2886 -1.3294
   84SAPS    HX 7909   4.378   5.146  10.761  1.2918 -0.2432  0.9000
   84SAPS    HY 7910   4.373   4.974  10.790  0.0574  1.8109  0.3133
   84SAPS   O31 7911   4.367   5.018  10.587 -0.3384 -0.0565  0.1854
   84SAPS   C31 7912   4.259   5.070  10.545 -0.0093 -0.8357 -0.0176
   84SAPS   O32 7913   4.193   5.154  10.607 -0.4755  0.0849  0.7405
   84SAPS   C32 7914   4.217   5.009  10.411 -0.0641 -0.1134  0.2032
   84SAPS   H2X 7915   4.235   4.900  10.410 -2.0906 -0.4782 -0.3716
   84SAPS   H2Y 7916   4.287   5.043  10.331 -0.1248  0.7682  0.5155
   84SAPS   C23 7917   4.849   5.321  10.443  0.0943  0.3380 -0.1697
   84SAPS   H3R 7918   4.926   5.304  10.521 -1.6310  0.5414  1.6465
   84SAPS   H3S 7919   4.872   5.425  10.410  1.0636  0.1604 -0.1018
   84SAPS   C24 7920   4.883   5.221  10.328  0.3330  0.3530  0.4061
   84SAPS   H4R 7921   4.872   5.121  10.375 -0.1788  0.8449  1.3580
   84SAPS   H4S 7922   4.989   5.232  10.295  0.4322  3.4813  1.4648
   84SAPS   C25 7923   4.784   5.226  10.215 -0.5789  0.2998 -0.5981
   84SAPS   H5R 7924   4.689   5.193  10.259  1.3025 -2.3917  1.8243
   84SAPS   C26 7925   4.802   5.255  10.088  0.7992  0.6626  0.9038
   84SAPS   H6R 7926   4.720   5.227  10.021  0.8869 -0.6430  1.3136
   84SAPS   C27 7927   4.934   5.267  10.027 -0.1656 -0.2418 -0.5776
   84SAPS   H7R 7928   4.995   5.174  10.024  0.6070  0.2272  0.2677
   84SAPS   H7S 7929   4.998   5.340  10.081 -0.3524 -1.6068  1.5702
   84SAPS   C28 7930   4.909   5.314   9.883  0.5140  0.0219  0.1262
   84SAPS   H8R 7931   4.857   5.410   9.872  0.0369 -0.3624 -1.0773
   84SAPS   C29 7932   4.943   5.251   9.769 -0.4525 -0.1139  0.1782
   84SAPS   H9R 7933   4.905   5.296   9.676  1.5820 -0.6752 -0.9825
   84SAPS  C210 7934   5.022   5.130   9.744  0.0938 -0.1179 -0.5555
   84SAPS  H10R 7935   4.959   5.052   9.697  0.2557 -1.7766  1.8161
   84SAPS  H10S 7936   5.050   5.089   9.843 -1.6645  1.1389  0.5254
   84SAPS  C211 7937   5.152   5.149   9.670 -0.0947  0.0080  0.1779
   84SAPS  H11R 7938   5.235   5.186   9.732 -0.0078  0.7535 -0.3708
   84SAPS  C212 7939   5.177   5.111   9.542 -0.5545  0.2344  0.3288
   84SAPS  H12R 7940   5.273   5.135   9.495  1.2553 -1.9704  2.6235
   84SAPS  C213 7941   5.077   5.052   9.446 -0.1536  0.1842  0.3080
   84SAPS  H13R 7942   4.981   5.030   9.498 -0.1409 -0.0132  0.2475
   84SAPS  H13S 7943   5.116   4.951   9.421  0.1276 -0.2015  2.2166
   84SAPS  C214 7944   5.048   5.132   9.323 -0.2498  0.1569  0.6681
   84SAPS  H14R 7945   4.961   5.200   9.324 -0.1020  0.5202 -2.2801
   84SAPS  C215 7946   5.110   5.122   9.201 -0.4967  0.2766 -0.6093
   84SAPS  H15R 7947   5.063   5.183   9.123 -0.7576  0.7062 -0.1238
   84SAPS  C216 7948   5.228   5.030   9.166 -0.4119 -0.3013 -0.3679
   84SAPS  H16R 7949   5.284   5.010   9.259  1.0495  0.1197 -1.1234
   84SAPS  H16S 7950   5.300   5.093   9.109 -1.5492  2.0460  0.6409
   84SAPS  C217 7951   5.186   4.915   9.071 -0.0372  0.2974 -0.8524
   84SAPS  H17R 7952   5.088   4.936   9.022 -1.3035  2.4721  2.2713
   84SAPS  H17S 7953   5.163   4.835   9.145  0.8077  1.9193  1.2770
   84SAPS  C218 7954   5.287   4.862   8.970  0.3467  0.0145 -0.2245
   84SAPS  H18R 7955   5.375   4.834   9.032  2.1179  3.1678 -1.0950
   84SAPS  H18S 7956   5.323   4.949   8.911 -1.9112  1.4796  0.4390
   84SAPS  C219 7957   5.245   4.745   8.877  0.1651  0.2046  0.7239
   84SAPS  H19R 7958   5.147   4.765   8.829  0.8205  3.0879  0.4323
   84SAPS  H19S 7959   5.245   4.652   8.938 -0.9525 -1.0515 -1.1055
   84SAPS  C220 7960   5.341   4.722   8.759  0.2230 -0.0012  0.1167
   84SAPS  H20R 7961   5.300   4.643   8.692 -0.9183  1.4628 -0.9785
   84SAPS  H20S 7962   5.437   4.681   8.795  1.0447 -0.5330 -2.4226
   84SAPS  H20T 7963   5.346   4.814   8.697 -0.7861 -1.2775 -1.9937
   84SAPS   C33 7964   4.074   5.034  10.367  0.4857  0.0450 -0.7532
   84SAPS   H3X 7965   4.041   5.124  10.423 -1.4763  0.1312 -1.9444
   84SAPS   H3Y 7966   4.012   4.943  10.385  0.6032  0.2098  0.5517
   84SAPS   C34 7967   4.074   5.082  10.223 -1.3220  0.4564  0.3890
   84SAPS   H4X 7968   4.129   5.178  10.233 -0.4191 -0.0968  0.8456
   84SAPS   H4Y 7969   3.973   5.120  10.196 -0.4945  3.9857  1.6795
   84SAPS   C35 7970   4.138   4.991  10.115  0.1140  0.1677  0.3511
   84SAPS   H5X 7971   4.085   4.893  10.124 -1.5192  0.9451 -0.3056
   84SAPS   H5Y 7972   4.246   4.969  10.126  0.2078  0.9945  1.3276
   84SAPS   C36 7973   4.103   5.026   9.967 -0.1757 -0.3011 -0.7379
   84SAPS   H6X 7974   4.151   5.126   9.961 -1.1989  0.2124 -0.5660
   84SAPS   H6Y 7975   3.994   5.042   9.951 -0.3264 -1.3053 -0.7973
   84SAPS   C37 7976   4.162   4.928   9.861  0.3428 -0.4771 -0.1541
   84SAPS   H7X 7977   4.105   4.833   9.867 -2.0287  0.7434 -1.9259
   84SAPS   H7Y 7978   4.269   4.908   9.881  0.4276 -1.4224 -1.4298
   84SAPS   C38 7979   4.149   4.984   9.718 -0.7354 -0.1562 -0.3801
   84SAPS   H8X 7980   4.177   5.092   9.721  1.1697 -0.6306  0.2305
   84SAPS   H8Y 7981   4.038   4.984   9.704 -0.5843  3.0291 -2.9871
   84SAPS   C39 7982   4.218   4.924   9.602  0.0491  0.1406 -0.2642
   84SAPS   H9X 7983   4.203   4.815   9.590  2.2443 -0.2598  0.3470
   84SAPS   H9Y 7984   4.326   4.947   9.604  0.4630 -1.5467 -1.4250
   84SAPS  C310 7985   4.161   4.972   9.463  0.3355  0.1500  0.1578
   84SAPS  H10X 7986   4.143   5.081   9.470 -1.1387 -0.1113  0.7990
   84SAPS  H10Y 7987   4.059   4.928   9.461  0.9561 -1.3255 -0.8430
   84SAPS  C311 7988   4.244   4.933   9.338  0.1261  0.4545  0.4495
   84SAPS  H11X 7989   4.270   4.826   9.355  0.1253  0.0760 -1.6968
   84SAPS  H11Y 7990   4.342   4.987   9.342 -0.6554  2.2603 -2.1311
   84SAPS  C312 7991   4.179   4.966   9.206 -0.3949  0.8001 -0.1933
   84SAPS  H12X 7992   4.178   5.077   9.199  0.8947  0.7580 -1.5730
   84SAPS  H12Y 7993   4.073   4.933   9.207 -0.4416  0.8830  1.7709
   84SAPS  C313 7994   4.262   4.898   9.101  0.2696 -0.3771  0.2518
   84SAPS  H13X 7995   4.244   4.789   9.114 -0.7489 -0.1768  0.6851
   84SAPS  H13Y 7996   4.368   4.897   9.131  0.1322  1.1434  0.8569
   84SAPS  C314 7997   4.248   4.943   8.949 -0.0429  1.1113  0.2479
   84SAPS  H14X 7998   4.318   5.026   8.927  0.5775  0.5123 -0.0684
   84SAPS  H14Y 7999   4.137   4.954   8.944 -0.1764 -0.1973 -0.0313
   84SAPS  C315 8000   4.305   4.835   8.859  0.4395  0.0043 -0.1596
   84SAPS  H15X 8001   4.244   4.744   8.876 -0.8973  0.8257 -0.4347
   84SAPS  H15Y 8002   4.409   4.813   8.891  0.1552 -0.2228  0.6274
   84SAPS  C316 8003   4.290   4.878   8.712  0.5648  0.4905  0.3266
   84SAPS  H16X 8004   4.232   4.972   8.701  0.7730  0.5204 -0.5649
   84SAPS  H16Y 8005   4.243   4.802   8.646  0.7950  0.3512  0.3213
   84SAPS  C317 8006   4.427   4.897   8.635  0.2580  0.2604 -0.3703
   84SAPS  H17X 8007   4.450   4.801   8.584  1.1080  0.5308 -0.5171
   84SAPS  H17Y 8008   4.497   4.919   8.719 -1.1546 -2.6165  1.7428
   84SAPS  C318 8009   4.444   5.026   8.558  0.4151 -0.2957 -0.1916
   84SAPS  H18X 8010   4.405   5.118   8.606  0.9816  0.4241 -1.0734
   84SAPS  H18Y 8011   4.378   5.004   8.471 -1.0123  0.5002  0.6509
   84SAPS  H18Z 8012   4.545   5.056   8.523  0.3055  2.4317  1.5149
   85SAPS     N 8013   3.269   3.761  10.762 -0.1624  0.1699  0.4580
   85SAPS   HN1 8014   3.340   3.828  10.798  0.7864  0.2437 -1.4449
   85SAPS   HN2 8015   3.315   3.669  10.750 -0.0872 -0.0065  1.9127
   85SAPS   HN3 8016   3.245   3.797  10.668 -0.1711 -0.7350  0.1038
   85SAPS   C12 8017   3.149   3.751  10.847 -0.0343 -0.9423  0.0444
   85SAPS  H12A 8018   3.071   3.683  10.815 -2.7683  0.4371  3.1464
   85SAPS   C13 8019   3.182   3.705  10.988  0.0489  1.2570 -0.2651
   85SAPS  O13A 8020   3.298   3.686  11.026 -0.6693 -0.3587 -0.4171
   85SAPS  O13B 8021   3.082   3.689  11.064  0.3142  0.8202  0.1087
   85SAPS   C11 8022   3.090   3.895  10.861 -0.0340 -0.0715  0.4741
   85SAPS  H11A 8023   2.994   3.881  10.916  0.8002 -1.7494  1.6212
   85SAPS  H11B 8024   3.068   3.941  10.763 -1.8820 -0.3594  0.7287
   85SAPS     P 8025   3.148   4.111  10.998  0.1153 -0.3637  0.1446
   85SAPS   O13 8026   3.023   4.107  11.078 -0.1065  0.3199 -0.1627
   85SAPS   O14 8027   3.270   4.162  11.064 -0.1306 -0.2167 -0.2136
   85SAPS   O12 8028   3.185   3.971  10.936 -0.1105  0.0457 -0.4044
   85SAPS   O11 8029   3.119   4.203  10.875  0.2416  0.2794  0.0192
   85SAPS    C1 8030   2.992   4.209  10.815  0.4539 -0.7890  0.7539
   85SAPS    HA 8031   2.953   4.111  10.781  1.4733 -0.7114 -0.6913
   85SAPS    HB 8032   2.915   4.252  10.883 -0.5763 -1.9943  0.3723
   85SAPS    C2 8033   3.000   4.316  10.699 -0.0179  0.4836 -0.3140
   85SAPS    HS 8034   2.898   4.346  10.666  1.0164  0.2448 -4.3093
   85SAPS   O21 8035   3.077   4.252  10.589 -0.0174 -0.1767  0.5033
   85SAPS   C21 8036   3.000   4.178  10.503 -0.4778  0.7871  0.0019
   85SAPS   O22 8037   2.887   4.142  10.527  0.0634 -0.2502 -0.1532
   85SAPS   C22 8038   3.074   4.132  10.374  0.2437  0.2192  0.7149
   85SAPS   H2R 8039   3.174   4.180  10.371  1.8869 -2.9390  0.4739
   85SAPS   H2S 8040   3.089   4.023  10.389 -2.2361 -0.0055  2.0255
   85SAPS    C3 8041   3.066   4.449  10.749  0.2725 -0.2154  0.3991
   85SAPS    HX 8042   3.176   4.437  10.744  0.2345 -0.0986 -2.8045
   85SAPS    HY 8043   3.051   4.468  10.857 -1.3583  0.9954 -0.0076
   85SAPS   O31 8044   3.011   4.555  10.660 -0.3323 -0.5204 -0.1426
   85SAPS   C31 8045   3.103   4.649  10.630  0.2957  0.1627 -0.2112
   85SAPS   O32 8046   3.198   4.686  10.690 -0.0737  0.5518  0.1496
   85SAPS   C32 8047   3.063   4.716  10.506  0.4432 -0.4349  0.0615
   85SAPS   H2X 8048   3.110   4.816  10.519  1.4244 -0.9014  0.1619
   85SAPS   H2Y 8049   2.953   4.723  10.494  0.3014  2.9281  1.9062
   85SAPS   C23 8050   2.985   4.148  10.247  0.1735 -0.1532  0.2506
   85SAPS   H3R 8051   3.000   4.250  10.206 -0.4886 -0.8112 -1.7212
   85SAPS   H3S 8052   2.878   4.137  10.275 -0.2502 -0.9889 -1.5514
   85SAPS   C24 8053   3.043   4.069  10.121 -0.3270 -0.1830 -0.1477
   85SAPS   H4R 8054   2.966   4.064  10.041  0.8729 -1.4593 -1.2725
   85SAPS   H4S 8055   3.061   3.967  10.159  0.5312 -0.4591 -1.2527
   85SAPS   C25 8056   3.177   4.123  10.062  0.2182  0.5316 -0.1682
   85SAPS   H5R 8057   3.265   4.127  10.128 -0.0249 -0.0728  0.2057
   85SAPS   C26 8058   3.191   4.165   9.936  0.1181 -0.9654  0.0732
   85SAPS   H6R 8059   3.291   4.196   9.903  0.0882  0.3914  1.1688
   85SAPS   C27 8060   3.084   4.170   9.831  0.2822  0.5467  0.1544
   85SAPS   H7R 8061   3.099   4.254   9.759  2.1199  0.0373 -0.0945
   85SAPS   H7S 8062   2.989   4.199   9.880 -0.5304 -0.4972 -0.7301
   85SAPS   C28 8063   3.059   4.038   9.750  0.2109 -0.1056 -0.1845
   85SAPS   H8R 8064   2.999   3.961   9.802 -0.2908  1.7193  2.1058
   85SAPS   C29 8065   3.096   4.009   9.627  0.2798  0.2125  0.1673
   85SAPS   H9R 8066   3.068   3.912   9.584 -2.5666  0.4969  1.1921
   85SAPS  C210 8067   3.179   4.092   9.527 -0.3159  0.0824 -0.4036
   85SAPS  H10R 8068   3.225   4.185   9.566  0.4547 -1.0789  1.5913
   85SAPS  H10S 8069   3.108   4.135   9.453  0.1369  0.3803 -0.6651
   85SAPS  C211 8070   3.286   4.032   9.439 -0.3057  0.0200  0.0805
   85SAPS  H11R 8071   3.389   4.040   9.478 -0.9220 -1.9351  2.3272
   85SAPS  C212 8072   3.255   3.963   9.326 -0.6318  0.0538 -0.3316
   85SAPS  H12R 8073   3.339   3.939   9.259  2.2183  3.5394  1.6541
   85SAPS  C213 8074   3.120   3.947   9.267  0.2976 -0.5618  0.4169
   85SAPS  H13R 8075   3.046   3.916   9.344 -0.3605  1.8335  0.8264
   85SAPS  H13S 8076   3.129   3.866   9.192  1.2005  1.6371 -1.9830
   85SAPS  C214 8077   3.067   4.076   9.205  0.3721 -0.0904 -0.1688
   85SAPS  H14R 8078   3.019   4.142   9.279  0.1162 -0.5201  0.0458
   85SAPS  C215 8079   3.065   4.123   9.076 -0.0769  0.2020  0.0293
   85SAPS  H15R 8080   3.014   4.214   9.042  0.5818  0.6296  0.1619
   85SAPS  C216 8081   3.132   4.047   8.964  0.6646  0.6072 -0.3765
   85SAPS  H16R 8082   3.060   4.032   8.881 -2.2356  0.1742  2.0290
   85SAPS  H16S 8083   3.151   3.944   9.002 -1.1397  0.0638 -0.8541
   85SAPS  C217 8084   3.266   4.104   8.933 -0.6125  0.0918  0.1477
   85SAPS  H17R 8085   3.313   4.031   8.864  2.1748  1.0717  0.8781
   85SAPS  H17S 8086   3.324   4.112   9.027 -0.8373  0.9133  0.2305
   85SAPS  C218 8087   3.279   4.243   8.865  0.1206 -0.0799 -0.0831
   85SAPS  H18R 8088   3.382   4.275   8.889 -0.3260  1.6321 -0.3209
   85SAPS  H18S 8089   3.211   4.313   8.919 -0.9010  0.3590 -1.8763
   85SAPS  C219 8090   3.237   4.234   8.714  0.4244  0.5086  0.1771
   85SAPS  H19R 8091   3.135   4.278   8.704  0.0944 -0.4523 -0.8041
   85SAPS  H19S 8092   3.241   4.138   8.658  1.3797  0.6386  0.0084
   85SAPS  C220 8093   3.319   4.318   8.615 -1.0141 -0.0507 -0.1377
   85SAPS  H20R 8094   3.307   4.284   8.510 -0.1256  1.6157 -0.8285
   85SAPS  H20S 8095   3.428   4.311   8.639 -0.4618  3.2106 -1.2014
   85SAPS  H20T 8096   3.298   4.427   8.624 -0.1551  0.3061 -1.9505
   85SAPS   C33 8097   3.128   4.646  10.382  0.2545  0.8649  0.7712
   85SAPS   H3X 8098   3.096   4.539  10.382 -0.4282  1.0596  0.1005
   85SAPS   H3Y 8099   3.238   4.655  10.395  0.3225 -0.1885  1.0163
   85SAPS   C34 8100   3.077   4.710  10.251 -0.8805  0.2836 -0.8479
   85SAPS   H4X 8101   3.118   4.813  10.251  2.0609 -0.6264  3.4510
   85SAPS   H4Y 8102   2.965   4.707  10.254 -0.8576  0.0016  1.4401
   85SAPS   C35 8103   3.118   4.624  10.124 -0.2059  0.0986 -0.9077
   85SAPS   H5X 8104   3.077   4.522  10.139 -0.7993  0.5205  0.5313
   85SAPS   H5Y 8105   3.227   4.614  10.144 -0.4755 -1.8095 -0.2444
   85SAPS   C36 8106   3.100   4.686   9.985  0.1742 -0.4333  0.0530
   85SAPS   H6X 8107   3.152   4.784   9.979 -1.5490  0.5179  0.1275
   85SAPS   H6Y 8108   2.992   4.704   9.969 -0.0450 -0.7036  1.1714
   85SAPS   C37 8109   3.151   4.590   9.876  0.5322  1.3097  0.0469
   85SAPS   H7X 8110   3.152   4.632   9.773  3.6415 -1.0192 -1.0241
   85SAPS   H7Y 8111   3.102   4.491   9.878  2.9829  0.0081  2.3839
   85SAPS   C38 8112   3.300   4.545   9.891 -0.1873 -0.5610  0.1553
   85SAPS   H8X 8113   3.311   4.481   9.982 -0.8267 -0.1965  0.4946
   85SAPS   H8Y 8114   3.360   4.637   9.909  0.6039 -1.3696  1.8671
   85SAPS   C39 8115   3.354   4.464   9.768  0.1155  0.1753 -0.0034
   85SAPS   H9X 8116   3.320   4.358   9.762 -3.4283  1.1521  0.6978
   85SAPS   H9Y 8117   3.465   4.463   9.779  0.1539 -1.0448 -0.3530
   85SAPS  C310 8118   3.326   4.535   9.630  0.1733  0.6910 -0.9934
   85SAPS  H10X 8119   3.410   4.553   9.560 -1.0156  0.5367 -2.5202
   85SAPS  H10Y 8120   3.298   4.636   9.666 -0.9416 -0.2968  1.0989
   85SAPS  C311 8121   3.203   4.481   9.547 -0.5237  0.3177  0.1858
   85SAPS  H11X 8122   3.119   4.443   9.608  0.9947  1.1549  2.9384
   85SAPS  H11Y 8123   3.245   4.389   9.500 -0.5408 -0.8330  2.2886
   85SAPS  C312 8124   3.147   4.574   9.441  0.1632  0.1540 -0.3124
   85SAPS  H12X 8125   3.137   4.674   9.489  2.3460 -0.4071  1.5123
   85SAPS  H12Y 8126   3.045   4.542   9.412  0.5132 -1.2408 -0.0438
   85SAPS  C313 8127   3.242   4.581   9.320 -0.0492 -0.0748 -0.0800
   85SAPS  H13X 8128   3.268   4.484   9.273 -0.6317 -0.4210  0.2940
   85SAPS  H13Y 8129   3.331   4.634   9.360 -0.1510  0.5427 -0.6556
   85SAPS  C314 8130   3.199   4.686   9.206  0.3429  0.1180  0.0565
   85SAPS  H14X 8131   3.189   4.790   9.246 -0.1555 -1.1543  3.5810
   85SAPS  H14Y 8132   3.103   4.653   9.161  0.9378 -2.0794  0.3155
   85SAPS  C315 8133   3.316   4.696   9.102 -0.0037  0.3095 -0.2846
   85SAPS  H15X 8134   3.319   4.599   9.047 -0.2931  0.9405 -1.4602
   85SAPS  H15Y 8135   3.412   4.706   9.157 -1.7561  0.8860  2.9201
   85SAPS  C316 8136   3.302   4.810   8.996 -0.4794  0.4551  0.4267
   85SAPS  H16X 8137   3.282   4.906   9.049  0.6401  1.0854 -0.2529
   85SAPS  H16Y 8138   3.223   4.783   8.922  0.7292 -1.4771 -0.2134
   85SAPS  C317 8139   3.436   4.842   8.917 -0.1438 -0.0297  0.2900
   85SAPS  H17X 8140   3.499   4.750   8.922  1.3732  1.0317  1.4967
   85SAPS  H17Y 8141   3.499   4.925   8.955 -3.8000  1.9417  2.5648
   85SAPS  C318 8142   3.408   4.888   8.774 -0.1725  0.2896  0.0145
   85SAPS  H18X 8143   3.493   4.895   8.703  1.1356  4.0095  1.6727
   85SAPS  H18Y 8144   3.367   4.990   8.789  1.0495  0.6121  1.4640
   85SAPS  H18Z 8145   3.326   4.825   8.732 -1.4824  1.6852  0.3866
   86SAPS     N 8146   4.253   3.797  11.062  0.8619  0.5467 -0.5199
   86SAPS   HN1 8147   4.284   3.818  10.965 -0.1671 -2.5061 -1.6532
   86SAPS   HN2 8148   4.326   3.822  11.131 -0.1532 -1.3885  1.3858
   86SAPS   HN3 8149   4.239   3.694  11.069 -1.6890  0.8765  0.3140
   86SAPS   C12 8150   4.133   3.872  11.098  0.0661  0.0064  0.9421
   86SAPS  H12A 8151   4.100   3.837  11.195  1.0361 -0.2578  1.1853
   86SAPS   C13 8152   4.147   4.027  11.113 -0.7699  0.0442 -0.0504
   86SAPS  O13A 8153   4.256   4.082  11.088 -0.7392 -0.6837  0.0679
   86SAPS  O13B 8154   4.046   4.086  11.158  0.6165  0.6361 -0.4325
   86SAPS   C11 8155   4.033   3.829  10.981  0.1934 -0.6368  0.2243
   86SAPS  H11A 8156   4.080   3.862  10.886 -1.8191  1.2302 -0.2098
   86SAPS  H11B 8157   3.939   3.887  10.988 -0.8479 -2.2058 -0.1602
   86SAPS     P 8158   3.902   3.623  10.869 -0.2969 -0.4685  0.0703
   86SAPS   O13 8159   3.944   3.483  10.849  0.0151 -0.1753  0.2758
   86SAPS   O14 8160   3.767   3.642  10.922  0.1978 -0.5110  0.1834
   86SAPS   O12 8161   4.007   3.686  10.980 -0.0980 -0.3836  0.0394
   86SAPS   O11 8162   3.927   3.713  10.737 -0.1510 -0.3768  0.1128
   86SAPS    C1 8163   4.052   3.698  10.670 -0.1423  0.2051  0.0128
   86SAPS    HA 8164   4.137   3.686  10.741  0.7045  0.2718 -0.9733
   86SAPS    HB 8165   4.049   3.608  10.605 -0.2074  1.1292 -1.2950
   86SAPS    C2 8166   4.083   3.815  10.576 -0.4997  0.0368  1.0470
   86SAPS    HS 8167   4.082   3.908  10.636  1.4822 -0.2826  1.6417
   86SAPS   O21 8168   3.981   3.828  10.477  0.0190 -0.0094  0.1665
   86SAPS   C21 8169   3.953   3.955  10.435 -0.4570  0.5088  0.2419
   86SAPS   O22 8170   4.015   4.056  10.466  0.3626 -0.1678  0.8231
   86SAPS   C22 8171   3.828   3.954  10.344  0.4507  0.2046 -0.5234
   86SAPS   H2R 8172   3.784   3.853  10.343  0.4438  0.1468  1.6342
   86SAPS   H2S 8173   3.750   4.023  10.383 -1.4617 -0.6515 -2.6871
   86SAPS    C3 8174   4.219   3.808  10.507  0.4533 -0.9557  0.2701
   86SAPS    HX 8175   4.297   3.798  10.585  0.3945 -0.0754  0.4567
   86SAPS    HY 8176   4.237   3.904  10.453 -1.1208 -0.9079 -0.2067
   86SAPS   O31 8177   4.231   3.686  10.423  0.4833 -0.7864 -0.6749
   86SAPS   C31 8178   4.184   3.704  10.304  0.2442  0.0272  0.1495
   86SAPS   O32 8179   4.157   3.814  10.252 -0.4120  0.1054  0.1504
   86SAPS   C32 8180   4.163   3.561  10.240 -0.6541  0.3786 -0.3164
   86SAPS   H2X 8181   4.125   3.496  10.322  0.4483 -0.0113 -0.0992
   86SAPS   H2Y 8182   4.268   3.535  10.217  0.1857  1.6741  1.7670
   86SAPS   C23 8183   3.877   3.999  10.197  0.4085 -0.0435  0.2589
   86SAPS   H3R 8184   3.957   3.927  10.168 -1.1151 -1.9857  0.6495
   86SAPS   H3S 8185   3.926   4.097  10.214  0.8915 -0.7127  3.3155
   86SAPS   C24 8186   3.767   3.991  10.087  0.5946  0.0417  0.4664
   86SAPS   H4R 8187   3.732   3.885  10.086  0.3470  0.1023 -1.2712
   86SAPS   H4S 8188   3.831   3.999   9.997  2.7208  0.4289  1.9478
   86SAPS   C25 8189   3.662   4.096  10.100 -0.1309  0.0728  0.5802
   86SAPS   H5R 8190   3.609   4.093  10.197  1.9844 -0.4556  1.7822
   86SAPS   C26 8191   3.626   4.187  10.005 -0.4520  0.0552  0.1818
   86SAPS   H6R 8192   3.560   4.268  10.040 -2.1753 -1.2496  0.0853
   86SAPS   C27 8193   3.675   4.200   9.866  0.2602 -0.0457 -0.3887
   86SAPS   H7R 8194   3.785   4.215   9.880  0.0979  1.2159 -0.3143
   86SAPS   H7S 8195   3.635   4.291   9.816  0.8444  1.2181  1.3105
   86SAPS   C28 8196   3.656   4.076   9.780 -0.0713 -0.2575 -0.0607
   86SAPS   H8R 8197   3.671   3.987   9.842 -0.2203 -0.7974 -0.7859
   86SAPS   C29 8198   3.629   4.072   9.645  0.1458 -0.3442 -0.0712
   86SAPS   H9R 8199   3.602   3.974   9.605 -1.6156 -0.7991  2.0133
   86SAPS  C210 8200   3.614   4.193   9.553  0.3642 -0.7033  0.1145
   86SAPS  H10R 8201   3.704   4.255   9.571 -0.5620  1.7258 -2.8648
   86SAPS  H10S 8202   3.536   4.255   9.602  0.5210 -1.1029  0.8920
   86SAPS  C211 8203   3.603   4.167   9.403 -0.6066 -0.1594 -0.4800
   86SAPS  H11R 8204   3.575   4.064   9.375  1.8335 -0.9036 -0.4661
   86SAPS  C212 8205   3.628   4.259   9.308  0.4791  1.2135  0.9586
   86SAPS  H12R 8206   3.619   4.218   9.207  2.0641 -0.2825  1.3773
   86SAPS  C213 8207   3.662   4.405   9.325  0.7720 -0.3973  0.5015
   86SAPS  H13R 8208   3.612   4.456   9.410 -0.0415 -0.0458 -0.1713
   86SAPS  H13S 8209   3.611   4.466   9.248  0.3196 -0.1375  1.0009
   86SAPS  C214 8210   3.813   4.410   9.326 -1.0042  0.8952  0.3687
   86SAPS  H14R 8211   3.851   4.334   9.395 -0.3053 -1.3952 -2.3200
   86SAPS  C215 8212   3.887   4.507   9.271  0.1312  0.1247 -0.3724
   86SAPS  H15R 8213   3.997   4.499   9.266  0.3066  1.4699  0.7012
   86SAPS  C216 8214   3.847   4.627   9.189 -0.6653  0.0442 -0.2943
   86SAPS  H16R 8215   3.892   4.722   9.225  0.3586  0.6164 -2.8273
   86SAPS  H16S 8216   3.737   4.641   9.180 -0.4597  1.8122 -0.3582
   86SAPS  C217 8217   3.889   4.599   9.043  0.2552 -0.2350 -0.9476
   86SAPS  H17R 8218   3.831   4.511   9.006 -2.6142  0.3557  1.7692
   86SAPS  H17S 8219   3.995   4.567   9.042  0.2895 -0.1204 -0.9594
   86SAPS  C218 8220   3.866   4.723   8.952 -0.2541  0.3317  0.3353
   86SAPS  H18R 8221   3.945   4.791   8.991 -2.4402  2.7163  0.8008
   86SAPS  H18S 8222   3.763   4.759   8.968 -1.2657 -1.5554 -1.4044
   86SAPS  C219 8223   3.903   4.708   8.806  0.0550 -0.3395 -0.0816
   86SAPS  H19R 8224   3.994   4.648   8.784  0.0034 -0.0545 -1.1152
   86SAPS  H19S 8225   3.917   4.815   8.780  0.2066 -0.1827  0.6374
   86SAPS  C220 8226   3.782   4.659   8.725 -0.2810  0.1507 -0.1296
   86SAPS  H20R 8227   3.685   4.689   8.768  0.2756 -2.6849  3.6604
   86SAPS  H20S 8228   3.781   4.548   8.727 -1.8065  0.1257 -1.0890
   86SAPS  H20T 8229   3.782   4.701   8.622  1.4680  1.1940  0.2481
   86SAPS   C33 8230   4.070   3.565  10.123 -0.0178 -0.1135  1.2074
   86SAPS   H3X 8231   4.081   3.460  10.088 -0.3496 -0.4498  2.0770
   86SAPS   H3Y 8232   4.107   3.644  10.054 -0.4311 -0.9577 -0.0306
   86SAPS   C34 8233   3.934   3.596  10.173  0.0619 -0.3444  0.6946
   86SAPS   H4X 8234   3.930   3.704  10.200  2.7999  0.7316 -2.5344
   86SAPS   H4Y 8235   3.915   3.538  10.265  0.1478 -0.2468  0.7754
   86SAPS   C35 8236   3.829   3.583  10.061 -0.3494 -0.0254 -0.3665
   86SAPS   H5X 8237   3.732   3.627  10.093  0.5521  1.2868  0.6620
   86SAPS   H5Y 8238   3.827   3.476  10.030 -1.0076 -1.0739  2.8762
   86SAPS   C36 8239   3.872   3.667   9.940  0.0338  0.1757 -0.2946
   86SAPS   H6X 8240   3.956   3.612   9.891  0.3604  0.6153 -0.2311
   86SAPS   H6Y 8241   3.900   3.773   9.955 -0.6717  1.0141 -3.9561
   86SAPS   C37 8242   3.766   3.658   9.834 -0.2971 -0.2065  0.0826
   86SAPS   H7X 8243   3.662   3.693   9.854  0.2725  1.4523  0.3697
   86SAPS   H7Y 8244   3.763   3.549   9.818  0.6672 -0.8533  3.5220
   86SAPS   C38 8245   3.804   3.735   9.702 -0.1678  0.6280 -0.7058
   86SAPS   H8X 8246   3.905   3.699   9.673 -0.1181  0.0740  0.1495
   86SAPS   H8Y 8247   3.811   3.845   9.715 -2.1870  0.6794  0.3682
   86SAPS   C39 8248   3.714   3.710   9.582  0.2534  0.2034  0.6708
   86SAPS   H9X 8249   3.615   3.752   9.612 -0.6495  2.4626 -4.3526
   86SAPS   H9Y 8250   3.710   3.599   9.574  0.4456 -0.0976  3.7291
   86SAPS  C310 8251   3.743   3.773   9.451 -0.2386 -0.2998  0.4248
   86SAPS  H10X 8252   3.823   3.715   9.401  1.3333  4.3400 -3.2905
   86SAPS  H10Y 8253   3.776   3.879   9.457  0.3512 -0.3950 -0.8533
   86SAPS  C311 8254   3.627   3.767   9.340 -0.0226 -0.2062 -0.6384
   86SAPS  H11X 8255   3.539   3.809   9.393  1.5482  1.6173  0.6614
   86SAPS  H11Y 8256   3.613   3.659   9.317 -1.7533  0.0758 -1.0718
   86SAPS  C312 8257   3.681   3.839   9.214  0.3830 -0.2414  0.6460
   86SAPS  H12X 8258   3.787   3.806   9.204  0.6907  0.5809  1.1125
   86SAPS  H12Y 8259   3.684   3.947   9.237  1.5141 -0.3340  1.0189
   86SAPS  C313 8260   3.591   3.819   9.088  0.4693 -0.1340  0.1704
   86SAPS  H13X 8261   3.503   3.885   9.104 -0.4510 -1.3713  0.3934
   86SAPS  H13Y 8262   3.556   3.714   9.078 -1.8987  0.7752 -6.4420
   86SAPS  C314 8263   3.663   3.846   8.960 -0.2494  0.9605  0.0541
   86SAPS  H14X 8264   3.610   3.800   8.874  0.1906  3.9487 -1.9841
   86SAPS  H14Y 8265   3.761   3.797   8.980 -0.9733 -0.3164  0.5584
   86SAPS  C315 8266   3.666   3.997   8.941  0.2271  0.1811  0.2141
   86SAPS  H15X 8267   3.716   4.035   9.033  0.6736 -0.1883  0.1309
   86SAPS  H15Y 8268   3.562   4.036   8.937  1.0699  2.6254  0.0529
   86SAPS  C316 8269   3.740   4.047   8.816  0.1012  0.4494 -0.1847
   86SAPS  H16X 8270   3.699   3.986   8.733 -1.9749 -0.8887  1.7331
   86SAPS  H16Y 8271   3.842   4.008   8.835 -0.5734 -0.7926  1.1113
   86SAPS  C317 8272   3.729   4.202   8.794  0.4015  0.4229 -0.3224
   86SAPS  H17X 8273   3.793   4.241   8.875  0.1752 -0.0571  0.0900
   86SAPS  H17Y 8274   3.623   4.233   8.807  0.8503  1.6128  0.5927
   86SAPS  C318 8275   3.809   4.247   8.661  0.4645  0.0191 -0.6879
   86SAPS  H18X 8276   3.752   4.229   8.568  0.6381 -0.0803 -0.7754
   86SAPS  H18Y 8277   3.895   4.179   8.648  1.4207  1.2353 -0.9120
   86SAPS  H18Z 8278   3.850   4.350   8.665 -3.4985  1.7680 -0.1025
   87SAPS     N 8279   1.754   0.144  11.123  0.4078  0.2988 -0.2434
   87SAPS   HN1 8280   1.823   0.102  11.058 -1.1793 -3.0180  0.0173
   87SAPS   HN2 8281   1.736   0.242  11.092 -1.8186  0.3197  0.9139
   87SAPS   HN3 8282   1.804   0.162  11.213 -0.2237  1.0659 -0.0357
   87SAPS   C12 8283   1.627   0.058  11.148 -0.1942 -0.4740  0.4911
   87SAPS  H12A 8284   1.658  -0.033  11.198  0.0867  0.1668  1.5087
   87SAPS   C13 8285   1.523   0.115  11.241  0.2431 -0.1803 -1.0799
   87SAPS  O13A 8286   1.559   0.215  11.311  0.6649 -0.3581 -0.3394
   87SAPS  O13B 8287   1.436   0.037  11.293  0.1048  0.2189  0.0681
   87SAPS   C11 8288   1.562   0.035  11.009  0.3589 -0.3191 -0.0139
   87SAPS  H11A 8289   1.520   0.129  10.969  2.5373  0.6330 -0.1924
   87SAPS  H11B 8290   1.472  -0.027  11.028 -0.5714  0.6713 -1.0918
   87SAPS     P 8291   1.640  -0.188  10.894 -0.1718  0.0850 -0.0697
   87SAPS   O13 8292   1.645  -0.265  11.017  0.0927 -0.4543  0.3936
   87SAPS   O14 8293   1.531  -0.224  10.801  0.0207 -1.0601  0.3473
   87SAPS   O12 8294   1.644  -0.031  10.920  0.0115  0.1259 -0.0131
   87SAPS   O11 8295   1.776  -0.211  10.821 -0.1327  0.4910  0.6780
   87SAPS    C1 8296   1.836  -0.108  10.742  1.0847 -0.1768 -0.0520
   87SAPS    HA 8297   1.772  -0.019  10.725  0.6686 -0.6587 -1.1250
   87SAPS    HB 8298   1.923  -0.074  10.802  2.2680  1.5380 -2.5517
   87SAPS    C2 8299   1.880  -0.149  10.602 -0.4324 -0.0280 -0.2893
   87SAPS    HS 8300   1.901  -0.055  10.545  1.6492  1.9736  3.4023
   87SAPS   O21 8301   1.787  -0.237  10.546 -0.1897  0.8441 -0.7991
   87SAPS   C21 8302   1.675  -0.182  10.502  0.2184 -0.5609 -0.8958
   87SAPS   O22 8303   1.645  -0.064  10.521  0.3980  0.0760  0.2298
   87SAPS   C22 8304   1.593  -0.291  10.442 -0.6510  0.0589 -0.1825
   87SAPS   H2R 8305   1.650  -0.371  10.390 -0.5122 -1.3625  2.0174
   87SAPS   H2S 8306   1.533  -0.341  10.521  1.5706  0.9235  2.2295
   87SAPS    C3 8307   2.019  -0.218  10.598 -0.5702  0.0812 -0.3283
   87SAPS    HX 8308   2.010  -0.308  10.663  0.1444 -0.6206 -1.1577
   87SAPS    HY 8309   2.096  -0.147  10.636 -1.0188  0.5926 -0.3682
   87SAPS   O31 8310   2.043  -0.236  10.454  0.3762 -0.1039 -0.1003
   87SAPS   C31 8311   2.007  -0.355  10.416  0.2497  0.4009  0.4973
   87SAPS   O32 8312   2.004  -0.457  10.488  0.3209  0.2518  0.9356
   87SAPS   C32 8313   1.965  -0.358  10.267  0.0678  0.7584  0.1178
   87SAPS   H2X 8314   1.893  -0.443  10.267  1.7921 -0.7873  1.5723
   87SAPS   H2Y 8315   2.055  -0.389  10.210  0.8318  1.8805  0.6711
   87SAPS   C23 8316   1.492  -0.222  10.347  0.1050  0.3948 -0.3737
   87SAPS   H3R 8317   1.544  -0.157  10.274  1.0457  1.6375  1.3366
   87SAPS   H3S 8318   1.418  -0.160  10.402  0.3218  0.3345 -0.0118
   87SAPS   C24 8319   1.409  -0.323  10.273  0.5110  0.0468  1.0244
   87SAPS   H4R 8320   1.336  -0.264  10.214  3.2217  0.2571 -2.4526
   87SAPS   H4S 8321   1.350  -0.385  10.344 -1.1280 -1.3410 -1.4053
   87SAPS   C25 8322   1.483  -0.423  10.192  0.0910 -0.0097  0.0968
   87SAPS   H5R 8323   1.554  -0.480  10.254 -1.3567 -1.9374  0.0941
   87SAPS   C26 8324   1.482  -0.437  10.054  0.0637 -0.0836 -0.7735
   87SAPS   H6R 8325   1.540  -0.510   9.996 -0.4045  1.9198 -4.0177
   87SAPS   C27 8326   1.403  -0.347   9.965  0.4164  0.0036  0.4641
   87SAPS   H7R 8327   1.318  -0.314  10.028  0.8158  0.0795  0.9613
   87SAPS   H7S 8328   1.361  -0.387   9.869 -2.2121  2.1881  0.5650
   87SAPS   C28 8329   1.484  -0.226   9.924  0.0728  0.0415  0.3863
   87SAPS   H8R 8330   1.527  -0.164  10.005 -0.7552  1.7477 -0.4332
   87SAPS   C29 8331   1.501  -0.173   9.801 -0.5380 -0.7011 -0.8142
   87SAPS   H9R 8332   1.559  -0.080   9.792  0.6211 -1.2063  0.8622
   87SAPS  C210 8333   1.449  -0.224   9.669  0.2896  0.2670  0.1153
   87SAPS  H10R 8334   1.400  -0.143   9.611 -0.8493  0.2445  1.0157
   87SAPS  H10S 8335   1.367  -0.299   9.678  0.9374 -0.6828 -1.5023
   87SAPS  C211 8336   1.558  -0.289   9.591  0.0619  0.4373  0.1497
   87SAPS  H11R 8337   1.650  -0.304   9.650 -0.7111 -0.2646  1.2188
   87SAPS  C212 8338   1.547  -0.335   9.466 -0.4415 -0.1976 -0.3214
   87SAPS  H12R 8339   1.643  -0.379   9.435  0.8726  0.5003  2.4345
   87SAPS  C213 8340   1.433  -0.342   9.370  0.1344 -0.2014 -0.1859
   87SAPS  H13R 8341   1.461  -0.276   9.285  2.4320  0.7533  1.1966
   87SAPS  H13S 8342   1.338  -0.300   9.410  0.8266 -0.9296  2.4067
   87SAPS  C214 8343   1.417  -0.488   9.330  0.3020 -0.6620  0.4276
   87SAPS  H14R 8344   1.343  -0.541   9.391 -2.4161  1.7228 -0.5533
   87SAPS  C215 8345   1.470  -0.550   9.224  0.3848  0.2928  0.1609
   87SAPS  H15R 8346   1.434  -0.650   9.193  1.4420 -0.5317  1.4774
   87SAPS  C216 8347   1.565  -0.481   9.126  0.1715 -0.0112 -0.7876
   87SAPS  H16R 8348   1.646  -0.557   9.115 -0.4767 -0.9288  0.5484
   87SAPS  H16S 8349   1.605  -0.379   9.141  0.8569  0.1180 -3.0836
   87SAPS  C217 8350   1.499  -0.475   8.990  0.1534  0.1157 -0.1488
   87SAPS  H17R 8351   1.402  -0.420   8.988  0.4136  0.5535 -1.6039
   87SAPS  H17S 8352   1.482  -0.580   8.958  0.9926  0.0018 -0.2439
   87SAPS  C218 8353   1.586  -0.399   8.882 -0.0676 -0.1969  0.3054
   87SAPS  H18R 8354   1.692  -0.430   8.886  0.1911  0.2516 -1.7739
   87SAPS  H18S 8355   1.585  -0.293   8.916  1.0400  0.2656 -0.9904
   87SAPS  C219 8356   1.529  -0.408   8.739  0.1232  0.6472  0.2069
   87SAPS  H19R 8357   1.450  -0.331   8.724  0.3649  0.8624  0.0351
   87SAPS  H19S 8358   1.487  -0.509   8.717  2.7815 -0.6852  0.8318
   87SAPS  C220 8359   1.639  -0.377   8.637 -0.1385 -0.6202  0.4481
   87SAPS  H20R 8360   1.676  -0.274   8.657  1.5903 -0.4575 -2.8527
   87SAPS  H20S 8361   1.605  -0.382   8.531 -0.1600  2.0869  0.2533
   87SAPS  H20T 8362   1.729  -0.443   8.642  1.5741  1.5049 -0.5770
   87SAPS   C33 8363   1.913  -0.229  10.204  0.1240  0.0800 -0.2130
   87SAPS   H3X 8364   1.995  -0.154  10.210 -0.0559  0.2214  0.5158
   87SAPS   H3Y 8365   1.842  -0.175  10.270  1.7925  2.2076 -0.0711
   87SAPS   C34 8366   1.856  -0.240  10.059  0.1366 -0.5154 -0.2578
   87SAPS   H4X 8367   1.845  -0.133  10.030  1.9430 -0.4151 -0.6765
   87SAPS   H4Y 8368   1.758  -0.290  10.040 -1.5255  2.9059 -1.6448
   87SAPS   C35 8369   1.963  -0.300   9.971 -0.1372 -0.2482  0.3609
   87SAPS   H5X 8370   1.956  -0.410   9.984 -0.0825 -0.2096  0.7295
   87SAPS   H5Y 8371   2.065  -0.276  10.007 -0.1730  2.2042 -0.9399
   87SAPS   C36 8372   1.946  -0.270   9.825  0.3356  0.4224  0.3819
   87SAPS   H6X 8373   1.944  -0.161   9.807 -0.7596  0.4537  0.6459
   87SAPS   H6Y 8374   1.846  -0.303   9.789  0.6297  2.2788 -2.4706
   87SAPS   C37 8375   2.057  -0.339   9.743  0.1885 -0.2267 -0.0052
   87SAPS   H7X 8376   2.047  -0.449   9.759 -3.3508  0.1957  1.5577
   87SAPS   H7Y 8377   2.158  -0.306   9.775  0.3461 -1.0030  0.3401
   87SAPS   C38 8378   2.052  -0.296   9.592  0.1782  1.0142  0.1898
   87SAPS   H8X 8379   2.150  -0.311   9.542 -0.3758  0.4543 -0.7534
   87SAPS   H8Y 8380   2.015  -0.193   9.570 -2.1603 -0.1138 -1.5071
   87SAPS   C39 8381   1.950  -0.381   9.512 -0.1343  0.2706  0.0414
   87SAPS   H9X 8382   1.851  -0.392   9.560 -0.8507 -1.0086 -1.6246
   87SAPS   H9Y 8383   1.991  -0.484   9.503 -0.9336 -0.0901  0.4148
   87SAPS  C310 8384   1.936  -0.333   9.365  0.3786  0.7478  0.2263
   87SAPS  H10X 8385   2.038  -0.303   9.332 -0.0156 -0.4250 -2.2521
   87SAPS  H10Y 8386   1.868  -0.245   9.359 -1.3448 -0.3813  2.1682
   87SAPS  C311 8387   1.886  -0.440   9.267  0.1927 -0.0215 -0.2493
   87SAPS  H11X 8388   1.781  -0.472   9.284  0.8590 -1.2142  2.1550
   87SAPS  H11Y 8389   1.961  -0.523   9.270  0.1175 -0.0770  0.1895
   87SAPS  C312 8390   1.883  -0.382   9.123  0.4255 -0.0203 -0.0021
   87SAPS  H12X 8391   1.818  -0.292   9.127 -0.0192 -0.2916 -0.8149
   87SAPS  H12Y 8392   1.831  -0.453   9.054  1.2671  0.5061 -1.2247
   87SAPS  C313 8393   2.013  -0.336   9.062 -0.0730  0.4892  0.4584
   87SAPS  H13X 8394   2.082  -0.422   9.071 -1.6853 -0.7835  1.1148
   87SAPS  H13Y 8395   2.055  -0.249   9.117  2.3332 -0.6229  0.5105
   87SAPS  C314 8396   1.996  -0.308   8.917  0.0737  0.1850 -0.0135
   87SAPS  H14X 8397   1.923  -0.224   8.909  0.9874  1.1261  1.0862
   87SAPS  H14Y 8398   1.956  -0.402   8.873 -0.7045  1.1577 -1.4739
   87SAPS  C315 8399   2.127  -0.271   8.848  0.5415 -0.4601 -0.3113
   87SAPS  H15X 8400   2.204  -0.349   8.864  0.7486 -0.2059 -0.0456
   87SAPS  H15Y 8401   2.167  -0.178   8.894 -3.7473  0.9963  0.9496
   87SAPS  C316 8402   2.119  -0.240   8.701 -0.0867 -0.2813 -0.1429
   87SAPS  H16X 8403   2.212  -0.181   8.685 -0.0248 -0.5904 -0.9671
   87SAPS  H16Y 8404   2.037  -0.170   8.675 -0.0183 -0.4944 -0.9579
   87SAPS  C317 8405   2.119  -0.377   8.622 -0.3894 -0.6152  0.0571
   87SAPS  H17X 8406   2.031  -0.434   8.658 -1.6030  0.9840 -0.2924
   87SAPS  H17Y 8407   2.206  -0.440   8.652  1.6787  1.6269 -0.8347
   87SAPS  C318 8408   2.116  -0.352   8.470 -0.2241 -0.4378 -0.5103
   87SAPS  H18X 8409   2.017  -0.312   8.438 -0.5718  0.3050  1.3199
   87SAPS  H18Y 8410   2.142  -0.445   8.417 -0.9286  0.1057 -1.8530
   87SAPS  H18Z 8411   2.188  -0.275   8.435 -0.1940 -1.1539 -2.1005
   88SAPS     N 8412   5.863   2.366  10.983 -0.1896  0.0054  0.3042
   88SAPS   HN1 8413   5.835   2.389  10.886 -0.0785 -1.6285 -0.1405
   88SAPS   HN2 8414   5.959   2.326  10.973  0.1695  1.2283 -1.5720
   88SAPS   HN3 8415   5.803   2.293  11.026  0.1085 -0.1049  0.5370
   88SAPS   C12 8416   5.870   2.492  11.056 -0.1326 -0.0452  0.1549
   88SAPS  H12A 8417   5.772   2.533  11.075  0.2734  0.1134  2.1029
   88SAPS   C13 8418   5.948   2.487  11.185 -0.2991 -0.1177 -0.2219
   88SAPS  O13A 8419   6.038   2.395  11.199  0.0296  0.5953  0.1243
   88SAPS  O13B 8420   5.947   2.584  11.260 -0.5146 -0.2276 -0.4906
   88SAPS   C11 8421   5.924   2.602  10.961 -0.9983  0.0999 -0.3774
   88SAPS  H11A 8422   6.028   2.570  10.942 -1.5352 -0.6541 -2.3369
   88SAPS  H11B 8423   5.922   2.697  11.018 -1.3642 -0.2871  0.2734
   88SAPS     P 8424   5.861   2.731  10.741  0.1915 -0.1495 -0.0725
   88SAPS   O13 8425   5.736   2.815  10.742 -0.1405  0.6421  0.1310
   88SAPS   O14 8426   5.984   2.808  10.759 -0.6870  0.5053  0.3262
   88SAPS   O12 8427   5.842   2.614  10.842  0.6133  0.3540 -0.1039
   88SAPS   O11 8428   5.871   2.663  10.599  0.2756  0.7293  0.3613
   88SAPS    C1 8429   5.967   2.687  10.493  0.0829 -0.1627 -0.3797
   88SAPS    HA 8430   6.069   2.654  10.522  0.2645  0.7118 -0.0106
   88SAPS    HB 8431   5.948   2.622  10.405  0.5344  0.1985 -0.7479
   88SAPS    C2 8432   5.969   2.826  10.444  0.9972 -0.4551 -0.3595
   88SAPS    HS 8433   5.995   2.883  10.536  1.7068 -1.0460 -0.1835
   88SAPS   O21 8434   5.834   2.867  10.397 -0.7128 -0.5568 -0.6517
   88SAPS   C21 8435   5.817   2.995  10.408 -0.4102  0.1000  0.1745
   88SAPS   O22 8436   5.883   3.076  10.473 -0.3481  0.6707 -0.1189
   88SAPS   C22 8437   5.707   3.033  10.317  0.8580  0.0328 -0.2491
   88SAPS   H2R 8438   5.702   2.983  10.218 -0.7531  3.9866 -2.3981
   88SAPS   H2S 8439   5.613   2.993  10.361  0.4493  1.0789 -0.1423
   88SAPS    C3 8440   6.081   2.860  10.344  0.2665  0.0756 -0.3531
   88SAPS    HX 8441   6.176   2.808  10.370  0.8998  0.0037 -2.5950
   88SAPS    HY 8442   6.105   2.967  10.367  0.3200  0.3846 -1.7819
   88SAPS   O31 8443   6.052   2.852  10.203  0.0651 -0.0056 -0.2256
   88SAPS   C31 8444   6.082   2.735  10.148 -0.5251  0.3296  0.2475
   88SAPS   O32 8445   6.113   2.635  10.210 -0.2577  0.5207 -0.4850
   88SAPS   C32 8446   6.070   2.747   9.996 -0.1022  0.4046 -0.0620
   88SAPS   H2X 8447   6.160   2.783   9.943 -0.2487  0.4762 -0.2638
   88SAPS   H2Y 8448   5.988   2.818   9.973  0.8202  1.6806  0.4947
   88SAPS   C23 8449   5.688   3.187  10.302  0.2480 -0.1372  0.6944
   88SAPS   H3R 8450   5.722   3.234  10.397 -0.1935 -0.2286  0.8986
   88SAPS   H3S 8451   5.584   3.223  10.287  0.4970  0.2304 -0.2987
   88SAPS   C24 8452   5.770   3.246  10.176  0.3306  0.3022  0.1970
   88SAPS   H4R 8453   5.868   3.195  10.185 -0.0731 -0.8199 -1.3544
   88SAPS   H4S 8454   5.782   3.354  10.201 -1.8500  1.4150 -2.9015
   88SAPS   C25 8455   5.717   3.241  10.033 -0.2772  0.1004 -0.4001
   88SAPS   H5R 8456   5.621   3.294  10.031 -0.9612 -0.8650  2.4973
   88SAPS   C26 8457   5.771   3.166   9.931  0.9842 -0.0936  0.2106
   88SAPS   H6R 8458   5.736   3.184   9.828  0.5686  1.9933  0.6794
   88SAPS   C27 8459   5.889   3.074   9.932  0.1477 -0.2432  0.3975
   88SAPS   H7R 8460   5.848   2.971   9.923 -0.0387 -0.0468 -1.1673
   88SAPS   H7S 8461   5.951   3.077  10.025 -1.1199 -2.0563  1.3614
   88SAPS   C28 8462   5.990   3.101   9.822 -0.1462 -0.2799  0.6809
   88SAPS   H8R 8463   6.075   3.161   9.856 -1.0603  1.1955  0.4359
   88SAPS   C29 8464   5.986   3.058   9.695 -0.5089 -0.4664 -0.3050
   88SAPS   H9R 8465   6.066   3.089   9.626  0.9654 -1.6309  0.8106
   88SAPS  C210 8466   5.882   2.970   9.639  0.3117  0.5604 -0.3346
   88SAPS  H10R 8467   5.800   3.026   9.589  0.3542  1.3002  0.4089
   88SAPS  H10S 8468   5.835   2.899   9.710 -3.8666  3.5283  0.2581
   88SAPS  C211 8469   5.949   2.873   9.545 -0.3339  0.9228 -0.2394
   88SAPS  H11R 8470   5.981   2.777   9.588 -4.8734 -1.0763 -0.7903
   88SAPS  C212 8471   5.967   2.889   9.413 -0.2542 -0.2368  0.2001
   88SAPS  H12R 8472   6.021   2.813   9.355  0.1298  0.1039  0.1038
   88SAPS  C213 8473   5.923   3.012   9.333  0.0298  0.0095  0.5848
   88SAPS  H13R 8474   5.931   3.109   9.386 -0.2788  1.4858 -1.9038
   88SAPS  H13S 8475   5.813   3.007   9.320  0.2792 -0.9807 -1.6077
   88SAPS  C214 8476   5.991   3.040   9.202 -0.6536 -0.2819  0.3520
   88SAPS  H14R 8477   6.039   3.139   9.196 -0.7791 -0.2550 -0.2992
   88SAPS  C215 8478   5.969   2.969   9.089  0.6004  0.0184 -0.1495
   88SAPS  H15R 8479   6.023   3.006   9.001  0.0170 -1.6299 -1.2491
   88SAPS  C216 8480   5.890   2.842   9.075  0.3165  0.4892 -0.1541
   88SAPS  H16R 8481   5.797   2.849   9.135 -0.4134 -2.8974 -0.6793
   88SAPS  H16S 8482   5.959   2.762   9.112  1.2470  0.6613 -1.4586
   88SAPS  C217 8483   5.855   2.821   8.931 -0.6101  0.4175  0.3964
   88SAPS  H17R 8484   5.953   2.814   8.878 -0.0778  0.4183  1.3565
   88SAPS  H17S 8485   5.811   2.910   8.881 -1.2873 -1.5153 -2.7293
   88SAPS  C218 8486   5.766   2.697   8.906  0.0131 -0.2276 -0.4289
   88SAPS  H18R 8487   5.667   2.724   8.948  0.9105  0.3122  1.4543
   88SAPS  H18S 8488   5.796   2.598   8.948  2.5538  0.9677  0.7504
   88SAPS  C219 8489   5.740   2.668   8.761 -0.3741  0.4058 -0.2127
   88SAPS  H19R 8490   5.716   2.561   8.744  0.1178  0.5009 -1.6024
   88SAPS  H19S 8491   5.837   2.688   8.709 -0.8593  1.4368 -0.7534
   88SAPS  C220 8492   5.629   2.752   8.693  1.5322  0.2369  0.2399
   88SAPS  H20R 8493   5.645   2.861   8.692  0.8540  0.3386 -0.0031
   88SAPS  H20S 8494   5.535   2.725   8.746  1.4087 -0.2080 -0.2009
   88SAPS  H20T 8495   5.621   2.712   8.590  0.8480  3.9446 -1.2937
   88SAPS   C33 8496   6.043   2.610   9.935 -0.0806 -0.3665  0.4062
   88SAPS   H3X 8497   5.946   2.570   9.971  0.1574 -0.2947  1.1586
   88SAPS   H3Y 8498   6.128   2.548   9.971  0.1379 -2.0186 -2.6096
   88SAPS   C34 8499   6.034   2.610   9.783 -0.4915 -0.7179 -0.4128
   88SAPS   H4X 8500   6.124   2.662   9.743  2.1988 -2.2871  3.0342
   88SAPS   H4Y 8501   5.944   2.665   9.748 -1.0709 -0.5822  1.2111
   88SAPS   C35 8502   6.013   2.464   9.748 -0.5045 -0.2739 -0.2282
   88SAPS   H5X 8503   5.912   2.433   9.782 -0.5017  0.7041  0.7167
   88SAPS   H5Y 8504   6.084   2.387   9.785  0.5570  0.9697  0.3709
   88SAPS   C36 8505   6.013   2.435   9.596 -0.7673  0.0866  0.0061
   88SAPS   H6X 8506   5.936   2.496   9.545 -1.0357 -0.9660 -0.8904
   88SAPS   H6Y 8507   5.992   2.328   9.573 -0.7236  0.5059 -2.2905
   88SAPS   C37 8508   6.141   2.473   9.518 -0.1225  0.3299 -0.9073
   88SAPS   H7X 8509   6.229   2.408   9.540  0.3814  1.1510 -0.4551
   88SAPS   H7Y 8510   6.169   2.578   9.540  5.6768 -0.9934 -0.3241
   88SAPS   C38 8511   6.123   2.456   9.362 -0.4229  0.8185 -0.3380
   88SAPS   H8X 8512   6.014   2.445   9.344 -0.4810 -1.0439  0.8041
   88SAPS   H8Y 8513   6.166   2.358   9.331 -0.0775  0.9756 -0.3643
   88SAPS   C39 8514   6.189   2.568   9.287  0.0480 -0.9089 -0.5277
   88SAPS   H9X 8515   6.296   2.584   9.311 -0.2992  2.4023 -0.6763
   88SAPS   H9Y 8516   6.141   2.659   9.329  0.0243 -1.2792  0.2759
   88SAPS  C310 8517   6.189   2.554   9.141 -0.2372 -0.1191  0.7288
   88SAPS  H10X 8518   6.086   2.556   9.100  0.2982  0.8356 -0.6452
   88SAPS  H10Y 8519   6.221   2.451   9.112 -3.8040 -1.1384 -0.1901
   88SAPS  C311 8520   6.269   2.665   9.071  0.5199  0.0184  0.1898
   88SAPS  H11X 8521   6.358   2.698   9.129  0.6457  1.4654 -0.7733
   88SAPS  H11Y 8522   6.215   2.761   9.052  4.1267  1.7516 -2.5620
   88SAPS  C312 8523   6.320   2.622   8.932  0.4508  0.3736 -0.8203
   88SAPS  H12X 8524   6.388   2.535   8.938 -0.1874 -0.1031 -0.3287
   88SAPS  H12Y 8525   6.370   2.705   8.878  1.1773  0.4622 -0.0363
   88SAPS  C313 8526   6.200   2.564   8.853  0.0178 -0.0804  0.0603
   88SAPS  H13X 8527   6.112   2.626   8.880  1.1291  0.4424  2.7879
   88SAPS  H13Y 8528   6.172   2.466   8.898  1.6582  1.0149  3.9178
   88SAPS  C314 8529   6.222   2.555   8.703  0.2638 -0.5138 -0.4111
   88SAPS  H14X 8530   6.326   2.515   8.705  0.4426 -0.1535  2.9590
   88SAPS  H14Y 8531   6.233   2.651   8.647  1.2626 -0.6950 -0.5556
   88SAPS  C315 8532   6.116   2.466   8.638  0.4232 -0.6626 -0.5966
   88SAPS  H15X 8533   6.016   2.512   8.649 -0.6221 -2.1209 -3.2564
   88SAPS  H15Y 8534   6.117   2.368   8.692 -0.9964  0.4667  1.6393
   88SAPS  C316 8535   6.138   2.449   8.484 -0.3413  0.1580  0.6296
   88SAPS  H16X 8536   6.071   2.374   8.437  1.6287 -0.4697 -1.3454
   88SAPS  H16Y 8537   6.244   2.416   8.475 -0.0769  1.3206 -0.7845
   88SAPS  C317 8538   6.127   2.578   8.395 -0.3668  0.2274 -0.7867
   88SAPS  H17X 8539   6.124   2.524   8.298 -0.3660 -1.1433 -0.0442
   88SAPS  H17Y 8540   6.220   2.640   8.390  0.9350 -1.4917  0.7438
   88SAPS  C318 8541   6.002   2.651   8.410  0.2405 -0.0860 -0.1431
   88SAPS  H18X 8542   5.909   2.592   8.403 -0.3231  0.6667  0.6150
   88SAPS  H18Y 8543   5.994   2.733   8.336 -3.0988 -1.8069 -1.8735
   88SAPS  H18Z 8544   5.989   2.687   8.515  1.3596  3.2216 -1.0020
   89SAPS     N 8545   6.249   0.609  10.970  0.0368  0.5199 -0.1122
   89SAPS   HN1 8546   6.279   0.620  11.068 -1.7063  0.9831  0.4122
   89SAPS   HN2 8547   6.255   0.507  10.955  1.4368  0.5267  0.2518
   89SAPS   HN3 8548   6.308   0.673  10.912  0.1116  0.6836  0.1454
   89SAPS   C12 8549   6.108   0.651  10.951 -0.2437  0.1484 -0.3798
   89SAPS  H12A 8550   6.075   0.601  10.862 -0.7434  0.8644 -0.6090
   89SAPS   C13 8551   6.017   0.602  11.063  0.2862  0.4379 -0.0601
   89SAPS  O13A 8552   6.047   0.496  11.123  0.0668 -0.1810  0.3659
   89SAPS  O13B 8553   5.920   0.669  11.111 -0.0051 -0.1659 -0.1132
   89SAPS   C11 8554   6.107   0.801  10.930  0.3945 -0.7019  0.7682
   89SAPS  H11A 8555   6.159   0.840  11.020  0.6881  0.9387 -0.0719
   89SAPS  H11B 8556   6.000   0.831  10.942  0.4554 -0.5469  0.9300
   89SAPS     P 8557   6.180   1.006  10.800 -0.3934 -0.0749 -0.2458
   89SAPS   O13 8558   6.049   1.069  10.820 -0.3647 -0.1649 -0.2900
   89SAPS   O14 8559   6.293   1.048  10.882  0.3782 -0.0110 -0.3567
   89SAPS   O12 8560   6.158   0.851  10.806  0.1794 -0.2568  0.0370
   89SAPS   O11 8561   6.224   1.028  10.651 -0.5908  0.5014  0.4573
   89SAPS    C1 8562   6.187   0.939  10.551  0.0820 -0.7402 -0.1305
   89SAPS    HA 8563   6.210   0.833  10.576 -1.6061 -1.4409 -1.3521
   89SAPS    HB 8564   6.083   0.953  10.515 -0.0213 -1.2111 -0.0276
   89SAPS    C2 8565   6.284   0.962  10.430 -0.4096 -0.6205 -0.1714
   89SAPS    HS 8566   6.294   1.061  10.382  0.8764 -1.0248 -0.7810
   89SAPS   O21 8567   6.254   0.869  10.327  0.2331  0.1301  0.3770
   89SAPS   C21 8568   6.140   0.873  10.265  0.2911 -0.0158  0.4513
   89SAPS   O22 8569   6.061   0.965  10.270  0.5252  0.3051 -0.0159
   89SAPS   C22 8570   6.118   0.743  10.173 -0.2001  0.5120  0.3536
   89SAPS   H2R 8571   6.211   0.732  10.114 -0.6331  1.0385 -0.4407
   89SAPS   H2S 8572   6.103   0.651  10.234 -1.6994 -0.4723 -1.4068
   89SAPS    C3 8573   6.430   0.934  10.469  0.4985 -0.9033 -0.3332
   89SAPS    HX 8574   6.440   0.836  10.520  0.7682  0.3608  2.1733
   89SAPS    HY 8575   6.457   1.018  10.537 -2.9907  0.1543 -0.0202
   89SAPS   O31 8576   6.510   0.944  10.352 -0.4262 -0.2756  0.2051
   89SAPS   C31 8577   6.642   0.921  10.376 -0.0309 -0.0181  0.7742
   89SAPS   O32 8578   6.692   0.897  10.481  0.6743  0.2725  0.0236
   89SAPS   C32 8579   6.718   0.933  10.242  0.2596  0.7512  0.0435
   89SAPS   H2X 8580   6.653   0.913  10.155  0.4860 -1.8188  0.3845
   89SAPS   H2Y 8581   6.795   0.853  10.250  0.5449  0.8993 -1.0618
   89SAPS   C23 8582   5.992   0.743  10.082  0.0147  1.0288  0.3898
   89SAPS   H3R 8583   5.907   0.770  10.149 -0.3898  0.9657 -0.0974
   89SAPS   H3S 8584   5.976   0.648  10.029  1.1015  1.1810 -0.2454
   89SAPS   C24 8585   5.999   0.856   9.972  0.0541  0.7773 -0.0958
   89SAPS   H4R 8586   6.088   0.831   9.910 -0.4543 -0.7015 -0.2757
   89SAPS   H4S 8587   6.015   0.954  10.022 -2.2347  0.8161  0.6960
   89SAPS   C25 8588   5.874   0.874   9.886  0.5424  0.0243  0.2350
   89SAPS   H5R 8589   5.793   0.917   9.948  0.3251 -0.5134  0.3328
   89SAPS   C26 8590   5.863   0.869   9.752 -0.4386 -0.7734  0.1072
   89SAPS   H6R 8591   5.763   0.897   9.717 -1.0739  0.5185  2.7198
   89SAPS   C27 8592   5.964   0.834   9.652 -0.7221 -0.1335 -0.4943
   89SAPS   H7R 8593   6.063   0.803   9.691 -0.3115  0.5911 -0.9464
   89SAPS   H7S 8594   5.994   0.928   9.601  0.8787  0.9359  2.2070
   89SAPS   C28 8595   5.935   0.718   9.555  0.6135 -0.3827 -0.0929
   89SAPS   H8R 8596   5.906   0.622   9.600  2.6382 -0.2681  1.6334
   89SAPS   C29 8597   5.945   0.725   9.423  0.0932 -0.6981  0.8812
   89SAPS   H9R 8598   5.921   0.643   9.354  0.5679 -0.9882  1.0595
   89SAPS  C210 8599   5.986   0.848   9.338  0.5187 -0.1742 -0.4309
   89SAPS  H10R 8600   6.096   0.859   9.343  0.3806  0.7342  1.2594
   89SAPS  H10S 8601   5.952   0.934   9.400 -0.1227 -0.0057 -0.9997
   89SAPS  C211 8602   5.927   0.854   9.201 -0.7392 -0.5375 -0.3138
   89SAPS  H11R 8603   5.868   0.773   9.156 -1.2285  1.6415 -3.9883
   89SAPS  C212 8604   5.962   0.953   9.111 -0.5745  0.7731 -0.2089
   89SAPS  H12R 8605   5.941   0.926   9.007 -1.1207 -1.4062  0.3967
   89SAPS  C213 8606   6.061   1.059   9.139 -0.3210 -0.2570 -0.0155
   89SAPS  H13R 8607   6.091   1.070   9.246  0.2245 -0.9930 -0.0802
   89SAPS  H13S 8608   6.034   1.159   9.100  1.8947  0.7034  0.7686
   89SAPS  C214 8609   6.193   1.002   9.081  0.2755 -0.6816 -0.4850
   89SAPS  H14R 8610   6.246   0.943   9.157 -0.3121 -0.3149  0.2211
   89SAPS  C215 8611   6.237   0.995   8.952  0.0313  0.0314  0.3331
   89SAPS  H15R 8612   6.332   0.949   8.920  1.4646  2.6564  0.6173
   89SAPS  C216 8613   6.146   1.044   8.835  0.0165 -0.1440 -0.0355
   89SAPS  H16R 8614   6.069   1.114   8.872  1.9928  2.5869 -0.7294
   89SAPS  H16S 8615   6.115   0.961   8.768  0.3693 -1.0308  0.8829
   89SAPS  C217 8616   6.221   1.144   8.748  0.3801 -0.1709 -0.1733
   89SAPS  H17R 8617   6.310   1.094   8.703  1.2440 -1.7311  3.0215
   89SAPS  H17S 8618   6.253   1.241   8.790 -2.5113  1.6514 -1.7975
   89SAPS  C218 8619   6.135   1.176   8.622  0.6790  0.2672  1.0088
   89SAPS  H18R 8620   6.052   1.248   8.640 -3.0794 -3.5565  0.6145
   89SAPS  H18S 8621   6.065   1.090   8.609  1.9823 -1.1169  2.6741
   89SAPS  C219 8622   6.209   1.210   8.493  0.0662 -0.1158  0.1858
   89SAPS  H19R 8623   6.261   1.114   8.475 -2.5761 -1.6948  0.5475
   89SAPS  H19S 8624   6.282   1.294   8.501  0.0466  0.0759 -1.3713
   89SAPS  C220 8625   6.110   1.248   8.384  0.1322  0.2629 -0.1634
   89SAPS  H20R 8626   6.022   1.179   8.376  0.9263 -0.9191  0.8259
   89SAPS  H20S 8627   6.174   1.258   8.294  4.2520  1.1375  2.5732
   89SAPS  H20T 8628   6.065   1.346   8.408  0.8104  0.2948  1.0402
   89SAPS   C33 8629   6.785   1.077  10.235  0.4343 -0.1275 -0.3774
   89SAPS   H3X 8630   6.876   1.069  10.299  0.4333 -0.4028 -0.4090
   89SAPS   H3Y 8631   6.724   1.164  10.267 -0.1861 -0.3337 -0.9926
   89SAPS   C34 8632   6.851   1.094  10.089  0.8950 -0.3074 -0.5284
   89SAPS   H4X 8633   6.918   1.182  10.095  0.3949  0.1782 -1.6638
   89SAPS   H4Y 8634   6.771   1.108  10.013 -1.1928 -1.1669  1.3925
   89SAPS   C35 8635   6.925   0.973  10.037 -0.2583 -0.6640  0.5009
   89SAPS   H5X 8636   6.862   0.881  10.039  1.4955 -1.9271  2.0458
   89SAPS   H5Y 8637   7.021   0.960  10.093 -0.3025 -0.7263  0.5638
   89SAPS   C36 8638   6.982   1.003   9.894  0.3281  0.4631  0.0402
   89SAPS   H6X 8639   7.022   1.106   9.892  0.9113  0.2900  1.5427
   89SAPS   H6Y 8640   6.889   0.999   9.834 -0.8384 -0.8799  1.8250
   89SAPS   C37 8641   7.085   0.906   9.849 -0.4612 -0.2176  0.3132
   89SAPS   H7X 8642   7.079   0.817   9.916  0.0915  0.1341  0.8358
   89SAPS   H7Y 8643   7.181   0.960   9.864 -0.9797  0.6249  0.6748
   89SAPS   C38 8644   7.078   0.862   9.700  0.1850  0.2147  0.0705
   89SAPS   H8X 8645   7.042   0.947   9.638 -1.4376  1.2896  2.2932
   89SAPS   H8Y 8646   7.008   0.777   9.688  2.6110 -1.7073 -1.1748
   89SAPS   C39 8647   7.207   0.791   9.659 -0.6921 -0.2961  0.4794
   89SAPS   H9X 8648   7.225   0.702   9.721  0.1170  0.4491  1.3464
   89SAPS   H9Y 8649   7.287   0.866   9.680 -0.3961  0.2133 -2.0910
   89SAPS  C310 8650   7.221   0.748   9.512 -1.1057 -0.5119 -0.0024
   89SAPS  H10X 8651   7.138   0.677   9.490 -0.0677 -2.0411  0.8129
   89SAPS  H10Y 8652   7.320   0.697   9.508 -0.9262 -0.3204  1.3991
   89SAPS  C311 8653   7.224   0.871   9.410 -0.0838 -0.4972  0.1313
   89SAPS  H11X 8654   7.303   0.945   9.438 -0.9146  1.0631 -1.4206
   89SAPS  H11Y 8655   7.128   0.927   9.414  1.0024  1.4381  0.1551
   89SAPS  C312 8656   7.251   0.826   9.271  0.1345 -0.3882 -0.3554
   89SAPS  H12X 8657   7.176   0.755   9.231  0.0419 -0.2978 -0.3447
   89SAPS  H12Y 8658   7.344   0.767   9.266  1.1806  1.2656 -1.6845
   89SAPS  C313 8659   7.246   0.937   9.172  0.2127  0.3321  0.3096
   89SAPS  H13X 8660   7.335   1.002   9.191  0.8803  0.0452 -1.6108
   89SAPS  H13Y 8661   7.164   1.011   9.188 -0.0046  0.6304 -1.9182
   89SAPS  C314 8662   7.254   0.892   9.021 -0.0603 -0.0220 -0.5105
   89SAPS  H14X 8663   7.256   0.979   8.951  0.9306  1.5210  1.3328
   89SAPS  H14Y 8664   7.158   0.839   9.003  0.2863 -0.7731 -0.1855
   89SAPS  C315 8665   7.371   0.803   8.985  0.3129 -0.9078  0.2010
   89SAPS  H15X 8666   7.369   0.718   9.057 -0.4502 -0.1041  1.1628
   89SAPS  H15Y 8667   7.461   0.860   9.017 -1.0115  1.6447 -0.3766
   89SAPS  C316 8668   7.383   0.756   8.832 -0.5846 -0.5953  0.4656
   89SAPS  H16X 8669   7.478   0.698   8.829  0.2110  0.6968 -0.3472
   89SAPS  H16Y 8670   7.386   0.841   8.761  1.1438 -0.4287  0.6914
   89SAPS  C317 8671   7.274   0.668   8.789  0.2598 -0.0737 -0.1631
   89SAPS  H17X 8672   7.170   0.706   8.799 -0.3907 -1.8370  0.1485
   89SAPS  H17Y 8673   7.287   0.571   8.842  0.1004  0.3326  0.6223
   89SAPS  C318 8674   7.275   0.643   8.636 -0.3586  0.0163 -0.8588
   89SAPS  H18X 8675   7.362   0.580   8.607 -0.4691 -2.0687  2.6785
   89SAPS  H18Y 8676   7.281   0.739   8.581 -1.7166  1.0598  0.7302
   89SAPS  H18Z 8677   7.185   0.588   8.601 -0.6431  1.5959 -2.7728
   90SAPS     N 8678   0.645   4.895  10.959 -0.5983  0.4794 -0.6220
   90SAPS   HN1 8679   0.721   4.832  10.991 -1.4625 -0.0105  0.5422
   90SAPS   HN2 8680   0.661   4.962  10.881 -2.6964  0.4292 -1.1565
   90SAPS   HN3 8681   0.635   4.960  11.039 -1.5678 -1.3233  0.7947
   90SAPS   C12 8682   0.520   4.830  10.931  0.0615 -0.1767  0.0869
   90SAPS  H12A 8683   0.537   4.737  10.878 -0.9199 -0.3893  0.1251
   90SAPS   C13 8684   0.426   4.792  11.045 -0.1484  0.6294  0.3037
   90SAPS  O13A 8685   0.440   4.833  11.160 -0.4838 -0.5091 -0.2613
   90SAPS  O13B 8686   0.329   4.708  11.021  0.4575 -0.0546  0.1602
   90SAPS   C11 8687   0.430   4.924  10.849 -0.0353 -0.1712 -0.0106
   90SAPS  H11A 8688   0.400   5.012  10.910  0.3933 -0.3137  0.4077
   90SAPS  H11B 8689   0.336   4.876  10.814  0.1706 -0.1812 -0.5434
   90SAPS     P 8690   0.422   5.032  10.615 -0.3318 -0.4357  0.0431
   90SAPS   O13 8691   0.352   5.156  10.658  0.8645 -0.0477 -0.6196
   90SAPS   O14 8692   0.512   5.053  10.500 -0.1650  0.4598 -0.1362
   90SAPS   O12 8693   0.500   4.970  10.735 -0.2453 -0.3944 -0.5819
   90SAPS   O11 8694   0.308   4.927  10.582 -0.6108 -0.1016  0.2042
   90SAPS    C1 8695   0.344   4.798  10.546  0.3331 -0.3287  0.4893
   90SAPS    HA 8696   0.448   4.783  10.580  1.0423  1.1015 -0.8966
   90SAPS    HB 8697   0.286   4.712  10.586 -0.6462 -0.4387 -1.0672
   90SAPS    C2 8698   0.326   4.770  10.389 -0.2816  0.1754 -0.5515
   90SAPS    HS 8699   0.402   4.838  10.344  1.6609 -2.4736 -1.4910
   90SAPS   O21 8700   0.192   4.800  10.352 -0.1278  0.2905  0.1334
   90SAPS   C21 8701   0.160   4.918  10.320  0.0086 -0.6254  0.0364
   90SAPS   O22 8702   0.231   5.020  10.336  0.2016  0.6945  0.1560
   90SAPS   C22 8703   0.015   4.912  10.265 -0.4339  0.2128  0.6697
   90SAPS   H2R 8704  -0.036   4.838  10.331 -0.1419 -1.0839 -0.5284
   90SAPS   H2S 8705  -0.038   5.010  10.274  0.3525  0.6835  0.3369
   90SAPS    C3 8706   0.353   4.621  10.356  0.7111  0.5311  0.8168
   90SAPS    HX 8707   0.300   4.546  10.419  1.6560 -0.5802  0.3221
   90SAPS    HY 8708   0.458   4.597  10.385  1.2574 -0.9675 -2.0122
   90SAPS   O31 8709   0.353   4.601  10.211 -0.1572 -0.4799  0.3126
   90SAPS   C31 8710   0.238   4.568  10.152 -0.1685 -0.0650  0.5148
   90SAPS   O32 8711   0.134   4.548  10.207  0.6034  0.0920  0.3959
   90SAPS   C32 8712   0.266   4.548  10.003 -0.6454 -0.2253  0.7190
   90SAPS   H2X 8713   0.293   4.440  10.005  0.1598 -0.0604 -0.5460
   90SAPS   H2Y 8714   0.351   4.611   9.970  0.6315 -2.3436 -0.2249
   90SAPS   C23 8715   0.011   4.864  10.115  0.2034 -0.5582  0.0525
   90SAPS   H3R 8716   0.069   4.771  10.100 -0.1122 -0.9207  1.0125
   90SAPS   H3S 8717   0.056   4.948  10.057 -2.2219 -0.5174 -1.9619
   90SAPS   C24 8718  -0.131   4.826  10.066  0.3935 -0.5389 -0.1895
   90SAPS   H4R 8719  -0.186   4.753  10.129 -1.5167  1.1425  0.1927
   90SAPS   H4S 8720  -0.106   4.771   9.972  0.1313  1.2713 -1.3777
   90SAPS   C25 8721  -0.219   4.947  10.048 -0.1244  0.3864  1.0345
   90SAPS   H5R 8722  -0.246   5.010  10.134 -0.4362  2.3127 -0.4130
   90SAPS   C26 8723  -0.286   4.977   9.930  0.3601 -0.3086  0.3906
   90SAPS   H6R 8724  -0.351   5.066   9.928 -0.7107 -1.0798 -1.6442
   90SAPS   C27 8725  -0.285   4.883   9.808 -0.2791 -0.4607  0.3850
   90SAPS   H7R 8726  -0.388   4.868   9.768 -0.0880 -0.9041  0.0448
   90SAPS   H7S 8727  -0.268   4.786   9.860  0.1291 -0.2740  0.6023
   90SAPS   C28 8728  -0.177   4.912   9.703  0.7493 -0.2914 -0.3559
   90SAPS   H8R 8729  -0.081   4.946   9.746  0.0596  0.4226  0.6889
   90SAPS   C29 8730  -0.194   4.899   9.574  0.0071 -0.0544  0.2514
   90SAPS   H9R 8731  -0.104   4.894   9.512 -0.2958  0.1764 -0.2188
   90SAPS  C210 8732  -0.315   4.841   9.503 -0.5310  0.4844  0.3534
   90SAPS  H10R 8733  -0.395   4.804   9.572 -1.0459 -0.1519 -0.5645
   90SAPS  H10S 8734  -0.278   4.752   9.448 -2.2549 -0.2018  0.2216
   90SAPS  C211 8735  -0.377   4.940   9.403 -0.1418  0.2239  0.1765
   90SAPS  H11R 8736  -0.460   4.997   9.447 -1.2761 -1.9734  1.0362
   90SAPS  C212 8737  -0.335   4.968   9.277  0.2074 -0.8949 -0.0485
   90SAPS  H12R 8738  -0.377   5.052   9.220 -1.4884 -1.6179  0.0597
   90SAPS  C213 8739  -0.224   4.907   9.206 -0.2295  0.5772 -0.4588
   90SAPS  H13R 8740  -0.154   4.868   9.282 -0.5421  1.9083  0.5565
   90SAPS  H13S 8741  -0.170   4.988   9.151 -0.5622  0.4664 -0.9586
   90SAPS  C214 8742  -0.267   4.798   9.109  0.9727  0.4752  0.0985
   90SAPS  H14R 8743  -0.303   4.702   9.150 -0.5508  0.7740 -0.4864
   90SAPS  C215 8744  -0.272   4.805   8.974  0.2087  0.9547 -0.2233
   90SAPS  H15R 8745  -0.314   4.722   8.915  2.8901 -0.6752 -0.0142
   90SAPS  C216 8746  -0.230   4.915   8.882 -0.0023  0.3557 -0.0900
   90SAPS  H16R 8747  -0.154   4.885   8.807 -0.2356 -0.0645 -0.1566
   90SAPS  H16S 8748  -0.177   4.987   8.948 -1.3943  0.4085  1.0108
   90SAPS  C217 8749  -0.346   4.972   8.803 -0.2875  0.1748 -0.0505
   90SAPS  H17R 8750  -0.387   4.902   8.727 -0.4545  0.9844 -0.7130
   90SAPS  H17S 8751  -0.308   5.062   8.752 -0.1886  2.2397  3.3423
   90SAPS  C218 8752  -0.469   5.031   8.872  0.8009 -1.2086 -0.1591
   90SAPS  H18R 8753  -0.436   5.100   8.952  1.1144  0.7019 -1.8377
   90SAPS  H18S 8754  -0.521   4.944   8.917  1.8970 -1.5817  0.4243
   90SAPS  C219 8755  -0.551   5.125   8.772 -0.4452  0.0835  0.1025
   90SAPS  H19R 8756  -0.479   5.206   8.748 -0.8918  1.5894  3.2814
   90SAPS  H19S 8757  -0.633   5.181   8.821  0.7532 -0.2886  2.7087
   90SAPS  C220 8758  -0.596   5.049   8.642  0.2762  0.3924 -0.2871
   90SAPS  H20R 8759  -0.512   4.996   8.593  0.1364 -1.9413  1.8019
   90SAPS  H20S 8760  -0.635   5.124   8.569  0.6197 -0.4479 -1.3691
   90SAPS  H20T 8761  -0.683   4.982   8.661 -1.3669  2.5010  0.0179
   90SAPS   C33 8762   0.145   4.538   9.910  0.0134 -0.0470  0.3591
   90SAPS   H3X 8763   0.107   4.642   9.902 -1.5794 -0.7172 -1.5827
   90SAPS   H3Y 8764   0.067   4.470   9.950 -0.4961 -0.4895 -1.3278
   90SAPS   C34 8765   0.191   4.489   9.770  0.0781  0.0475 -0.6990
   90SAPS   H4X 8766   0.250   4.395   9.767  1.7138  0.9743  0.4221
   90SAPS   H4Y 8767   0.273   4.560   9.746  0.4807  0.1707  0.9219
   90SAPS   C35 8768   0.085   4.491   9.662  0.2428  0.1036  0.5655
   90SAPS   H5X 8769   0.029   4.586   9.647 -1.4105 -0.6745  1.4963
   90SAPS   H5Y 8770   0.017   4.405   9.683  0.7423 -0.1350  1.2684
   90SAPS   C36 8771   0.135   4.479   9.514 -0.4106 -0.0185 -0.3877
   90SAPS   H6X 8772   0.225   4.544   9.505 -0.0411 -0.6152 -1.1915
   90SAPS   H6Y 8773   0.055   4.496   9.439  1.7802 -1.2890 -3.2309
   90SAPS   C37 8774   0.194   4.343   9.478 -0.5402  0.4721 -0.7943
   90SAPS   H7X 8775   0.109   4.272   9.486 -0.6906  0.5530 -1.5518
   90SAPS   H7Y 8776   0.264   4.309   9.557 -0.3504  0.7211 -0.8521
   90SAPS   C38 8777   0.252   4.335   9.336 -0.7074 -0.7214  0.0250
   90SAPS   H8X 8778   0.356   4.374   9.343 -0.4315 -1.2067 -1.1710
   90SAPS   H8Y 8779   0.189   4.398   9.269  0.0283 -2.3234 -2.2858
   90SAPS   C39 8780   0.255   4.185   9.290  0.4457 -0.1818 -0.0011
   90SAPS   H9X 8781   0.152   4.147   9.308  0.3206 -1.5329 -2.9518
   90SAPS   H9Y 8782   0.331   4.126   9.346 -1.8088 -1.0656  2.3512
   90SAPS  C310 8783   0.285   4.158   9.140  0.1585  0.2618  0.4296
   90SAPS  H10X 8784   0.233   4.233   9.076 -1.1377 -1.8075 -1.0629
   90SAPS  H10Y 8785   0.247   4.060   9.104  0.6762  0.2178  0.0012
   90SAPS  C311 8786   0.437   4.158   9.106 -0.2640 -0.6284  0.9624
   90SAPS  H11X 8787   0.498   4.241   9.147 -0.8831  0.1464  0.3494
   90SAPS  H11Y 8788   0.443   4.175   8.997 -2.0072 -1.0322  0.7734
   90SAPS  C312 8789   0.507   4.028   9.139 -0.0820  0.2354 -0.0253
   90SAPS  H12X 8790   0.544   3.980   9.045 -0.4224  1.4970 -0.8184
   90SAPS  H12Y 8791   0.433   3.956   9.181  0.0926 -2.0588 -3.2325
   90SAPS  C313 8792   0.620   4.041   9.238 -0.3436  0.5011 -0.2269
   90SAPS  H13X 8793   0.579   4.032   9.340 -1.5082 -1.8667 -0.8340
   90SAPS  H13Y 8794   0.669   4.140   9.224  0.7613  0.6761  3.8523
   90SAPS  C314 8795   0.735   3.934   9.242 -0.2257  0.1821 -0.5102
   90SAPS  H14X 8796   0.801   3.946   9.153  0.1857  4.0872  0.1728
   90SAPS  H14Y 8797   0.684   3.835   9.241  0.1729 -0.0357  0.3422
   90SAPS  C315 8798   0.829   3.936   9.366  0.3986 -0.4983  0.3385
   90SAPS  H15X 8799   0.758   3.928   9.451 -1.1894  1.8000 -0.6760
   90SAPS  H15Y 8800   0.883   4.033   9.366  0.5285 -0.5690  1.2602
   90SAPS  C316 8801   0.928   3.819   9.372  0.2007 -0.3855 -0.8646
   90SAPS  H16X 8802   0.996   3.827   9.284  0.1525  0.9458 -0.7972
   90SAPS  H16Y 8803   0.880   3.719   9.376  1.4792 -1.0273 -1.0905
   90SAPS  C317 8804   1.013   3.833   9.498  0.5623  0.1734 -0.2284
   90SAPS  H17X 8805   1.047   3.938   9.510 -0.7723  0.5013  1.1358
   90SAPS  H17Y 8806   1.096   3.761   9.490 -0.3783 -1.2228  1.6694
   90SAPS  C318 8807   0.936   3.782   9.623  0.7964  0.0847  0.3729
   90SAPS  H18X 8808   0.982   3.823   9.715 -1.7589  4.3705  0.0025
   90SAPS  H18Y 8809   0.925   3.671   9.618 -1.5506  0.2316  1.0026
   90SAPS  H18Z 8810   0.828   3.809   9.617  1.1242  1.2833 -0.2720
   91SAPS     N 8811   1.896   5.529   6.229 -0.1214 -0.2358 -0.2583
   91SAPS   HN1 8812   1.836   5.455   6.272 -1.4372  0.5489 -0.6938
   91SAPS   HN2 8813   1.988   5.489   6.201  0.2579 -0.5872  1.3480
   91SAPS   HN3 8814   1.910   5.607   6.296 -2.3762 -0.6252  0.7373
   91SAPS   C12 8815   1.841   5.592   6.111 -0.7793  0.3289  0.1839
   91SAPS  H12A 8816   1.923   5.652   6.075 -0.6991  0.8561  1.2156
   91SAPS   C13 8817   1.821   5.482   6.004  1.3002 -0.1082  0.0163
   91SAPS  O13A 8818   1.840   5.362   6.026 -0.1661  0.2760  0.3332
   91SAPS  O13B 8819   1.799   5.524   5.890  0.0839 -0.3239 -0.2766
   91SAPS   C11 8820   1.717   5.683   6.132  0.0713 -0.0866  0.0896
   91SAPS  H11A 8821   1.630   5.618   6.153  0.1396 -0.2676 -0.1745
   91SAPS  H11B 8822   1.698   5.730   6.033  1.3574  1.2961  0.4721
   91SAPS     P 8823   1.641   5.890   6.267 -0.1030 -0.1506 -0.2605
   91SAPS   O13 8824   1.709   6.017   6.284  0.3283 -0.1381 -0.0558
   91SAPS   O14 8825   1.518   5.890   6.177 -0.2396 -0.6430 -0.0191
   91SAPS   O12 8826   1.743   5.773   6.242 -0.0248  0.4403  0.1098
   91SAPS   O11 8827   1.589   5.864   6.411  0.2117  0.2088 -0.7957
   91SAPS    C1 8828   1.491   5.759   6.433 -0.2132 -0.2758  0.0993
   91SAPS    HA 8829   1.440   5.724   6.340  0.8123  1.7259 -1.3000
   91SAPS    HB 8830   1.539   5.671   6.478  0.6168 -1.1795 -2.3689
   91SAPS    C2 8831   1.385   5.802   6.532  0.2279 -0.2845 -0.6110
   91SAPS    HS 8832   1.344   5.896   6.489 -4.6936 -2.7318 -1.9147
   91SAPS   O21 8833   1.464   5.825   6.657 -0.0651 -0.1623  0.3104
   91SAPS   C21 8834   1.411   5.914   6.737  0.0061 -0.2496 -0.1438
   91SAPS   O22 8835   1.316   5.988   6.710  0.0363 -0.3037  0.0281
   91SAPS   C22 8836   1.488   5.910   6.873 -0.3642  0.0445  0.0560
   91SAPS   H2R 8837   1.597   5.896   6.856 -0.0783 -0.7522  2.2647
   91SAPS   H2S 8838   1.485   6.016   6.908  1.6393  0.9583 -2.2335
   91SAPS    C3 8839   1.274   5.701   6.558 -0.3768  0.3777  0.3096
   91SAPS    HX 8840   1.218   5.680   6.464 -0.0085  0.5875  0.0416
   91SAPS    HY 8841   1.194   5.748   6.620  0.4509  1.0507  0.8858
   91SAPS   O31 8842   1.328   5.584   6.618 -0.5172  0.4097 -0.1657
   91SAPS   C31 8843   1.256   5.473   6.612  0.0826  0.8069 -0.6407
   91SAPS   O32 8844   1.143   5.456   6.575 -0.3013 -0.5386  0.1841
   91SAPS   C32 8845   1.362   5.362   6.651 -0.5800 -0.7810 -0.2474
   91SAPS   H2X 8846   1.414   5.397   6.743 -0.8710 -0.6797 -0.1208
   91SAPS   H2Y 8847   1.442   5.360   6.574  1.9207 -0.7545  2.1761
   91SAPS   C23 8848   1.417   5.820   6.979 -0.2189 -0.0225 -0.1347
   91SAPS   H3R 8849   1.389   5.723   6.931  2.1374 -0.3962 -0.9142
   91SAPS   H3S 8850   1.326   5.874   7.013  1.4687  1.7392  1.8440
   91SAPS   C24 8851   1.502   5.791   7.101  0.3627 -1.0461  0.4182
   91SAPS   H4R 8852   1.528   5.888   7.149  1.0372 -2.2689  2.6052
   91SAPS   H4S 8853   1.598   5.739   7.079 -0.4477 -2.6859  0.6040
   91SAPS   C25 8854   1.422   5.702   7.193  0.2016  0.0195  0.0084
   91SAPS   H5R 8855   1.452   5.596   7.183  0.1582  0.0172 -0.1003
   91SAPS   C26 8856   1.325   5.739   7.286  0.0173 -0.4126 -0.8190
   91SAPS   H6R 8857   1.276   5.658   7.341  0.9834 -0.5985 -0.2196
   91SAPS   C27 8858   1.278   5.880   7.311 -0.3678 -0.9915 -0.5598
   91SAPS   H7R 8859   1.172   5.884   7.344  0.6147  1.4454  3.0172
   91SAPS   H7S 8860   1.290   5.943   7.220 -0.7539  0.2090  0.1879
   91SAPS   C28 8861   1.358   5.951   7.418 -0.0400 -0.1740 -0.1370
   91SAPS   H8R 8862   1.422   6.031   7.378 -1.3766  0.8833 -0.2526
   91SAPS   C29 8863   1.369   5.929   7.544  0.0897  0.0947 -0.7357
   91SAPS   H9R 8864   1.450   5.985   7.593  0.1799 -0.5982 -0.0775
   91SAPS  C210 8865   1.294   5.821   7.623  0.8133 -0.4769 -0.0237
   91SAPS  H10R 8866   1.282   5.732   7.557  1.3717  0.8646 -2.0386
   91SAPS  H10S 8867   1.191   5.859   7.641  1.9040  2.6247  0.3212
   91SAPS  C211 8868   1.378   5.794   7.751  0.7156  0.1767  0.2755
   91SAPS  H11R 8869   1.446   5.707   7.742  3.2716  1.8167  2.2309
   91SAPS  C212 8870   1.367   5.859   7.867 -0.0649  0.0469  0.2639
   91SAPS  H12R 8871   1.434   5.836   7.951 -0.8241  0.6673  1.0615
   91SAPS  C213 8872   1.259   5.962   7.897 -0.1513  0.3950 -0.3399
   91SAPS  H13R 8873   1.157   5.918   7.896  0.7150 -1.7431 -0.9410
   91SAPS  H13S 8874   1.256   6.032   7.810  0.2236  0.3513 -0.3889
   91SAPS  C214 8875   1.286   6.048   8.016 -0.6834  0.1427 -0.4731
   91SAPS  H14R 8876   1.212   6.035   8.096 -0.5086 -0.6842 -0.4399
   91SAPS  C215 8877   1.384   6.146   8.025  0.1616  0.4828 -0.2036
   91SAPS  H15R 8878   1.391   6.199   8.122 -0.0023  0.3211 -0.1050
   91SAPS  C216 8879   1.487   6.161   7.913 -0.7222 -0.3245 -0.4314
   91SAPS  H16R 8880   1.496   6.070   7.849 -0.8244  0.6035 -1.7915
   91SAPS  H16S 8881   1.589   6.185   7.949  0.2966 -4.4124 -0.0245
   91SAPS  C217 8882   1.445   6.265   7.803 -0.2546 -0.2463  0.1610
   91SAPS  H17R 8883   1.474   6.366   7.841  3.5990 -1.3905  0.7347
   91SAPS  H17S 8884   1.335   6.260   7.789 -0.3098  1.1514 -0.0148
   91SAPS  C218 8885   1.523   6.264   7.679 -0.4220 -0.0686  0.4456
   91SAPS  H18R 8886   1.539   6.164   7.633  0.3746 -0.6528  1.9277
   91SAPS  H18S 8887   1.625   6.304   7.698 -1.4893  2.8415  0.5123
   91SAPS  C219 8888   1.472   6.345   7.557  1.5511 -0.0022  0.2902
   91SAPS  H19R 8889   1.441   6.450   7.580 -1.6301 -0.9098  0.5404
   91SAPS  H19S 8890   1.382   6.296   7.514  3.2738 -1.0411 -2.4085
   91SAPS  C220 8891   1.571   6.344   7.442 -0.2357 -0.0968 -0.4709
   91SAPS  H20R 8892   1.550   6.392   7.345 -0.0882  1.3823  0.2067
   91SAPS  H20S 8893   1.586   6.238   7.409 -0.2696  0.0103 -0.8370
   91SAPS  H20T 8894   1.670   6.377   7.481 -0.0789 -1.0580 -0.0063
   91SAPS   C33 8895   1.293   5.228   6.669  0.2739  0.1088 -0.5047
   91SAPS   H3X 8896   1.368   5.146   6.671 -0.5348 -0.6479 -0.0519
   91SAPS   H3Y 8897   1.225   5.210   6.583 -0.3878  0.1014  0.0094
   91SAPS   C34 8898   1.211   5.204   6.796 -1.3079 -0.1582  0.0352
   91SAPS   H4X 8899   1.142   5.117   6.790  0.5312 -1.9003  2.3583
   91SAPS   H4Y 8900   1.154   5.294   6.826 -0.5008  0.4460 -0.2026
   91SAPS   C35 8901   1.303   5.174   6.923 -0.4500 -0.4642  0.4641
   91SAPS   H5X 8902   1.254   5.216   7.014 -0.2092  0.9128 -0.0076
   91SAPS   H5Y 8903   1.400   5.228   6.924  1.7240 -4.0596  1.1063
   91SAPS   C36 8904   1.337   5.028   6.944  0.0913 -0.8225  0.3273
   91SAPS   H6X 8905   1.412   5.003   6.867  2.0456 -2.3258  2.5676
   91SAPS   H6Y 8906   1.251   4.960   6.925  0.7370 -1.9856  1.4169
   91SAPS   C37 8907   1.402   5.001   7.081 -0.2595  0.6829 -0.2952
   91SAPS   H7X 8908   1.324   5.010   7.159 -1.2714 -1.4786 -0.9882
   91SAPS   H7Y 8909   1.486   5.072   7.099 -0.4764  0.3483  2.4457
   91SAPS   C38 8910   1.449   4.857   7.082  0.0203 -0.4664 -0.5132
   91SAPS   H8X 8911   1.506   4.844   6.988 -2.0722 -0.4261 -1.8329
   91SAPS   H8Y 8912   1.352   4.807   7.063 -1.6459  2.1797  0.4717
   91SAPS   C39 8913   1.513   4.789   7.206  0.0071  0.0279 -0.3656
   91SAPS   H9X 8914   1.562   4.693   7.182  0.6826  0.3354 -0.2495
   91SAPS   H9Y 8915   1.432   4.762   7.277  0.0320 -1.1498 -0.7694
   91SAPS  C310 8916   1.611   4.893   7.268  0.7510  0.4233 -0.0978
   91SAPS  H10X 8917   1.557   4.970   7.327  0.5958 -1.6862  2.7358
   91SAPS  H10Y 8918   1.675   4.941   7.191 -0.0286 -1.9644 -2.3726
   91SAPS  C311 8919   1.695   4.823   7.384  0.3623  0.5256 -0.2606
   91SAPS  H11X 8920   1.755   4.742   7.339 -1.6139 -1.6301  0.8024
   91SAPS  H11Y 8921   1.620   4.773   7.449  1.7847  0.8809  1.7414
   91SAPS  C312 8922   1.772   4.919   7.469 -0.5822 -0.6018  0.3750
   91SAPS  H12X 8923   1.720   5.012   7.500  0.0940  1.6237 -4.2646
   91SAPS  H12Y 8924   1.855   4.952   7.403 -3.0295 -0.5723 -2.9666
   91SAPS  C313 8925   1.845   4.849   7.583  0.1929  0.4033 -0.0572
   91SAPS  H13X 8926   1.928   4.920   7.602  2.1978 -1.6426 -0.6425
   91SAPS  H13Y 8927   1.884   4.754   7.539  3.2421  2.2518 -1.6910
   91SAPS  C314 8928   1.759   4.813   7.704 -0.2674 -0.1836 -0.7874
   91SAPS  H14X 8929   1.812   4.740   7.769 -0.2775 -1.0325 -1.7074
   91SAPS  H14Y 8930   1.668   4.763   7.664 -0.9886 -0.2999  0.9004
   91SAPS  C315 8931   1.705   4.925   7.795 -0.0278  0.1615  0.0380
   91SAPS  H15X 8932   1.629   4.982   7.736 -0.0473  1.9088  1.6380
   91SAPS  H15Y 8933   1.778   4.999   7.836 -0.8029  0.0186  1.8039
   91SAPS  C316 8934   1.644   4.870   7.921  0.4179  0.0651  0.4078
   91SAPS  H16X 8935   1.570   4.795   7.888 -0.2115  0.5629  0.6710
   91SAPS  H16Y 8936   1.596   4.953   7.977 -0.6511  0.1966 -0.6756
   91SAPS  C317 8937   1.740   4.812   8.023 -0.4679 -0.3765  0.3068
   91SAPS  H17X 8938   1.807   4.890   8.065 -0.5975  1.4216 -2.5690
   91SAPS  H17Y 8939   1.802   4.728   7.984  1.6408  1.2441  0.0436
   91SAPS  C318 8940   1.657   4.752   8.145 -0.4128  0.0717  0.3654
   91SAPS  H18X 8941   1.732   4.724   8.222  0.0166  3.9510  1.6045
   91SAPS  H18Y 8942   1.593   4.666   8.117 -1.1946  0.2167  1.5891
   91SAPS  H18Z 8943   1.604   4.836   8.196  2.1306  1.0724  1.5268
   92SAPS     N 8944   2.917   4.282   6.432 -0.4241 -0.3146 -0.1978
   92SAPS   HN1 8945   2.887   4.191   6.472  0.0264  0.5122  2.1807
   92SAPS   HN2 8946   2.969   4.256   6.346  0.9803 -0.8014  0.7659
   92SAPS   HN3 8947   2.971   4.327   6.508 -0.4545  0.3536 -0.5654
   92SAPS   C12 8948   2.801   4.366   6.388  0.1514  0.0168 -0.0535
   92SAPS  H12A 8949   2.841   4.430   6.311 -1.3703 -1.9777 -2.6975
   92SAPS   C13 8950   2.685   4.298   6.322 -0.7147  0.5613  0.0426
   92SAPS  O13A 8951   2.678   4.173   6.302 -0.7372  0.0251 -0.1028
   92SAPS  O13B 8952   2.585   4.370   6.286 -0.2166 -0.2020 -0.1712
   92SAPS   C11 8953   2.752   4.445   6.510 -0.4415 -0.5770  0.2462
   92SAPS  H11A 8954   2.707   4.382   6.589  2.4472 -0.6417  1.9993
   92SAPS  H11B 8955   2.675   4.515   6.470  1.0344  0.0736 -1.6555
   92SAPS     P 8956   2.832   4.667   6.621  0.2708 -0.5077 -0.2461
   92SAPS   O13 8957   2.912   4.698   6.736 -0.4617  0.4916 -0.2363
   92SAPS   O14 8958   2.847   4.751   6.503 -0.0109 -0.3301  0.4134
   92SAPS   O12 8959   2.859   4.513   6.574 -0.4055  0.0068 -0.4961
   92SAPS   O11 8960   2.673   4.672   6.651  0.5483 -0.6060  0.2072
   92SAPS    C1 8961   2.649   4.642   6.789 -0.1847 -0.2603 -1.0057
   92SAPS    HA 8962   2.684   4.539   6.814  0.0539  0.1981  0.6686
   92SAPS    HB 8963   2.707   4.707   6.857  0.3156 -1.3789 -0.3310
   92SAPS    C2 8964   2.508   4.659   6.832  0.6681 -0.2055  0.2268
   92SAPS    HS 8965   2.451   4.593   6.764 -0.9419  0.7971  0.5658
   92SAPS   O21 8966   2.467   4.800   6.809  0.2533  0.1448  0.2177
   92SAPS   C21 8967   2.338   4.808   6.796  0.3918  0.4340  0.1198
   92SAPS   O22 8968   2.264   4.711   6.806  0.2647 -0.0089 -0.2270
   92SAPS   C22 8969   2.295   4.950   6.792  0.1969  0.3429  0.4296
   92SAPS   H2R 8970   2.378   5.017   6.822  0.0768  0.3560  0.7360
   92SAPS   H2S 8971   2.288   4.974   6.684 -0.3739  0.5322  0.5039
   92SAPS    C3 8972   2.492   4.609   6.979  0.5474 -0.3332 -0.4564
   92SAPS    HX 8973   2.382   4.603   6.996  0.7046 -2.3234  0.1399
   92SAPS    HY 8974   2.529   4.695   7.039  0.6710  0.5016 -1.6972
   92SAPS   O31 8975   2.564   4.489   7.028  0.2827 -0.4065 -0.3222
   92SAPS   C31 8976   2.498   4.375   6.985  0.5227 -0.3098 -0.4205
   92SAPS   O32 8977   2.394   4.380   6.918  0.0155 -0.6812 -0.6075
   92SAPS   C32 8978   2.555   4.245   7.039  0.3495 -0.1930  0.2219
   92SAPS   H2X 8979   2.630   4.215   6.963  0.7917 -0.4424  0.7538
   92SAPS   H2Y 8980   2.465   4.179   7.039 -0.4663  0.7939 -1.9796
   92SAPS   C23 8981   2.164   4.991   6.867  0.1435 -0.3324 -0.0876
   92SAPS   H3R 8982   2.091   4.933   6.807  0.8049 -0.4021 -0.8296
   92SAPS   H3S 8983   2.149   5.100   6.848  2.5146 -0.0798 -0.8679
   92SAPS   C24 8984   2.160   4.952   7.016 -0.5817 -0.0921  0.3740
   92SAPS   H4R 8985   2.220   5.032   7.065 -0.7790  0.0612  0.3640
   92SAPS   H4S 8986   2.208   4.853   7.029  0.4975  0.3482 -0.0998
   92SAPS   C25 8987   2.028   4.949   7.074 -0.0639  0.0001 -0.4161
   92SAPS   H5R 8988   1.947   4.993   7.014  0.4882 -0.6262 -1.6690
   92SAPS   C26 8989   1.998   4.869   7.185 -0.5182  0.0234  0.2198
   92SAPS   H6R 8990   1.894   4.854   7.217 -0.3781 -3.1567 -0.5302
   92SAPS   C27 8991   2.102   4.782   7.264  0.0267 -0.1931  0.2262
   92SAPS   H7R 8992   2.037   4.762   7.352 -0.8769 -0.2481 -0.4372
   92SAPS   H7S 8993   2.188   4.839   7.305  3.1720 -2.5518 -2.5523
   92SAPS   C28 8994   2.156   4.656   7.196  0.2457  0.2261  0.5061
   92SAPS   H8R 8995   2.166   4.667   7.087  1.7627  1.3198  0.7265
   92SAPS   C29 8996   2.194   4.544   7.258 -0.4380 -0.2385  0.5037
   92SAPS   H9R 8997   2.211   4.453   7.199 -1.9831 -0.7050  0.7368
   92SAPS  C210 8998   2.192   4.508   7.404  0.0241  0.1264 -0.3703
   92SAPS  H10R 8999   2.138   4.411   7.400 -0.1882  0.2164 -4.9689
   92SAPS  H10S 9000   2.131   4.577   7.465 -1.4388 -1.2015 -0.2582
   92SAPS  C211 9001   2.340   4.495   7.450  0.3433  0.1975 -0.2264
   92SAPS  H11R 9002   2.410   4.450   7.379 -0.4888 -1.3391 -0.1112
   92SAPS  C212 9003   2.374   4.510   7.579 -0.9498  0.0445 -0.3579
   92SAPS  H12R 9004   2.477   4.494   7.613 -1.4883  0.1471  1.4694
   92SAPS  C213 9005   2.280   4.553   7.692  0.5299 -0.1766 -0.3949
   92SAPS  H13R 9006   2.221   4.460   7.706 -2.2787  1.6564  0.6184
   92SAPS  H13S 9007   2.193   4.610   7.652  1.4283  0.8508 -0.9440
   92SAPS  C214 9008   2.337   4.607   7.823 -0.1828 -0.4947 -0.1539
   92SAPS  H14R 9009   2.398   4.526   7.866 -1.5381 -2.8549 -2.3552
   92SAPS  C215 9010   2.290   4.715   7.892  0.2295  0.4774 -0.2897
   92SAPS  H15R 9011   2.346   4.751   7.980 -1.6210  1.3432  0.5826
   92SAPS  C216 9012   2.170   4.802   7.857  0.4782 -0.1876  0.5198
   92SAPS  H16R 9013   2.111   4.784   7.764 -2.4317  1.1690  1.9636
   92SAPS  H16S 9014   2.195   4.909   7.840 -1.8293  0.3544  0.2472
   92SAPS  C217 9015   2.063   4.796   7.969 -0.7052 -0.1213 -1.0173
   92SAPS  H17R 9016   2.020   4.695   7.948  0.6919 -1.0356  0.2474
   92SAPS  H17S 9017   1.991   4.876   7.942 -1.0302 -0.6835 -1.8601
   92SAPS  C218 9018   2.109   4.812   8.118 -0.2570  0.2950 -0.1535
   92SAPS  H18R 9019   2.153   4.715   8.150 -1.2609 -0.0145  0.3274
   92SAPS  H18S 9020   2.026   4.820   8.191 -0.1634  0.1471 -0.0292
   92SAPS  C219 9021   2.198   4.938   8.146  0.2247 -0.2358  0.2885
   92SAPS  H19R 9022   2.132   5.027   8.153 -0.4524 -0.7436  0.5074
   92SAPS  H19S 9023   2.268   4.940   8.060  1.1982 -2.9397  0.9025
   92SAPS  C220 9024   2.276   4.933   8.279 -0.2352 -0.1366 -0.0861
   92SAPS  H20R 9025   2.208   4.970   8.358 -1.6347 -0.7660 -0.9660
   92SAPS  H20S 9026   2.370   4.991   8.266  1.6822 -3.1406 -0.6372
   92SAPS  H20T 9027   2.302   4.826   8.293 -3.9005 -1.4435 -1.9558
   92SAPS   C33 9028   2.618   4.241   7.181  0.0875 -0.5225  0.4343
   92SAPS   H3X 9029   2.531   4.259   7.247 -1.7478  0.3236 -2.0396
   92SAPS   H3Y 9030   2.699   4.317   7.188 -1.2289  0.9250  0.7039
   92SAPS   C34 9031   2.687   4.103   7.204 -0.3759 -0.6702 -0.3843
   92SAPS   H4X 9032   2.743   4.091   7.109 -0.4444 -0.6476 -0.4275
   92SAPS   H4Y 9033   2.606   4.028   7.197  0.6950 -1.9850  0.7921
   92SAPS   C35 9034   2.776   4.089   7.329  1.0689  0.2916  0.0019
   92SAPS   H5X 9035   2.716   4.109   7.420 -0.3047  1.1151 -1.0470
   92SAPS   H5Y 9036   2.863   4.158   7.321  0.4035  0.9239 -2.4640
   92SAPS   C36 9037   2.837   3.951   7.342 -0.0475  0.8378 -0.1730
   92SAPS   H6X 9038   2.879   3.943   7.240 -1.4972  3.8058 -1.1103
   92SAPS   H6Y 9039   2.761   3.870   7.346 -0.5327  1.2607 -0.7443
   92SAPS   C37 9040   2.940   3.936   7.453  0.4086  0.3923 -0.3036
   92SAPS   H7X 9041   3.023   4.008   7.436  1.2183 -0.8847 -2.1164
   92SAPS   H7Y 9042   2.993   3.838   7.446 -1.0406 -0.4956  0.6734
   92SAPS   C38 9043   2.883   3.957   7.592 -0.2107  0.0419 -0.7431
   92SAPS   H8X 9044   2.813   3.876   7.622 -1.0685  0.7841 -0.6865
   92SAPS   H8Y 9045   2.820   4.047   7.578 -0.0255  0.4376  0.8242
   92SAPS   C39 9046   2.978   3.993   7.708 -0.1074  0.0480  0.0663
   92SAPS   H9X 9047   3.034   4.089   7.703  0.5729 -0.2543  1.3558
   92SAPS   H9Y 9048   3.045   3.905   7.717 -1.3502 -0.7718  1.9005
   92SAPS  C310 9049   2.899   4.012   7.835 -0.3416  0.7300  0.1117
   92SAPS  H10X 9050   2.832   3.927   7.862 -0.1397  0.9862  1.4743
   92SAPS  H10Y 9051   2.827   4.095   7.815  0.1870  1.1119 -0.2328
   92SAPS  C311 9052   3.004   4.046   7.942 -0.1369  0.3934 -0.1656
   92SAPS  H11X 9053   3.069   4.130   7.910 -1.8267  1.6576 -0.4484
   92SAPS  H11Y 9054   3.077   3.963   7.949  0.5668  1.0766  0.8071
   92SAPS  C312 9055   2.938   4.073   8.082  0.0569 -0.0968 -0.5781
   92SAPS  H12X 9056   2.874   3.985   8.104 -0.6552  0.6925  0.6013
   92SAPS  H12Y 9057   2.864   4.150   8.052 -0.8239 -1.1144 -1.1248
   92SAPS  C313 9058   3.034   4.135   8.188 -0.1103  0.2712  0.0677
   92SAPS  H13X 9059   3.063   4.235   8.149  2.4998 -0.0823  0.8551
   92SAPS  H13Y 9060   3.123   4.070   8.208 -0.8729 -0.8541 -0.1011
   92SAPS  C314 9061   2.958   4.179   8.319 -0.4954 -0.2848  0.1121
   92SAPS  H14X 9062   2.862   4.225   8.284 -1.5220 -1.7291  0.9339
   92SAPS  H14Y 9063   3.020   4.251   8.377  0.4885 -1.7358  0.9051
   92SAPS  C315 9064   2.923   4.055   8.406  0.6143 -0.0443  0.7386
   92SAPS  H15X 9065   3.014   4.021   8.461  0.7017  0.4619  0.9137
   92SAPS  H15Y 9066   2.875   3.972   8.351 -0.8377  0.4607  1.1941
   92SAPS  C316 9067   2.809   4.087   8.511  0.0802  0.1684 -0.8197
   92SAPS  H16X 9068   2.852   4.175   8.564  0.0522 -0.8718  1.0189
   92SAPS  H16Y 9069   2.790   4.001   8.578 -0.3156 -0.1873 -1.3771
   92SAPS  C317 9070   2.673   4.115   8.441  0.6494 -0.2942  0.0462
   92SAPS  H17X 9071   2.672   4.178   8.349  2.2949 -1.7298 -1.0347
   92SAPS  H17Y 9072   2.613   4.172   8.515  0.4083 -1.0017  0.4090
   92SAPS  C318 9073   2.597   3.984   8.425 -0.1914 -0.1147  0.7170
   92SAPS  H18X 9074   2.669   3.908   8.388 -0.8064  0.2134 -1.2538
   92SAPS  H18Y 9075   2.509   4.003   8.360  0.8234 -1.8877 -1.2859
   92SAPS  H18Z 9076   2.557   3.968   8.528 -2.7760  0.5855 -0.0969
   93SAPS     N 9077   2.658   3.067   6.076 -0.2245 -0.2800 -0.3745
   93SAPS   HN1 9078   2.586   3.011   6.125  2.1113 -1.4758  1.9278
   93SAPS   HN2 9079   2.712   3.022   6.000 -0.0154  1.4470 -1.3064
   93SAPS   HN3 9080   2.730   3.094   6.146 -2.3953  2.9818  0.8300
   93SAPS   C12 9081   2.598   3.190   6.025 -0.3012  0.3124 -0.0581
   93SAPS  H12A 9082   2.681   3.236   5.974 -1.4650  0.4699 -1.9356
   93SAPS   C13 9083   2.482   3.172   5.927  0.6047  0.2831  0.1202
   93SAPS  O13A 9084   2.455   3.056   5.877  0.4223 -0.7371  0.3223
   93SAPS  O13B 9085   2.409   3.273   5.899 -0.1978  0.8860 -0.1448
   93SAPS   C11 9086   2.546   3.265   6.144 -0.1501  0.1505  0.9176
   93SAPS  H11A 9087   2.507   3.363   6.107  2.7455  0.5299 -1.5178
   93SAPS  H11B 9088   2.625   3.294   6.216  0.8285  0.3163 -0.1916
   93SAPS     P 9089   2.320   3.224   6.289 -0.1640 -0.0467  0.0140
   93SAPS   O13 9090   2.286   3.366   6.267 -0.2058  0.3120  0.8306
   93SAPS   O14 9091   2.211   3.126   6.263 -0.2084  0.2434  0.8329
   93SAPS   O12 9092   2.454   3.180   6.209  0.3777 -0.1232 -0.0367
   93SAPS   O11 9093   2.363   3.231   6.437 -0.1192  0.9331  0.1084
   93SAPS    C1 9094   2.402   3.120   6.515  0.0570  0.3909 -0.0653
   93SAPS    HA 9095   2.316   3.069   6.564  0.9231 -0.5918  0.4816
   93SAPS    HB 9096   2.451   3.040   6.456  1.0033 -0.9185  2.3385
   93SAPS    C2 9097   2.499   3.160   6.633  0.0823 -0.4218  0.1703
   93SAPS    HS 9098   2.528   3.068   6.689 -2.7397  0.2074  2.9961
   93SAPS   O21 9099   2.429   3.251   6.718 -1.1081  0.2061 -0.1537
   93SAPS   C21 9100   2.338   3.200   6.794 -0.3179  0.1122 -0.6540
   93SAPS   O22 9101   2.320   3.081   6.810 -0.1881  0.1161  0.9990
   93SAPS   C22 9102   2.253   3.306   6.864 -0.7194  0.3713  0.5193
   93SAPS   H2R 9103   2.296   3.402   6.828  3.7673 -1.5228  0.1000
   93SAPS   H2S 9104   2.148   3.306   6.829 -0.7941  1.0120  0.7329
   93SAPS    C3 9105   2.621   3.232   6.573 -0.1091  0.0983 -0.4236
   93SAPS    HX 9106   2.585   3.326   6.525  0.4422  1.6576  2.0205
   93SAPS    HY 9107   2.674   3.181   6.490  2.1365  1.7520 -0.0943
   93SAPS   O31 9108   2.722   3.273   6.675  0.3549 -0.3536 -0.7762
   93SAPS   C31 9109   2.796   3.175   6.721 -0.3273  0.1410  0.7446
   93SAPS   O32 9110   2.798   3.064   6.675  0.4641 -0.1327 -0.0666
   93SAPS   C32 9111   2.887   3.232   6.835 -0.7417  0.0294 -0.0580
   93SAPS   H2X 9112   2.855   3.329   6.877  0.2345 -0.7994  2.8410
   93SAPS   H2Y 9113   2.979   3.255   6.777 -1.0315 -0.9021 -0.9344
   93SAPS   C23 9114   2.277   3.299   7.016  0.0866  0.1154  0.5084
   93SAPS   H3R 9115   2.385   3.281   7.037  0.0828 -0.1003  0.3317
   93SAPS   H3S 9116   2.233   3.205   7.054 -1.7239  0.1800 -1.2713
   93SAPS   C24 9117   2.233   3.425   7.097 -0.6079  0.3375 -0.1548
   93SAPS   H4R 9118   2.123   3.439   7.092 -0.2086  4.0604 -1.6333
   93SAPS   H4S 9119   2.280   3.511   7.045 -0.9627  1.6126  1.5334
   93SAPS   C25 9120   2.288   3.428   7.238  0.2280 -1.0007 -0.6249
   93SAPS   H5R 9121   2.397   3.437   7.249  0.1579 -1.8974  1.3303
   93SAPS   C26 9122   2.218   3.425   7.353  0.3835 -0.3454  0.3216
   93SAPS   H6R 9123   2.273   3.432   7.448  0.1122 -0.0309  0.4549
   93SAPS   C27 9124   2.071   3.404   7.376 -0.1345  0.3313 -0.1180
   93SAPS   H7R 9125   2.015   3.420   7.282  1.5652  2.2166 -0.8962
   93SAPS   H7S 9126   2.041   3.486   7.445  1.5560 -0.7232  1.9950
   93SAPS   C28 9127   2.029   3.270   7.427  0.0580 -0.2917 -0.3176
   93SAPS   H8R 9128   2.005   3.194   7.351  0.2511  2.8985 -3.8879
   93SAPS   C29 9129   2.020   3.235   7.561 -0.5604 -1.0621  1.0606
   93SAPS   H9R 9130   1.999   3.129   7.584 -0.7998 -0.9701  1.2686
   93SAPS  C210 9131   2.043   3.314   7.687 -0.0024 -0.4977  0.0884
   93SAPS  H10R 9132   2.151   3.339   7.691  0.0276 -0.7678  2.1775
   93SAPS  H10S 9133   2.030   3.246   7.774  2.0731  0.5633  1.3024
   93SAPS  C211 9134   1.969   3.438   7.704  0.0910 -0.3029  0.7704
   93SAPS  H11R 9135   1.933   3.482   7.610  0.7055 -0.1441  0.6014
   93SAPS  C212 9136   1.947   3.495   7.821  0.0093  0.3385 -0.1936
   93SAPS  H12R 9137   1.891   3.590   7.824 -3.3326 -1.5071  1.4528
   93SAPS  C213 9138   1.986   3.459   7.955 -0.2977 -0.1769 -0.1676
   93SAPS  H13R 9139   2.005   3.553   8.011 -0.7293 -0.3418  0.2658
   93SAPS  H13S 9140   2.083   3.405   7.950 -0.8497 -1.2152  0.0037
   93SAPS  C214 9141   1.884   3.378   8.028  0.4943  1.1268  0.2074
   93SAPS  H14R 9142   1.876   3.277   7.984 -1.4487  2.5489 -3.0153
   93SAPS  C215 9143   1.815   3.407   8.139 -0.6610  0.1163 -0.1877
   93SAPS  H15R 9144   1.760   3.324   8.186  0.1443  0.2805  1.0963
   93SAPS  C216 9145   1.831   3.535   8.216  0.7159  0.3398 -0.0060
   93SAPS  H16R 9146   1.742   3.600   8.201  0.7930  0.1250 -1.4866
   93SAPS  H16S 9147   1.914   3.601   8.185  2.0136 -1.4550 -0.5082
   93SAPS  C217 9148   1.852   3.520   8.374  0.8778  0.2405 -0.2628
   93SAPS  H17R 9149   1.782   3.448   8.421 -0.0916  1.5885  0.4359
   93SAPS  H17S 9150   1.822   3.616   8.422 -3.3258 -1.5925  1.3253
   93SAPS  C218 9151   1.989   3.477   8.412 -0.1668  0.0218  0.5123
   93SAPS  H18R 9152   2.070   3.521   8.350 -0.0738 -0.4172  0.3220
   93SAPS  H18S 9153   1.995   3.370   8.385 -0.0257  0.2012 -0.1702
   93SAPS  C219 9154   2.025   3.495   8.557 -0.0198 -1.0242 -0.3135
   93SAPS  H19R 9155   1.941   3.449   8.613  0.7885 -0.5770  1.3004
   93SAPS  H19S 9156   2.014   3.601   8.585  2.6800 -0.6293 -0.4834
   93SAPS  C220 9157   2.148   3.442   8.619 -0.2021  0.2192 -0.1474
   93SAPS  H20R 9158   2.167   3.335   8.595  0.4942  0.5384 -1.0688
   93SAPS  H20S 9159   2.142   3.460   8.729 -0.1537 -0.6443  0.0073
   93SAPS  H20T 9160   2.239   3.490   8.580  1.6795 -2.3158  0.8167
   93SAPS   C33 9161   2.917   3.130   6.947 -0.1057 -0.4284  0.1279
   93SAPS   H3X 9162   2.941   3.030   6.903 -1.9612 -0.3377 -1.2274
   93SAPS   H3Y 9163   2.830   3.122   7.015 -1.2765  0.2253 -1.2427
   93SAPS   C34 9164   3.025   3.196   7.033  0.5734  0.4171  0.1593
   93SAPS   H4X 9165   2.995   3.297   7.068  0.0792  0.3802 -0.1569
   93SAPS   H4Y 9166   3.118   3.208   6.974  0.0008 -1.9335 -1.3213
   93SAPS   C35 9167   3.046   3.105   7.150 -0.3216  0.2500 -0.3519
   93SAPS   H5X 9168   3.089   3.006   7.122 -0.8453 -0.5047  1.4005
   93SAPS   H5Y 9169   2.948   3.077   7.193  0.3339  0.5524  1.4081
   93SAPS   C36 9170   3.131   3.177   7.264 -0.4415  0.8402 -0.2575
   93SAPS   H6X 9171   3.080   3.273   7.283  1.6469  2.3421 -1.8402
   93SAPS   H6Y 9172   3.232   3.207   7.227  0.5404 -2.0141 -0.1482
   93SAPS   C37 9173   3.148   3.111   7.400  0.3389  0.2830 -0.6438
   93SAPS   H7X 9174   3.221   3.176   7.452  0.1992  0.4923 -0.7082
   93SAPS   H7Y 9175   3.203   3.015   7.395 -2.0546 -1.3192  1.2388
   93SAPS   C38 9176   3.023   3.106   7.485  0.0705  0.4418  0.1783
   93SAPS   H8X 9177   2.958   3.019   7.461  0.8817 -0.2115  0.3275
   93SAPS   H8Y 9178   2.963   3.196   7.460 -0.6531 -0.0493  0.1143
   93SAPS   C39 9179   3.063   3.093   7.638 -0.1404 -0.3829  0.6746
   93SAPS   H9X 9180   3.118   3.188   7.658 -2.9045  1.4490  0.0746
   93SAPS   H9Y 9181   3.143   3.015   7.636  0.2932 -0.0814 -3.7014
   93SAPS  C310 9182   2.950   3.066   7.727  0.2315 -0.3389 -0.6144
   93SAPS  H10X 9183   2.914   2.962   7.711 -0.8142 -0.1842  0.6126
   93SAPS  H10Y 9184   2.873   3.137   7.690 -0.3557 -0.2809  0.6493
   93SAPS  C311 9185   2.981   3.088   7.874  0.4281 -0.3371  0.3560
   93SAPS  H11X 9186   3.013   3.195   7.866  1.2277 -0.6272 -0.6087
   93SAPS  H11Y 9187   3.069   3.033   7.914  0.0409 -0.6244  0.8178
   93SAPS  C312 9188   2.849   3.075   7.956 -0.0667  0.0816 -0.1126
   93SAPS  H12X 9189   2.834   2.976   8.003  1.3171 -0.1638 -0.1533
   93SAPS  H12Y 9190   2.767   3.100   7.885 -1.2503  1.6287  1.7067
   93SAPS  C313 9191   2.853   3.178   8.075 -0.7649  0.1315  0.3491
   93SAPS  H13X 9192   2.747   3.206   8.093 -1.3768 -0.4487 -1.9944
   93SAPS  H13Y 9193   2.901   3.270   8.037  1.4812 -0.2371  2.0965
   93SAPS  C314 9194   2.927   3.124   8.204  0.0340 -0.4551  0.4253
   93SAPS  H14X 9195   3.020   3.081   8.162  0.7072  0.8807  0.4721
   93SAPS  H14Y 9196   2.862   3.041   8.238  1.2103 -0.7264  2.1065
   93SAPS  C315 9197   2.952   3.212   8.324  0.2164 -0.0380  0.2223
   93SAPS  H15X 9198   2.857   3.257   8.363  0.9423  0.9129  0.9409
   93SAPS  H15Y 9199   3.002   3.307   8.295  0.9230  0.0781  1.7237
   93SAPS  C316 9200   3.030   3.149   8.436 -0.4796 -0.4096 -0.2543
   93SAPS  H16X 9201   3.113   3.093   8.388  2.2157  1.1894  2.1815
   93SAPS  H16Y 9202   2.971   3.076   8.496  0.7467 -2.0183 -0.9525
   93SAPS  C317 9203   3.096   3.253   8.536 -0.2381  0.0553  0.3795
   93SAPS  H17X 9204   3.011   3.313   8.573 -2.7137 -4.3671  2.7279
   93SAPS  H17Y 9205   3.169   3.310   8.474 -1.6997  0.9482 -0.5837
   93SAPS  C318 9206   3.164   3.189   8.655 -0.1880 -0.0120  0.6439
   93SAPS  H18X 9207   3.090   3.127   8.710 -1.2696 -0.4128 -1.1873
   93SAPS  H18Y 9208   3.208   3.270   8.717  1.1928  0.0950 -0.4334
   93SAPS  H18Z 9209   3.251   3.124   8.629  2.2252  2.8748  0.9336
   94SAPS     N 9210   0.466   1.686   5.852  0.0081 -0.4768  0.3851
   94SAPS   HN1 9211   0.391   1.682   5.780 -1.9412 -0.6002  2.3290
   94SAPS   HN2 9212   0.457   1.610   5.923 -2.1144  1.0348  1.8758
   94SAPS   HN3 9213   0.461   1.777   5.902 -1.3217 -1.0263  1.3122
   94SAPS   C12 9214   0.599   1.678   5.787  0.4365  0.3246 -0.1577
   94SAPS  H12A 9215   0.664   1.640   5.864 -1.5866  2.9329  3.1055
   94SAPS   C13 9216   0.607   1.583   5.663 -0.1823 -0.3943  0.3143
   94SAPS  O13A 9217   0.510   1.512   5.632 -0.4435 -0.2234 -0.1615
   94SAPS  O13B 9218   0.711   1.574   5.605 -0.1823  0.1723 -0.6895
   94SAPS   C11 9219   0.641   1.817   5.748 -0.7708  0.2541 -0.5809
   94SAPS  H11A 9220   0.552   1.875   5.718 -1.3735  0.1865  0.9606
   94SAPS  H11B 9221   0.706   1.815   5.658 -0.8611 -0.9588 -0.6431
   94SAPS     P 9222   0.862   1.889   5.882 -0.0376 -0.1958  0.0817
   94SAPS   O13 9223   0.926   1.774   5.819 -0.2666 -0.1255 -0.3857
   94SAPS   O14 9224   0.918   2.020   5.837 -0.1142  0.2854 -0.1642
   94SAPS   O12 9225   0.706   1.882   5.856  0.3757 -0.5494  0.4193
   94SAPS   O11 9226   0.875   1.870   6.040 -0.2822 -0.2999  0.1553
   94SAPS    C1 9227   0.915   1.983   6.116 -0.0232 -0.5300 -0.1070
   94SAPS    HA 9228   1.025   1.992   6.105 -0.1138 -0.4394 -0.9903
   94SAPS    HB 9229   0.868   2.079   6.087  2.1169 -0.1730 -2.8030
   94SAPS    C2 9230   0.891   1.967   6.273  0.4824  0.0404 -0.0152
   94SAPS    HS 9231   0.926   2.065   6.311  0.7103  1.7374 -4.0876
   94SAPS   O21 9232   0.957   1.845   6.320  0.3393 -0.1514 -0.0517
   94SAPS   C21 9233   0.988   1.862   6.450 -0.7248 -0.4394  0.1369
   94SAPS   O22 9234   0.965   1.955   6.521  0.6194  0.2878  0.3914
   94SAPS   C22 9235   1.079   1.756   6.489  0.6313  0.8390 -0.6879
   94SAPS   H2R 9236   1.113   1.688   6.408 -0.2316 -2.7067  1.7173
   94SAPS   H2S 9237   1.170   1.798   6.536 -0.1663  1.2303  0.5695
   94SAPS    C3 9238   0.734   1.957   6.299  0.4926  0.5251 -0.7106
   94SAPS    HX 9239   0.700   1.879   6.228  1.8107  0.1765 -0.9901
   94SAPS    HY 9240   0.688   2.054   6.270 -0.2980 -0.0929 -1.5694
   94SAPS   O31 9241   0.699   1.919   6.434  0.4570  0.4345  0.1874
   94SAPS   C31 9242   0.677   2.026   6.518 -0.1081 -0.2475 -0.6907
   94SAPS   O32 9243   0.696   2.142   6.489 -0.7300 -0.4325 -0.3532
   94SAPS   C32 9244   0.650   1.969   6.658 -0.5387  0.6662  0.5239
   94SAPS   H2X 9245   0.643   2.056   6.727  0.0654  1.8717 -0.8856
   94SAPS   H2Y 9246   0.743   1.915   6.686 -1.3574 -1.3728 -0.5204
   94SAPS   C23 9247   1.017   1.653   6.603  0.2604 -0.8336  0.4999
   94SAPS   H3R 9248   1.094   1.573   6.604  0.2934 -0.8921 -1.8110
   94SAPS   H3S 9249   0.916   1.622   6.571 -0.3554  1.3871  0.1332
   94SAPS   C24 9250   1.010   1.721   6.740  0.4144 -0.3961 -0.0455
   94SAPS   H4R 9251   0.943   1.809   6.746 -0.4116 -1.0381  0.3450
   94SAPS   H4S 9252   1.110   1.753   6.777  0.2134 -0.2158  0.3457
   94SAPS   C25 9253   0.950   1.617   6.836 -0.6175  0.1336 -0.2350
   94SAPS   H5R 9254   0.924   1.524   6.785 -0.3161 -0.3752  0.5298
   94SAPS   C26 9255   0.923   1.643   6.968  0.4949  0.3385 -0.1755
   94SAPS   H6R 9256   0.884   1.566   7.036 -0.1420  1.5532  0.8933
   94SAPS   C27 9257   0.964   1.775   7.035 -0.3719 -0.3372  0.0703
   94SAPS   H7R 9258   0.999   1.855   6.966 -1.1372 -0.3636 -0.3587
   94SAPS   H7S 9259   1.062   1.761   7.086  0.5957  1.2555 -1.2204
   94SAPS   C28 9260   0.846   1.818   7.116 -0.2491  0.1245 -0.9612
   94SAPS   H8R 9261   0.756   1.844   7.059 -0.2136  2.1690 -0.1665
   94SAPS   C29 9262   0.848   1.853   7.249 -0.3920 -0.0979  0.2261
   94SAPS   H9R 9263   0.747   1.872   7.289 -1.2054  0.8593 -2.0890
   94SAPS  C210 9264   0.968   1.861   7.344  0.1552  0.3369  0.2957
   94SAPS  H10R 9265   0.987   1.969   7.361  0.2172  0.5370 -0.9664
   94SAPS  H10S 9266   1.055   1.814   7.294  0.8116 -0.9243  2.4881
   94SAPS  C211 9267   0.938   1.777   7.467 -0.1788 -0.1757  0.2790
   94SAPS  H11R 9268   0.945   1.667   7.458 -1.7928 -0.1962 -1.3280
   94SAPS  C212 9269   0.916   1.829   7.595 -0.1634  0.4867  0.1149
   94SAPS  H12R 9270   0.910   1.760   7.681  0.8847 -1.1426 -1.0459
   94SAPS  C213 9271   0.907   1.976   7.622  1.2105  0.0810  0.2161
   94SAPS  H13R 9272   0.981   2.032   7.560  1.0756  1.3181  1.1429
   94SAPS  H13S 9273   0.947   1.997   7.724  0.9000 -1.2448  0.6339
   94SAPS  C214 9274   0.773   2.037   7.600 -0.1502 -0.2878 -0.0795
   94SAPS  H14R 9275   0.727   1.994   7.510 -1.5903  1.4435 -0.2546
   94SAPS  C215 9276   0.708   2.139   7.661  0.3584  0.2277 -1.0762
   94SAPS  H15R 9277   0.600   2.151   7.639 -0.2012 -1.6280  0.4162
   94SAPS  C216 9278   0.746   2.220   7.780  0.7545  0.1233 -0.8810
   94SAPS  H16R 9279   0.721   2.327   7.764 -0.9193 -0.3841 -1.9334
   94SAPS  H16S 9280   0.854   2.208   7.802  0.2906 -2.5116  0.2667
   94SAPS  C217 9281   0.672   2.191   7.916 -0.6443 -0.5102 -0.4264
   94SAPS  H17R 9282   0.706   2.086   7.928  2.4839  0.4063 -0.4394
   94SAPS  H17S 9283   0.561   2.187   7.914 -0.6406 -0.7544 -0.2476
   94SAPS  C218 9284   0.729   2.279   8.025  0.0682 -0.5944 -0.0798
   94SAPS  H18R 9285   0.703   2.386   8.019 -1.8899 -1.0804 -1.1994
   94SAPS  H18S 9286   0.839   2.266   8.030  0.2229 -1.7084 -3.7765
   94SAPS  C219 9287   0.661   2.234   8.159 -0.2258  0.9080  0.2396
   94SAPS  H19R 9288   0.687   2.131   8.189  1.3678  1.0997 -0.3917
   94SAPS  H19S 9289   0.551   2.231   8.141 -0.0737  0.1777 -0.6110
   94SAPS  C220 9290   0.692   2.322   8.282  0.0785  0.2914  0.4521
   94SAPS  H20R 9291   0.631   2.415   8.270 -1.3293 -0.5785  0.5795
   94SAPS  H20S 9292   0.797   2.358   8.276  0.5976 -1.3491 -2.1852
   94SAPS  H20T 9293   0.670   2.276   8.380  1.0651 -2.7053 -0.6316
   94SAPS   C33 9294   0.529   1.870   6.649  0.5313 -0.2763 -0.0734
   94SAPS   H3X 9295   0.534   1.784   6.579 -1.2089 -0.2419 -0.2816
   94SAPS   H3Y 9296   0.444   1.935   6.619  0.7199  0.5530  1.1151
   94SAPS   C34 9297   0.501   1.801   6.778 -0.0185 -0.4192  0.2877
   94SAPS   H4X 9298   0.602   1.773   6.817  0.4278 -0.0076 -0.5376
   94SAPS   H4Y 9299   0.447   1.705   6.760 -0.7866  0.0838 -0.1103
   94SAPS   C35 9300   0.428   1.879   6.883  0.1718 -0.4895  0.6958
   94SAPS   H5X 9301   0.329   1.921   6.858  1.7798  1.7083 -2.6380
   94SAPS   H5Y 9302   0.497   1.961   6.913 -2.6785  1.4533  2.4378
   94SAPS   C36 9303   0.394   1.791   6.999 -0.1772 -0.5024 -0.0962
   94SAPS   H6X 9304   0.491   1.746   7.026  0.7942  1.5058 -0.0334
   94SAPS   H6Y 9305   0.312   1.725   6.963 -1.1932 -0.1289  1.4197
   94SAPS   C37 9306   0.347   1.874   7.124  0.4578  0.6382  0.1878
   94SAPS   H7X 9307   0.250   1.924   7.104  0.4398  0.5795  0.1279
   94SAPS   H7Y 9308   0.420   1.957   7.137  2.0810 -0.5962 -0.7420
   94SAPS   C38 9309   0.341   1.789   7.252 -0.1090 -0.0552  0.2954
   94SAPS   H8X 9310   0.442   1.747   7.269  1.5958  2.2760 -3.0444
   94SAPS   H8Y 9311   0.258   1.715   7.246  0.6575 -0.8901 -0.4197
   94SAPS   C39 9312   0.316   1.892   7.365  0.4749  0.2732  0.0286
   94SAPS   H9X 9313   0.241   1.969   7.337 -0.3152 -1.0712 -1.7990
   94SAPS   H9Y 9314   0.413   1.944   7.377 -0.0741  1.5588 -0.8469
   94SAPS  C310 9315   0.275   1.832   7.500 -0.3119 -0.6652  0.1173
   94SAPS  H10X 9316   0.340   1.744   7.516 -0.8736 -1.1962 -0.4880
   94SAPS  H10Y 9317   0.170   1.795   7.503 -0.5176 -0.1654 -0.5333
   94SAPS  C311 9318   0.300   1.944   7.613  0.2670  0.0617  0.3225
   94SAPS  H11X 9319   0.224   2.023   7.595 -0.9916 -1.2526 -0.4008
   94SAPS  H11Y 9320   0.405   1.979   7.598  0.2847 -0.4050 -0.7984
   94SAPS  C312 9321   0.290   1.884   7.749  0.5089 -0.5273 -0.1667
   94SAPS  H12X 9322   0.325   1.779   7.744  1.0162 -0.5064  1.8862
   94SAPS  H12Y 9323   0.182   1.868   7.769  1.0847 -2.6575  1.6370
   94SAPS  C313 9324   0.363   1.946   7.872 -0.3933  0.0860  0.1382
   94SAPS  H13X 9325   0.327   2.048   7.897  0.2823  1.1184 -2.7411
   94SAPS  H13Y 9326   0.470   1.951   7.842 -0.3994 -1.3271 -0.1839
   94SAPS  C314 9327   0.360   1.854   7.996 -0.1828  0.3347 -0.7702
   94SAPS  H14X 9328   0.410   1.756   7.981 -1.0571 -0.4513  1.0603
   94SAPS  H14Y 9329   0.257   1.819   8.018 -0.3408 -1.1423 -3.4341
   94SAPS  C315 9330   0.413   1.915   8.125  0.7439  0.7488  0.2364
   94SAPS  H15X 9331   0.370   2.013   8.155 -0.0192  0.2390  0.8530
   94SAPS  H15Y 9332   0.523   1.930   8.116  1.3239 -3.1969 -1.5651
   94SAPS  C316 9333   0.406   1.828   8.252 -0.0916 -0.1302  0.4634
   94SAPS  H16X 9334   0.474   1.867   8.331  1.0473  0.1746 -0.6260
   94SAPS  H16Y 9335   0.424   1.720   8.233 -0.3623  0.0895 -1.2071
   94SAPS  C317 9336   0.264   1.817   8.312  0.6254  0.1147  0.2002
   94SAPS  H17X 9337   0.195   1.766   8.241  2.1379 -3.6922  1.2115
   94SAPS  H17Y 9338   0.234   1.922   8.331 -1.6089 -0.5277  0.4277
   94SAPS  C318 9339   0.250   1.754   8.453  0.0809 -0.3602 -0.0457
   94SAPS  H18X 9340   0.319   1.801   8.527  2.3283 -0.2920 -2.0457
   94SAPS  H18Y 9341   0.292   1.651   8.439 -3.6577 -1.8153 -2.0078
   94SAPS  H18Z 9342   0.146   1.739   8.488  0.5926 -0.6003  1.4740
   95SAPS     N 9343   3.806   4.549   6.171  0.1334  0.0870  0.1549
   95SAPS   HN1 9344   3.746   4.471   6.136  0.6729 -0.3262  0.1351
   95SAPS   HN2 9345   3.756   4.598   6.248  0.4165 -0.4433  0.6830
   95SAPS   HN3 9346   3.815   4.600   6.081  0.0898 -0.1729  0.0013
   95SAPS   C12 9347   3.935   4.493   6.214  0.1536 -0.9140 -0.4295
   95SAPS  H12A 9348   3.917   4.419   6.291 -0.8007  0.6637  0.9446
   95SAPS   C13 9349   4.011   4.425   6.097  0.2493 -0.3892 -0.1049
   95SAPS  O13A 9350   3.957   4.412   5.986  0.4602  0.2045  0.1165
   95SAPS  O13B 9351   4.099   4.344   6.139 -0.3648  0.2920  0.2155
   95SAPS   C11 9352   4.022   4.611   6.270 -0.2993  0.4481 -0.1164
   95SAPS  H11A 9353   4.114   4.566   6.314  0.0730  1.7011  0.4352
   95SAPS  H11B 9354   3.968   4.647   6.361 -0.0877 -0.4339  0.3655
   95SAPS     P 9355   4.173   4.788   6.166 -0.0555 -0.3110 -0.3082
   95SAPS   O13 9356   4.268   4.688   6.103  0.2158 -0.1450  0.0420
   95SAPS   O14 9357   4.153   4.921   6.095 -0.2472  0.1933 -0.0501
   95SAPS   O12 9358   4.035   4.712   6.176 -0.0192  0.3005 -0.0361
   95SAPS   O11 9359   4.222   4.822   6.313 -0.3667 -0.2028 -0.1860
   95SAPS    C1 9360   4.366   4.854   6.323  0.3687 -0.3529  0.2617
   95SAPS    HA 9361   4.429   4.771   6.286 -0.4658 -1.1667  0.6380
   95SAPS    HB 9362   4.397   4.943   6.264  3.6314 -0.9016  0.9797
   95SAPS    C2 9363   4.416   4.881   6.468  0.6647 -1.1512  0.1414
   95SAPS    HS 9364   4.526   4.894   6.475  0.5466 -0.5215  0.9450
   95SAPS   O21 9365   4.367   4.778   6.549 -0.5962 -0.6220  0.3683
   95SAPS   C21 9366   4.447   4.731   6.643  0.2370  0.5470 -0.3984
   95SAPS   O22 9367   4.565   4.745   6.657 -0.2169 -0.0678 -0.1590
   95SAPS   C22 9368   4.370   4.649   6.743 -0.7135  0.3841 -0.2026
   95SAPS   H2R 9369   4.260   4.664   6.738 -0.7052  0.8036  0.6742
   95SAPS   H2S 9370   4.388   4.541   6.725 -1.8621  0.3100 -0.9942
   95SAPS    C3 9371   4.353   5.014   6.517 -0.9499 -0.4799 -0.0204
   95SAPS    HX 9372   4.245   4.998   6.536 -1.1330  1.4874  0.8818
   95SAPS    HY 9373   4.358   5.089   6.434  0.1562  0.6411  1.0151
   95SAPS   O31 9374   4.408   5.059   6.641  0.5243  0.1871 -0.1527
   95SAPS   C31 9375   4.520   5.131   6.640 -0.1252  0.1140  0.6552
   95SAPS   O32 9376   4.592   5.163   6.544 -0.0607  0.4840  0.8215
   95SAPS   C32 9377   4.562   5.156   6.784  0.0984 -0.2087 -0.7530
   95SAPS   H2X 9378   4.476   5.131   6.850  2.3933 -1.1844  2.0577
   95SAPS   H2Y 9379   4.587   5.264   6.790  0.4324 -0.3623  1.8937
   95SAPS   C23 9380   4.409   4.687   6.891  0.0033 -0.4018  0.2242
   95SAPS   H3R 9381   4.516   4.668   6.912 -0.0073  1.6181  2.7255
   95SAPS   H3S 9382   4.351   4.621   6.960 -0.1867 -0.9442 -0.4484
   95SAPS   C24 9383   4.391   4.835   6.914 -0.2693 -0.5394 -0.4692
   95SAPS   H4R 9384   4.432   4.883   6.822 -2.5858 -0.5730 -1.5773
   95SAPS   H4S 9385   4.453   4.872   6.998 -0.7987 -1.9960  0.5823
   95SAPS   C25 9386   4.248   4.885   6.923  0.0873  0.3591  0.4268
   95SAPS   H5R 9387   4.198   4.881   6.825  0.7828  0.0642  0.0732
   95SAPS   C26 9388   4.183   4.904   7.040  0.7127  0.0210  0.2367
   95SAPS   H6R 9389   4.083   4.950   7.041  0.9543  0.6825 -1.8285
   95SAPS   C27 9390   4.247   4.902   7.177 -0.1034 -0.3093 -0.1105
   95SAPS   H7R 9391   4.188   4.952   7.257 -0.5750  0.4707 -0.9247
   95SAPS   H7S 9392   4.348   4.947   7.165 -0.3877  0.2716 -0.3973
   95SAPS   C28 9393   4.286   4.764   7.223  0.5897 -0.2774 -0.2979
   95SAPS   H8R 9394   4.283   4.688   7.144  0.5690 -1.1632  0.5390
   95SAPS   C29 9395   4.301   4.721   7.352 -0.4172  0.1924 -0.4469
   95SAPS   H9R 9396   4.326   4.619   7.384  0.0003  0.3824 -0.1635
   95SAPS  C210 9397   4.286   4.809   7.476  0.1444 -0.2026 -0.0900
   95SAPS  H10R 9398   4.292   4.917   7.449 -1.0450  0.1097  0.8129
   95SAPS  H10S 9399   4.380   4.802   7.535  0.0310 -2.4529 -0.1052
   95SAPS  C211 9400   4.159   4.785   7.560  0.7729  0.1986  0.6384
   95SAPS  H11R 9401   4.063   4.806   7.512  1.0329  0.7107  0.3223
   95SAPS  C212 9402   4.159   4.749   7.694 -0.3975  0.0698  0.0008
   95SAPS  H12R 9403   4.064   4.759   7.748  0.0852  0.5366  0.7879
   95SAPS  C213 9404   4.272   4.720   7.783 -0.3430  0.5300  0.4938
   95SAPS  H13R 9405   4.358   4.682   7.724  0.4233 -0.2897  2.0710
   95SAPS  H13S 9406   4.232   4.636   7.843 -1.2779 -0.3771 -1.3231
   95SAPS  C214 9407   4.313   4.850   7.858 -1.1672  1.4846  0.1581
   95SAPS  H14R 9408   4.292   4.948   7.812  2.3117  1.1111 -2.6710
   95SAPS  C215 9409   4.389   4.839   7.962  0.1367 -0.4283 -0.3066
   95SAPS  H15R 9410   4.399   4.930   8.024  2.7932 -0.1592 -1.0068
   95SAPS  C216 9411   4.439   4.709   8.023  0.0241  0.3451 -0.1638
   95SAPS  H16R 9412   4.542   4.732   8.056 -0.4963  0.1456  1.6797
   95SAPS  H16S 9413   4.446   4.623   7.952  1.6047  0.3540 -0.0558
   95SAPS  C217 9414   4.368   4.648   8.149  0.3063  0.5560  0.0586
   95SAPS  H17R 9415   4.407   4.546   8.167 -1.1735 -0.4784 -2.1508
   95SAPS  H17S 9416   4.263   4.629   8.118  0.7922  2.8126 -3.5697
   95SAPS  C218 9417   4.375   4.731   8.276  0.3417  0.0377 -0.7073
   95SAPS  H18R 9418   4.448   4.816   8.277  0.4854 -0.0863 -0.4753
   95SAPS  H18S 9419   4.412   4.656   8.349 -0.6112 -0.3137 -0.5810
   95SAPS  C219 9420   4.244   4.782   8.316 -0.3024 -0.0873  0.1771
   95SAPS  H19R 9421   4.253   4.837   8.412 -0.5572  1.3539 -0.5953
   95SAPS  H19S 9422   4.164   4.706   8.333 -0.1696  0.0337  1.4481
   95SAPS  C220 9423   4.187   4.886   8.221  0.4033  0.9838  0.9700
   95SAPS  H20R 9424   4.106   4.951   8.262 -0.1158 -0.1451  1.7849
   95SAPS  H20S 9425   4.147   4.829   8.134 -3.2555 -0.6854  3.4963
   95SAPS  H20T 9426   4.263   4.953   8.175  1.6597 -1.3841 -0.6401
   95SAPS   C33 9427   4.687   5.074   6.822  0.1089 -0.0277 -0.0255
   95SAPS   H3X 9428   4.754   5.093   6.735 -1.8043  1.1497 -1.3212
   95SAPS   H3Y 9429   4.662   4.966   6.814 -1.8949  0.3522  0.3946
   95SAPS   C34 9430   4.763   5.112   6.947 -0.3221 -0.2373 -0.0429
   95SAPS   H4X 9431   4.788   5.220   6.947 -0.0354 -0.2863 -1.2783
   95SAPS   H4Y 9432   4.853   5.049   6.962  0.0938  0.6850  1.5660
   95SAPS   C35 9433   4.682   5.081   7.073  0.6513 -0.5194  0.2647
   95SAPS   H5X 9434   4.662   4.972   7.081  0.3419 -0.3940  1.3031
   95SAPS   H5Y 9435   4.579   5.123   7.072  0.6506 -0.5180  0.4452
   95SAPS   C36 9436   4.751   5.141   7.202 -0.5247 -0.4955  0.4731
   95SAPS   H6X 9437   4.733   5.249   7.216  2.2227  0.2935 -1.2511
   95SAPS   H6Y 9438   4.859   5.136   7.177 -0.5612  0.9654 -0.0344
   95SAPS   C37 9439   4.727   5.062   7.327  0.2607 -0.0899 -0.2151
   95SAPS   H7X 9440   4.796   4.976   7.340 -1.3255 -1.3326  0.4001
   95SAPS   H7Y 9441   4.623   5.027   7.309  0.2775 -0.3467  0.1661
   95SAPS   C38 9442   4.753   5.147   7.452 -0.2403 -0.6883 -0.1492
   95SAPS   H8X 9443   4.674   5.224   7.438 -1.0783 -1.9692 -3.0311
   95SAPS   H8Y 9444   4.851   5.199   7.438 -0.7385  0.0282 -1.1090
   95SAPS   C39 9445   4.737   5.077   7.586 -0.6495 -0.3739  1.1514
   95SAPS   H9X 9446   4.812   4.994   7.589 -0.1901 -0.0034  0.1706
   95SAPS   H9Y 9447   4.646   5.014   7.587  0.6084 -2.3920  3.7553
   95SAPS  C310 9448   4.743   5.180   7.698 -0.1562  0.1775 -0.4205
   95SAPS  H10X 9449   4.658   5.251   7.685 -0.9462 -0.5377  0.6350
   95SAPS  H10Y 9450   4.834   5.244   7.698  0.1513 -0.2109  1.1529
   95SAPS  C311 9451   4.733   5.125   7.837 -0.1107  0.5056 -0.1423
   95SAPS  H11X 9452   4.835   5.100   7.872 -0.4977 -0.1874  0.5311
   95SAPS  H11Y 9453   4.670   5.034   7.848 -0.6394  1.0878  2.3097
   95SAPS  C312 9454   4.654   5.218   7.937  0.2571 -0.3431  0.2551
   95SAPS  H12X 9455   4.549   5.226   7.900 -0.0272 -0.1315  1.0877
   95SAPS  H12Y 9456   4.692   5.322   7.929  0.1381 -0.1422  1.9614
   95SAPS  C313 9457   4.675   5.170   8.084 -0.4736 -0.1824 -0.2667
   95SAPS  H13X 9458   4.784   5.158   8.096 -0.3552  0.8440 -0.2279
   95SAPS  H13Y 9459   4.623   5.072   8.090  0.8037 -0.8223  0.9344
   95SAPS  C314 9460   4.616   5.247   8.207 -0.9780  0.1546 -0.2455
   95SAPS  H14X 9461   4.646   5.185   8.294  2.7962 -0.2673 -1.6444
   95SAPS  H14Y 9462   4.507   5.265   8.194 -1.2342 -0.6864  0.6093
   95SAPS  C315 9463   4.693   5.378   8.239 -0.3154  0.0319  0.1682
   95SAPS  H15X 9464   4.653   5.460   8.175  0.1682  1.5884  1.7837
   95SAPS  H15Y 9465   4.802   5.359   8.223 -0.6660 -0.9070 -1.2658
   95SAPS  C316 9466   4.668   5.403   8.385  0.1359 -0.1060  0.3769
   95SAPS  H16X 9467   4.763   5.450   8.418  0.3681 -0.0343 -0.3694
   95SAPS  H16Y 9468   4.647   5.310   8.442  0.6541 -0.1515  0.5046
   95SAPS  C317 9469   4.559   5.511   8.418 -0.9015 -0.0366  0.2999
   95SAPS  H17X 9470   4.478   5.483   8.347  0.4262 -1.9851 -0.5469
   95SAPS  H17Y 9471   4.606   5.608   8.392  1.4728 -1.3518 -0.7579
   95SAPS  C318 9472   4.516   5.524   8.566  0.4829 -0.0761  0.4205
   95SAPS  H18X 9473   4.592   5.580   8.626  0.5484  1.6106 -1.1658
   95SAPS  H18Y 9474   4.507   5.421   8.607 -2.3224 -0.8923 -1.9714
   95SAPS  H18Z 9475   4.419   5.578   8.567  0.3313 -0.2841 -1.0486
   96SAPS     N 9476   5.847   6.381   6.267  0.1157 -0.2054 -0.3061
   96SAPS   HN1 9477   5.809   6.447   6.197  3.1617  0.6848 -1.2799
   96SAPS   HN2 9478   5.799   6.385   6.359 -1.4125  0.6228 -1.1161
   96SAPS   HN3 9479   5.947   6.408   6.274  0.4571 -0.8523 -2.1013
   96SAPS   C12 9480   5.831   6.240   6.230 -0.2662  0.3944  0.1638
   96SAPS  H12A 9481   5.724   6.223   6.237 -0.1219 -0.0896  1.5426
   96SAPS   C13 9482   5.870   6.208   6.076 -0.7894 -1.0246  0.2361
   96SAPS  O13A 9483   5.904   6.302   5.998  0.5375 -0.1449 -0.1931
   96SAPS  O13B 9484   5.852   6.096   6.031  0.2644 -0.0028 -0.3508
   96SAPS   C11 9485   5.912   6.149   6.317  0.4176  0.0508 -0.7871
   96SAPS  H11A 9486   6.022   6.165   6.319  0.2908  0.8467  0.9092
   96SAPS  H11B 9487   5.897   6.045   6.279 -0.5813 -0.8625  1.9239
   96SAPS     P 9488   5.806   6.038   6.538  0.2421 -0.2971 -0.3649
   96SAPS   O13 9489   5.697   6.099   6.614  0.4102  0.0659  0.1715
   96SAPS   O14 9490   5.763   5.922   6.454 -0.3587 -0.0568 -0.1274
   96SAPS   O12 9491   5.868   6.155   6.448 -0.7204 -0.0754  0.2828
   96SAPS   O11 9492   5.912   5.983   6.637 -0.1627 -0.4690 -0.3690
   96SAPS    C1 9493   5.923   5.845   6.667 -0.8296 -0.6323  0.1252
   96SAPS    HA 9494   5.927   5.781   6.576  3.7339  0.1692 -0.4757
   96SAPS    HB 9495   6.024   5.831   6.710 -0.9672 -0.6094  0.4605
   96SAPS    C2 9496   5.816   5.785   6.761 -0.0908  0.0468  1.0874
   96SAPS    HS 9497   5.721   5.784   6.703  0.6392  0.4282 -0.1614
   96SAPS   O21 9498   5.811   5.865   6.879 -0.0926  0.1074  0.3300
   96SAPS   C21 9499   5.708   5.861   6.961 -0.3579 -0.3515  0.0012
   96SAPS   O22 9500   5.615   5.781   6.954  0.3946 -0.0698  0.1933
   96SAPS   C22 9501   5.735   5.975   7.066  0.2458 -0.1960 -0.3910
   96SAPS   H2R 9502   5.816   5.957   7.139 -0.0129  4.4141  1.3721
   96SAPS   H2S 9503   5.771   6.062   7.006 -1.3809  1.7962  1.3512
   96SAPS    C3 9504   5.867   5.640   6.783 -0.8606 -0.3782 -0.2374
   96SAPS    HX 9505   5.970   5.663   6.819 -1.5567 -1.6860  2.8957
   96SAPS    HY 9506   5.887   5.595   6.683  1.3239 -1.1584  0.4954
   96SAPS   O31 9507   5.796   5.566   6.881 -0.0053 -0.0588  0.1501
   96SAPS   C31 9508   5.682   5.510   6.832 -0.2955  0.5860  0.0047
   96SAPS   O32 9509   5.649   5.508   6.712  0.6917  0.6933  0.0798
   96SAPS   C32 9510   5.624   5.421   6.942  0.0435 -0.1311  0.9829
   96SAPS   H2X 9511   5.540   5.358   6.906 -0.4869  0.9570  0.2565
   96SAPS   H2Y 9512   5.581   5.496   7.012  0.5852 -0.1036  1.2894
   96SAPS   C23 9513   5.609   6.009   7.146  0.0144  0.8353  0.2835
   96SAPS   H3R 9514   5.521   6.025   7.081  0.1400 -0.5003 -0.2410
   96SAPS   H3S 9515   5.635   6.107   7.191  0.8289  0.2869  1.0501
   96SAPS   C24 9516   5.583   5.899   7.248 -0.0307  0.4042  0.4064
   96SAPS   H4R 9517   5.678   5.856   7.287 -0.2747 -0.9063 -0.4243
   96SAPS   H4S 9518   5.532   5.813   7.202 -1.3519  0.5656  1.5099
   96SAPS   C25 9519   5.507   5.950   7.362  0.1705 -0.0305 -0.7041
   96SAPS   H5R 9520   5.511   6.059   7.374 -0.3903 -0.0363 -0.4205
   96SAPS   C26 9521   5.435   5.876   7.451 -0.0765 -0.1625 -0.2127
   96SAPS   H6R 9522   5.378   5.932   7.527 -1.0689  0.9287 -1.6833
   96SAPS   C27 9523   5.399   5.728   7.446 -0.2019  0.6587  1.0623
   96SAPS   H7R 9524   5.436   5.682   7.352 -0.4273  0.1273  1.2250
   96SAPS   H7S 9525   5.289   5.710   7.439  0.3124 -2.4149 -1.5470
   96SAPS   C28 9526   5.456   5.651   7.565 -0.0359  0.2307 -0.2235
   96SAPS   H8R 9527   5.523   5.567   7.540 -0.9342 -0.6557  0.2666
   96SAPS   C29 9528   5.416   5.671   7.698 -0.3022 -1.1962  0.3696
   96SAPS   H9R 9529   5.468   5.611   7.773  1.5415 -1.5995 -1.1482
   96SAPS  C210 9530   5.309   5.765   7.749  0.0855 -0.3814 -0.3735
   96SAPS  H10R 9531   5.246   5.715   7.826  0.1696 -2.1082 -1.3812
   96SAPS  H10S 9532   5.229   5.774   7.673 -1.1277  1.2576  1.0108
   96SAPS  C211 9533   5.363   5.898   7.802  0.1703 -0.8185 -0.4168
   96SAPS  H11R 9534   5.379   5.965   7.716 -0.9494 -0.8868 -0.7007
   96SAPS  C212 9535   5.381   5.923   7.935 -0.5434  0.3707  0.1446
   96SAPS  H12R 9536   5.414   6.021   7.974  0.5517 -0.7636  2.2085
   96SAPS  C213 9537   5.332   5.842   8.052 -0.8866  0.1325  0.4150
   96SAPS  H13R 9538   5.236   5.790   8.032 -1.2170  1.4256 -1.5894
   96SAPS  H13S 9539   5.299   5.911   8.133  1.5139  1.7828  0.0826
   96SAPS  C214 9540   5.446   5.751   8.092 -0.0427 -0.5416 -0.4937
   96SAPS  H14R 9541   5.539   5.760   8.034  0.4488 -2.8504 -0.1550
   96SAPS  C215 9542   5.442   5.672   8.200 -0.1111 -0.3014  0.5259
   96SAPS  H15R 9543   5.529   5.611   8.228 -0.9660 -1.3607  0.9583
   96SAPS  C216 9544   5.321   5.654   8.294 -0.1226 -0.0467 -0.6905
   96SAPS  H16R 9545   5.220   5.668   8.252 -0.8260  0.1469  0.9873
   96SAPS  H16S 9546   5.333   5.724   8.380  0.8489 -0.5576 -0.3863
   96SAPS  C217 9547   5.315   5.508   8.353  0.4658 -0.3336  0.0665
   96SAPS  H17R 9548   5.229   5.525   8.421  0.5349 -1.3011  0.4140
   96SAPS  H17S 9549   5.406   5.493   8.414  0.6987  3.1270  0.7683
   96SAPS  C218 9550   5.291   5.403   8.241  0.2394 -0.0194  0.5068
   96SAPS  H18R 9551   5.384   5.397   8.181  2.0899  2.8863  2.8077
   96SAPS  H18S 9552   5.214   5.436   8.168  0.5551 -1.4036 -0.5164
   96SAPS  C219 9553   5.264   5.268   8.302  0.2064 -0.0450 -0.1535
   96SAPS  H19R 9554   5.172   5.267   8.365 -2.3776 -0.3829 -3.6240
   96SAPS  H19S 9555   5.358   5.253   8.360  0.2500  2.1280  0.4079
   96SAPS  C220 9556   5.246   5.154   8.191 -0.2089  0.0442 -0.1581
   96SAPS  H20R 9557   5.201   5.064   8.239 -0.1303 -1.8604 -3.3457
   96SAPS  H20S 9558   5.340   5.112   8.148 -0.0372  0.1891  0.0695
   96SAPS  H20T 9559   5.177   5.191   8.113 -3.2219  0.7048  2.6276
   96SAPS   C33 9560   5.724   5.320   7.009 -0.0156  0.6084  0.0140
   96SAPS   H3X 9561   5.812   5.374   7.049  0.9328  1.2173 -2.6713
   96SAPS   H3Y 9562   5.757   5.266   6.918 -0.5669  0.3364 -0.0283
   96SAPS   C34 9563   5.664   5.216   7.106  0.3970 -0.1040  0.1500
   96SAPS   H4X 9564   5.737   5.132   7.111  0.7996  0.0664 -1.9584
   96SAPS   H4Y 9565   5.560   5.185   7.080 -0.1732  0.2691  1.8874
   96SAPS   C35 9566   5.649   5.291   7.243  0.3293 -0.1203  1.2439
   96SAPS   H5X 9567   5.575   5.371   7.224  0.9847  0.4982  1.2616
   96SAPS   H5Y 9568   5.745   5.335   7.279  1.1462 -1.7326  1.1661
   96SAPS   C36 9569   5.591   5.204   7.358  0.2581 -0.2930 -0.3163
   96SAPS   H6X 9570   5.660   5.116   7.359 -0.5079 -0.9052  0.1859
   96SAPS   H6Y 9571   5.491   5.171   7.322  0.2826  0.0755 -0.7330
   96SAPS   C37 9572   5.601   5.262   7.494  0.2153  0.1664 -0.1232
   96SAPS   H7X 9573   5.527   5.345   7.500  0.7767  0.6145  0.8302
   96SAPS   H7Y 9574   5.699   5.308   7.518 -0.8296  3.1363 -1.0046
   96SAPS   C38 9575   5.557   5.169   7.610 -0.2639 -0.3403  0.5637
   96SAPS   H8X 9576   5.610   5.072   7.598  0.2800  0.1285 -1.1411
   96SAPS   H8Y 9577   5.447   5.157   7.599 -0.1806 -1.9407  1.2006
   96SAPS   C39 9578   5.583   5.234   7.747  1.2225  0.5938  1.0359
   96SAPS   H9X 9579   5.523   5.180   7.823  2.2761 -0.4445  1.1476
   96SAPS   H9Y 9580   5.552   5.341   7.747  1.0346  0.5898 -1.2566
   96SAPS  C310 9581   5.719   5.241   7.799 -0.0261  0.1230  0.7359
   96SAPS  H10X 9582   5.792   5.268   7.720 -1.0412  0.2173 -0.1963
   96SAPS  H10Y 9583   5.752   5.140   7.830  0.2385 -0.8352 -2.3835
   96SAPS  C311 9584   5.726   5.316   7.928 -0.4089 -0.2198  0.4507
   96SAPS  H11X 9585   5.704   5.424   7.920 -0.2850 -0.1158  1.4093
   96SAPS  H11Y 9586   5.833   5.300   7.956 -0.4874 -0.7892  0.4456
   96SAPS  C312 9587   5.648   5.265   8.051  0.6639  0.4578  0.6699
   96SAPS  H12X 9588   5.666   5.156   8.042 -1.6979  0.0794 -0.3046
   96SAPS  H12Y 9589   5.538   5.274   8.037  0.7784  1.9417  0.5949
   96SAPS  C313 9590   5.683   5.342   8.184 -0.3193  0.1148  0.8516
   96SAPS  H13X 9591   5.608   5.300   8.254  0.3360 -1.2737  0.7426
   96SAPS  H13Y 9592   5.686   5.453   8.179  0.8866  0.0462 -2.3039
   96SAPS  C314 9593   5.823   5.305   8.239  0.5101  0.3116 -0.4114
   96SAPS  H14X 9594   5.889   5.325   8.152  0.0987  0.0424 -0.7853
   96SAPS  H14Y 9595   5.816   5.196   8.261 -2.2640  0.7241  1.1758
   96SAPS  C315 9596   5.861   5.391   8.349 -0.8653 -0.8489  0.0876
   96SAPS  H15X 9597   5.776   5.404   8.420 -1.9584 -1.1437 -1.1341
   96SAPS  H15Y 9598   5.874   5.495   8.312  0.0375 -0.4651  1.4062
   96SAPS  C316 9599   5.989   5.350   8.427 -0.1086  0.0514  0.0407
   96SAPS  H16X 9600   6.058   5.313   8.348 -1.2550 -0.7814 -0.6017
   96SAPS  H16Y 9601   5.977   5.260   8.491 -1.4297 -0.1566 -0.4741
   96SAPS  C317 9602   6.057   5.459   8.510  0.6345 -0.7762 -0.0109
   96SAPS  H17X 9603   6.103   5.531   8.439  1.2659  0.5965  1.7255
   96SAPS  H17Y 9604   6.134   5.423   8.581  0.2018  1.1573  1.5272
   96SAPS  C318 9605   5.956   5.543   8.592  0.3055  0.3267 -0.2857
   96SAPS  H18X 9606   5.886   5.596   8.524  0.4757  0.3208 -0.4664
   96SAPS  H18Y 9607   6.018   5.621   8.642  1.9531 -0.6316 -0.7270
   96SAPS  H18Z 9608   5.901   5.486   8.671  1.5472  1.0804  1.1789
   97SAPS     N 9609   1.972   3.063   6.234 -0.2110 -0.1850  0.0659
   97SAPS   HN1 9610   1.947   3.046   6.333 -2.3858 -1.1192 -0.5772
   97SAPS   HN2 9611   1.995   2.971   6.193  0.0730 -0.1331  0.1070
   97SAPS   HN3 9612   2.062   3.113   6.245 -1.0824  1.3233  0.7213
   97SAPS   C12 9613   1.868   3.122   6.150  0.2534 -0.2331  1.1486
   97SAPS  H12A 9614   1.860   3.228   6.168  1.3497  0.0711 -0.0059
   97SAPS   C13 9615   1.901   3.112   5.989  0.5724 -0.0884 -0.4943
   97SAPS  O13A 9616   2.017   3.073   5.955 -0.6879  0.5846 -0.3754
   97SAPS  O13B 9617   1.807   3.134   5.908 -0.2381  0.4923  0.3329
   97SAPS   C11 9618   1.738   3.054   6.178 -0.4530  0.1490  0.4960
   97SAPS  H11A 9619   1.747   2.949   6.144  0.0493  0.4883 -0.4499
   97SAPS  H11B 9620   1.653   3.100   6.125  1.5564  0.8074 -2.4076
   97SAPS     P 9621   1.622   3.170   6.388 -0.0309  0.5666 -0.1567
   97SAPS   O13 9622   1.683   3.299   6.359 -0.2453 -0.2414  0.1289
   97SAPS   O14 9623   1.479   3.154   6.350 -0.0103  0.2539  0.3915
   97SAPS   O12 9624   1.710   3.056   6.316 -0.3376 -0.3234  0.2811
   97SAPS   O11 9625   1.655   3.126   6.534  0.6589 -0.0901 -0.7260
   97SAPS    C1 9626   1.586   3.187   6.641  0.1105  0.5010  0.7717
   97SAPS    HA 9627   1.659   3.204   6.723 -0.8485  2.4815  1.2729
   97SAPS    HB 9628   1.552   3.292   6.624  2.3732  0.9212 -1.8893
   97SAPS    C2 9629   1.467   3.101   6.699  0.0046  1.3601  0.6056
   97SAPS    HS 9630   1.366   3.123   6.658 -0.2812 -0.2402  0.3786
   97SAPS   O21 9631   1.457   3.111   6.841 -0.4058 -0.1495 -0.8535
   97SAPS   C21 9632   1.441   3.231   6.887  1.0295 -0.6553 -0.2624
   97SAPS   O22 9633   1.425   3.331   6.818  0.7406  0.0973  0.1619
   97SAPS   C22 9634   1.449   3.241   7.038  0.1790  0.3938 -0.3308
   97SAPS   H2R 9635   1.536   3.185   7.078  0.6439  1.3022 -0.0614
   97SAPS   H2S 9636   1.467   3.346   7.068 -0.1559  0.5131 -0.5488
   97SAPS    C3 9637   1.503   2.954   6.677 -0.2419  0.0138  0.4032
   97SAPS    HX 9638   1.612   2.944   6.696 -0.0894  0.6864 -0.0803
   97SAPS    HY 9639   1.496   2.928   6.569 -0.7677  1.1225  0.1610
   97SAPS   O31 9640   1.419   2.870   6.760 -0.9272 -0.1678  0.5080
   97SAPS   C31 9641   1.300   2.854   6.709 -0.1478 -0.2135 -0.3217
   97SAPS   O32 9642   1.271   2.893   6.599 -0.0232 -0.1976  0.3923
   97SAPS   C32 9643   1.197   2.783   6.800 -0.1035  0.2528 -0.5538
   97SAPS   H2X 9644   1.245   2.689   6.837  1.3281  1.7307  1.6073
   97SAPS   H2Y 9645   1.116   2.748   6.732 -0.3035 -0.9407  0.2793
   97SAPS   C23 9646   1.311   3.199   7.096  0.1897 -0.2742 -0.0207
   97SAPS   H3R 9647   1.299   3.089   7.093 -1.2998 -0.1405  0.3210
   97SAPS   H3S 9648   1.228   3.234   7.031 -0.2147 -1.0588  0.0691
   97SAPS   C24 9649   1.272   3.246   7.236 -0.6860  0.2918 -0.5047
   97SAPS   H4R 9650   1.355   3.205   7.296 -1.5343  1.9743  1.9758
   97SAPS   H4S 9651   1.178   3.203   7.277 -0.0790  0.4929  1.1641
   97SAPS   C25 9652   1.281   3.397   7.250  0.5523  0.0960 -0.2140
   97SAPS   H5R 9653   1.383   3.437   7.264  0.3647  1.4086 -2.1363
   97SAPS   C26 9654   1.179   3.483   7.254 -0.0910 -0.3714 -0.7355
   97SAPS   H6R 9655   1.194   3.592   7.267 -1.3374 -0.1635 -0.9735
   97SAPS   C27 9656   1.035   3.434   7.251 -0.0157  0.0052  0.3893
   97SAPS   H7R 9657   1.004   3.420   7.357  2.7805 -0.8888  1.1728
   97SAPS   H7S 9658   1.027   3.331   7.210  1.5013  0.5233 -1.3102
   97SAPS   C28 9659   0.954   3.529   7.169 -0.2505  0.1970  0.3637
   97SAPS   H8R 9660   0.958   3.518   7.060 -0.0682  1.1377  0.2624
   97SAPS   C29 9661   0.886   3.631   7.221 -0.0991 -0.0130  0.7559
   97SAPS   H9R 9662   0.818   3.683   7.152  3.7092  0.0161 -3.4830
   97SAPS  C210 9663   0.875   3.658   7.366  0.2234  0.4758  0.1641
   97SAPS  H10R 9664   0.863   3.557   7.412 -0.4274  0.2201 -0.5338
   97SAPS  H10S 9665   0.784   3.721   7.376  0.9719  1.4446  0.9368
   97SAPS  C211 9666   0.997   3.731   7.416 -0.4118 -0.3281 -0.3948
   97SAPS  H11R 9667   1.039   3.804   7.346  0.2783 -0.3340  0.0010
   97SAPS  C212 9668   1.056   3.715   7.541  0.0588  0.2782 -0.0818
   97SAPS  H12R 9669   1.147   3.772   7.565  0.6701 -0.1139 -1.3955
   97SAPS  C213 9670   0.999   3.637   7.655  0.4382 -0.0938  0.7420
   97SAPS  H13R 9671   0.894   3.613   7.630 -0.2808  1.1322  2.4211
   97SAPS  H13S 9672   1.004   3.698   7.748 -0.1708 -0.5786  1.0958
   97SAPS  C214 9673   1.079   3.515   7.679  0.3045 -0.1140  0.4695
   97SAPS  H14R 9674   1.134   3.482   7.590 -0.3550  1.1765 -0.4569
   97SAPS  C215 9675   1.047   3.433   7.782  0.6994  0.4488  0.0486
   97SAPS  H15R 9676   1.106   3.341   7.796 -0.4232 -0.3597 -0.3462
   97SAPS  C216 9677   0.943   3.447   7.886 -0.4268  0.5391 -0.7798
   97SAPS  H16R 9678   0.898   3.349   7.915  1.2879 -0.3137 -0.8512
   97SAPS  H16S 9679   0.860   3.510   7.850 -1.9842 -0.8025  0.3502
   97SAPS  C217 9680   1.003   3.510   8.020  0.2526 -0.1465 -0.2478
   97SAPS  H17R 9681   1.061   3.601   7.995  0.5266  0.3311  1.9640
   97SAPS  H17S 9682   1.059   3.436   8.081  1.3645  2.2229  1.7673
   97SAPS  C218 9683   0.888   3.558   8.115  0.3121  0.2342  0.5720
   97SAPS  H18R 9684   0.816   3.476   8.139  0.8459 -0.3406  0.2414
   97SAPS  H18S 9685   0.840   3.646   8.068  0.3137 -0.3690 -0.5917
   97SAPS  C219 9686   0.946   3.593   8.253 -0.1312 -0.4215  0.4479
   97SAPS  H19R 9687   1.038   3.653   8.234 -0.2383 -0.7750 -1.4486
   97SAPS  H19S 9688   0.994   3.508   8.305  0.2389 -1.8783 -2.1131
   97SAPS  C220 9689   0.850   3.677   8.355  0.1393  0.5466  0.7550
   97SAPS  H20R 9690   0.769   3.606   8.381  2.7230 -3.2681 -0.7592
   97SAPS  H20S 9691   0.800   3.755   8.294 -0.4306 -1.5747 -1.6717
   97SAPS  H20T 9692   0.919   3.710   8.436 -0.1020  1.6148  0.5421
   97SAPS   C33 9693   1.140   2.865   6.910  0.1573  0.1278  0.3852
   97SAPS   H3X 9694   1.038   2.903   6.886 -1.1852 -2.5535  1.4391
   97SAPS   H3Y 9695   1.207   2.951   6.933 -1.4869  0.9653  2.3248
   97SAPS   C34 9696   1.117   2.799   7.043  0.2324 -0.0253  0.5856
   97SAPS   H4X 9697   1.220   2.765   7.069 -0.4392 -2.9617 -0.3219
   97SAPS   H4Y 9698   1.066   2.706   7.013  1.0750 -0.2984 -0.0517
   97SAPS   C35 9699   1.060   2.894   7.145 -0.3098 -0.0196  0.4217
   97SAPS   H5X 9700   0.951   2.909   7.130 -0.5687 -3.0150 -1.8752
   97SAPS   H5Y 9701   1.118   2.988   7.139 -0.6421  0.1299 -0.5643
   97SAPS   C36 9702   1.084   2.847   7.287 -0.3180  0.6704 -0.3086
   97SAPS   H6X 9703   1.192   2.848   7.313  0.8618 -2.0225 -4.1050
   97SAPS   H6Y 9704   1.038   2.748   7.311  0.1043  0.0200 -1.9796
   97SAPS   C37 9705   1.019   2.952   7.385 -0.4002 -0.4594  0.3990
   97SAPS   H7X 9706   0.911   2.961   7.359 -0.3149  1.1671  0.4986
   97SAPS   H7Y 9707   1.063   3.050   7.357 -2.6112  0.8933  1.3284
   97SAPS   C38 9708   1.036   2.904   7.536  0.7500  0.2205 -0.1629
   97SAPS   H8X 9709   1.132   2.850   7.549  0.3785  0.1343  2.7109
   97SAPS   H8Y 9710   0.955   2.828   7.545 -1.3260  2.0922 -1.7630
   97SAPS   C39 9711   1.009   3.011   7.640  0.4792  0.0843 -0.8004
   97SAPS   H9X 9712   0.904   3.045   7.636  0.6004  0.5660 -0.0329
   97SAPS   H9Y 9713   1.077   3.098   7.633  2.7885 -1.5703 -0.3665
   97SAPS  C310 9714   1.020   2.956   7.790  0.6810  1.0199  0.8277
   97SAPS  H10X 9715   1.122   2.914   7.801  0.6882  0.4580 -1.0331
   97SAPS  H10Y 9716   0.942   2.878   7.796  0.3285  1.1782 -1.0946
   97SAPS  C311 9717   1.000   3.052   7.903 -0.2243 -0.7396 -0.2475
   97SAPS  H11X 9718   0.897   3.094   7.892  0.3815  1.9381  2.8301
   97SAPS  H11Y 9719   1.074   3.134   7.893 -0.6158 -0.4878 -1.2102
   97SAPS  C312 9720   1.022   2.999   8.044  0.0812  0.4060 -0.4991
   97SAPS  H12X 9721   1.123   2.953   8.052 -0.1622  0.0276  0.5658
   97SAPS  H12Y 9722   0.947   2.922   8.070 -0.1884  0.3554 -1.3820
   97SAPS  C313 9723   1.005   3.106   8.151 -0.1240 -0.0103  0.0509
   97SAPS  H13X 9724   0.902   3.147   8.158 -1.4048 -2.2862 -3.0241
   97SAPS  H13Y 9725   1.080   3.185   8.127 -0.4806  0.7284  1.2846
   97SAPS  C314 9726   1.044   3.055   8.292  0.3858 -0.4036  0.1412
   97SAPS  H14X 9727   1.139   2.998   8.297  0.2365 -0.6140  0.7569
   97SAPS  H14Y 9728   0.967   2.982   8.327  0.1780  0.5228  1.7474
   97SAPS  C315 9729   1.029   3.174   8.384  0.4244  0.5091 -0.6215
   97SAPS  H15X 9730   0.959   3.251   8.346  2.0549  1.5267 -1.7380
   97SAPS  H15Y 9731   1.130   3.220   8.390  1.5654 -1.7798 -1.2505
   97SAPS  C316 9732   0.982   3.131   8.529  0.0404  0.1443 -0.9047
   97SAPS  H16X 9733   1.060   3.064   8.570 -1.7364 -1.2011  0.4055
   97SAPS  H16Y 9734   0.893   3.064   8.522  0.3104 -0.3471  0.2726
   97SAPS  C317 9735   0.948   3.242   8.628  0.9399  1.0313  0.2793
   97SAPS  H17X 9736   1.005   3.337   8.628 -0.6577  2.0436  1.8039
   97SAPS  H17Y 9737   0.956   3.191   8.726 -4.0711  0.8149  0.8321
   97SAPS  C318 9738   0.810   3.291   8.605  0.1765  0.4972 -0.1662
   97SAPS  H18X 9739   0.747   3.204   8.632 -0.1930  1.0972  1.0200
   97SAPS  H18Y 9740   0.787   3.323   8.501 -3.9968 -0.3288  0.3213
   97SAPS  H18Z 9741   0.780   3.371   8.677  0.0188  0.6837 -0.4374
   98SAPS     N 9742   3.276   4.222   6.358 -0.0607  0.3175 -1.0821
   98SAPS   HN1 9743   3.197   4.278   6.321 -0.6042  1.3250  1.3855
   98SAPS   HN2 9744   3.265   4.201   6.459  1.4029  1.3247 -0.6778
   98SAPS   HN3 9745   3.372   4.264   6.350  0.1380  0.2215  0.4930
   98SAPS   C12 9746   3.268   4.100   6.265 -0.9313  0.4595  0.2984
   98SAPS  H12A 9747   3.327   4.025   6.315  3.3860  1.8855 -2.0882
   98SAPS   C13 9748   3.132   4.060   6.216 -0.0574  0.4851 -0.1455
   98SAPS  O13A 9749   3.029   4.127   6.253 -0.1412  0.5096 -0.6292
   98SAPS  O13B 9750   3.123   3.969   6.129  0.6300 -0.2003  0.8342
   98SAPS   C11 9751   3.354   4.128   6.142  0.3132  0.0311 -0.2144
   98SAPS  H11A 9752   3.322   4.229   6.110 -1.0037 -0.3361 -0.1582
   98SAPS  H11B 9753   3.355   4.052   6.061  0.0258 -0.5479  0.3137
   98SAPS     P 9754   3.603   4.203   6.088 -0.5929  0.1406 -0.1336
   98SAPS   O13 9755   3.591   4.162   5.952 -0.5075 -0.0684 -0.3722
   98SAPS   O14 9756   3.617   4.349   6.115 -0.1359  0.3249 -0.1540
   98SAPS   O12 9757   3.492   4.140   6.183  0.4266  0.0496 -0.1935
   98SAPS   O11 9758   3.733   4.132   6.134 -0.4500  0.1794 -0.0769
   98SAPS    C1 9759   3.724   4.006   6.207  0.0506  0.4828 -0.2198
   98SAPS    HA 9760   3.629   3.951   6.190  0.8340 -0.3687 -2.0379
   98SAPS    HB 9761   3.802   3.934   6.174 -1.2651 -0.9225 -0.3561
   98SAPS    C2 9762   3.767   4.019   6.363 -0.0103 -0.5470  0.1981
   98SAPS    HS 9763   3.702   4.099   6.405 -0.8157 -0.3067 -1.4398
   98SAPS   O21 9764   3.904   4.065   6.367  0.1964 -0.3643 -0.1518
   98SAPS   C21 9765   3.937   4.142   6.463 -0.0357 -0.9193 -0.3594
   98SAPS   O22 9766   3.858   4.193   6.543 -0.7502 -0.2085 -0.3335
   98SAPS   C22 9767   4.088   4.163   6.474  0.8226 -0.0918  0.8572
   98SAPS   H2R 9768   4.142   4.096   6.404 -0.2068  2.2614 -2.3893
   98SAPS   H2S 9769   4.102   4.267   6.438 -0.9077 -0.3304 -0.6073
   98SAPS    C3 9770   3.746   3.896   6.457 -0.0639  0.2391  0.6655
   98SAPS    HX 9771   3.813   3.813   6.427  1.4958  1.5661  0.3190
   98SAPS    HY 9772   3.644   3.864   6.429  0.5164 -0.4025 -0.8070
   98SAPS   O31 9773   3.763   3.917   6.599 -0.0453  0.7904  0.3408
   98SAPS   C31 9774   3.660   3.988   6.656 -0.2270 -0.3786  0.0018
   98SAPS   O32 9775   3.561   4.026   6.599  0.0234 -0.3245  0.0827
   98SAPS   C32 9776   3.703   4.031   6.793  0.3776 -0.4129 -0.3985
   98SAPS   H2X 9777   3.790   4.099   6.789 -1.0692  1.7559  1.9642
   98SAPS   H2Y 9778   3.725   3.933   6.840  0.7016 -0.3418 -0.4029
   98SAPS   C23 9779   4.139   4.154   6.611  0.1089  1.0659  0.2347
   98SAPS   H3R 9780   4.242   4.112   6.612 -0.8286 -1.5005 -1.2186
   98SAPS   H3S 9781   4.082   4.084   6.676  0.1415  1.6448  0.9043
   98SAPS   C24 9782   4.149   4.294   6.689 -0.4063  0.5253  0.0882
   98SAPS   H4R 9783   4.216   4.369   6.641 -2.7307  2.4528 -0.3576
   98SAPS   H4S 9784   4.206   4.265   6.780 -0.8850 -0.7333  0.0150
   98SAPS   C25 9785   4.017   4.357   6.730 -0.0637 -0.7584  0.0531
   98SAPS   H5R 9786   3.951   4.394   6.650  2.1660 -0.6506 -1.8137
   98SAPS   C26 9787   3.983   4.387   6.863  0.3902 -0.1309  0.8442
   98SAPS   H6R 9788   3.882   4.428   6.877  0.5282  0.7200 -0.4394
   98SAPS   C27 9789   4.067   4.358   6.984  0.4197 -0.3090  0.0169
   98SAPS   H7R 9790   4.174   4.361   6.957  0.3116 -2.9365 -0.9948
   98SAPS   H7S 9791   4.039   4.255   7.015  1.5026  0.0525  2.4762
   98SAPS   C28 9792   4.023   4.445   7.097  0.3567  0.3764 -0.5468
   98SAPS   H8R 9793   4.047   4.551   7.078 -0.7192  0.4835 -1.4345
   98SAPS   C29 9794   3.958   4.412   7.207  0.1835 -0.4282  0.0307
   98SAPS   H9R 9795   3.934   4.496   7.275  1.8026  0.9555 -1.0409
   98SAPS  C210 9796   3.917   4.273   7.236  0.9546  0.6080 -1.0158
   98SAPS  H10R 9797   4.005   4.238   7.293  0.2176  0.0854 -0.1671
   98SAPS  H10S 9798   3.899   4.220   7.141 -1.9947  0.1933 -0.3298
   98SAPS  C211 9799   3.790   4.253   7.325 -0.0533  0.1748 -0.5226
   98SAPS  H11R 9800   3.696   4.228   7.275 -0.0868 -1.3604  0.2256
   98SAPS  C212 9801   3.784   4.263   7.456  0.0710 -0.2679  0.0621
   98SAPS  H12R 9802   3.690   4.255   7.512 -1.8950  0.1003 -2.9341
   98SAPS  C213 9803   3.897   4.296   7.549  0.0349  0.1303  0.5931
   98SAPS  H13R 9804   3.993   4.273   7.498 -0.1006  0.9252 -0.0617
   98SAPS  H13S 9805   3.891   4.223   7.632  1.2347 -1.5136 -0.7099
   98SAPS  C214 9806   3.876   4.438   7.588  0.8777 -0.6717 -0.1359
   98SAPS  H14R 9807   3.867   4.519   7.514  1.0606 -0.5543 -0.0324
   98SAPS  C215 9808   3.847   4.495   7.707 -0.5364 -0.1414  0.4347
   98SAPS  H15R 9809   3.816   4.601   7.705  1.0973  0.3536 -0.0227
   98SAPS  C216 9810   3.842   4.413   7.839  0.3020 -0.2036 -0.1550
   98SAPS  H16R 9811   3.847   4.306   7.809  2.8262  0.3939 -2.2434
   98SAPS  H16S 9812   3.740   4.432   7.879 -0.2153 -1.3569 -0.8737
   98SAPS  C217 9813   3.956   4.446   7.937  0.3216  0.1655 -0.2585
   98SAPS  H17R 9814   4.055   4.422   7.894  0.9787  1.7727  0.2953
   98SAPS  H17S 9815   3.953   4.370   8.018 -0.4122  1.8864  1.4005
   98SAPS  C218 9816   3.954   4.587   8.005 -0.3925  0.5119  0.1754
   98SAPS  H18R 9817   3.973   4.652   7.917  1.8046 -2.6476 -1.9085
   98SAPS  H18S 9818   4.043   4.591   8.073 -0.0118 -1.0178 -0.1892
   98SAPS  C219 9819   3.825   4.616   8.079 -0.3024 -1.0073 -0.5374
   98SAPS  H19R 9820   3.804   4.534   8.150  0.1911  0.3582  1.2659
   98SAPS  H19S 9821   3.737   4.636   8.015 -1.0241  2.7833  1.3087
   98SAPS  C220 9822   3.827   4.758   8.148 -0.0401 -0.1956 -0.2017
   98SAPS  H20R 9823   3.724   4.777   8.185 -0.8857 -2.1787 -1.3982
   98SAPS  H20S 9824   3.860   4.840   8.081  0.1055 -1.4594 -1.7136
   98SAPS  H20T 9825   3.901   4.773   8.230 -0.3521  1.5265 -0.1909
   98SAPS   C33 9826   3.603   4.103   6.893 -0.3304  0.0356  0.2905
   98SAPS   H3X 9827   3.564   4.195   6.843  3.7008  1.2827 -0.9154
   98SAPS   H3Y 9828   3.657   4.127   6.987  2.0400  2.1958 -1.4808
   98SAPS   C34 9829   3.488   4.021   6.912  0.2485  0.5611  0.0856
   98SAPS   H4X 9830   3.508   3.924   6.962  0.1376  0.5525  0.1125
   98SAPS   H4Y 9831   3.421   4.001   6.826  0.5128  2.7053 -0.6637
   98SAPS   C35 9832   3.386   4.097   7.000  0.4301  0.1835  0.0141
   98SAPS   H5X 9833   3.286   4.048   6.995 -0.1282  1.3009 -0.0649
   98SAPS   H5Y 9834   3.362   4.199   6.964  1.8088  0.2279 -0.8268
   98SAPS   C36 9835   3.431   4.110   7.145  0.4020 -0.1563  0.8286
   98SAPS   H6X 9836   3.506   4.191   7.158 -1.0915  1.1650  1.5689
   98SAPS   H6Y 9837   3.474   4.014   7.179 -2.7122 -1.2434  2.0692
   98SAPS   C37 9838   3.316   4.161   7.239 -0.3447  0.5012  0.2446
   98SAPS   H7X 9839   3.226   4.097   7.226 -0.1725  0.5190 -1.1864
   98SAPS   H7Y 9840   3.294   4.262   7.197  2.3354  0.0909 -2.4677
   98SAPS   C38 9841   3.348   4.165   7.391  0.1083 -0.8424 -0.0666
   98SAPS   H8X 9842   3.266   4.220   7.442 -0.4572 -0.5949 -1.1996
   98SAPS   H8Y 9843   3.440   4.216   7.425 -0.6246 -1.7136  3.6619
   98SAPS   C39 9844   3.354   4.021   7.457 -0.7291  0.5714 -0.6699
   98SAPS   H9X 9845   3.447   3.970   7.426  0.5710  2.4119 -0.0252
   98SAPS   H9Y 9846   3.279   3.959   7.405  0.7098 -1.4063 -0.5164
   98SAPS  C310 9847   3.345   4.021   7.610  0.2360  0.3322 -0.6589
   98SAPS  H10X 9848   3.376   3.920   7.646  0.0063  0.6260  0.3774
   98SAPS  H10Y 9849   3.238   4.023   7.640 -0.2429 -1.9049 -1.9667
   98SAPS  C311 9850   3.422   4.119   7.688  0.1287 -0.2457 -0.0082
   98SAPS  H11X 9851   3.377   4.220   7.686  0.2930 -0.1831 -1.1048
   98SAPS  H11Y 9852   3.520   4.141   7.642  0.1898  0.6384  0.5261
   98SAPS  C312 9853   3.453   4.079   7.834 -0.0832  0.4763 -0.0087
   98SAPS  H12X 9854   3.522   3.993   7.831 -0.5979  0.0738 -2.2608
   98SAPS  H12Y 9855   3.355   4.060   7.883 -1.0253  1.3243 -1.4356
   98SAPS  C313 9856   3.519   4.200   7.910  0.2298 -1.0834  0.1729
   98SAPS  H13X 9857   3.446   4.281   7.932 -0.1848 -1.1679 -0.8542
   98SAPS  H13Y 9858   3.596   4.250   7.848 -0.8880 -0.8285 -1.0433
   98SAPS  C314 9859   3.583   4.169   8.045  0.3082 -0.1827  0.5914
   98SAPS  H14X 9860   3.618   4.268   8.082 -1.8941  0.5482  0.8272
   98SAPS  H14Y 9861   3.679   4.120   8.016  1.9133  4.1970 -2.5068
   98SAPS  C315 9862   3.497   4.088   8.135  0.4751 -0.5636  0.2554
   98SAPS  H15X 9863   3.479   3.989   8.089  2.0855 -0.6702 -0.1973
   98SAPS  H15Y 9864   3.400   4.136   8.160 -1.1178 -2.6773 -1.4476
   98SAPS  C316 9865   3.553   4.046   8.266  0.1500  0.0291  0.3671
   98SAPS  H16X 9866   3.588   4.139   8.315  1.3871 -0.7220  0.9701
   98SAPS  H16Y 9867   3.635   3.974   8.247 -1.8323 -2.1320 -0.4612
   98SAPS  C317 9868   3.458   3.982   8.373  0.1750 -0.0247  0.6826
   98SAPS  H17X 9869   3.412   3.891   8.330 -1.0706  0.2271  1.4206
   98SAPS  H17Y 9870   3.378   4.059   8.387  0.8559  1.6945 -3.4934
   98SAPS  C318 9871   3.520   3.962   8.512 -0.1246 -0.1148  0.8594
   98SAPS  H18X 9872   3.584   3.871   8.507  0.4104  0.3047 -0.1324
   98SAPS  H18Y 9873   3.447   3.951   8.595  0.2532  0.6423  1.3068
   98SAPS  H18Z 9874   3.584   4.051   8.532  1.0695 -0.8994  0.6302
   99SAPS     N 9875   3.869   0.428   5.825 -0.1545 -0.1006  0.1517
   99SAPS   HN1 9876   3.950   0.419   5.760  0.0079 -0.6340  0.4189
   99SAPS   HN2 9877   3.923   0.430   5.914  0.2031 -0.9836 -0.0318
   99SAPS   HN3 9878   3.806   0.346   5.813 -2.3654  1.5017  0.2886
   99SAPS   C12 9879   3.783   0.550   5.811 -0.1042  0.4666 -0.3348
   99SAPS  H12A 9880   3.848   0.635   5.821  0.6631 -0.0481 -0.7838
   99SAPS   C13 9881   3.718   0.554   5.679  0.4362 -0.5978  0.4244
   99SAPS  O13A 9882   3.752   0.488   5.576  0.1552 -0.1921  0.6358
   99SAPS  O13B 9883   3.617   0.628   5.670 -0.4573  0.7383  0.0213
   99SAPS   C11 9884   3.682   0.554   5.928 -0.4856  0.1528 -0.5218
   99SAPS  H11A 9885   3.610   0.470   5.928 -0.2422 -0.0772 -1.6915
   99SAPS  H11B 9886   3.608   0.635   5.912 -0.8726 -0.1366 -0.1876
   99SAPS     P 9887   3.711   0.650   6.167 -0.6603 -0.0617  0.0122
   99SAPS   O13 9888   3.800   0.616   6.282 -0.2378 -0.4797 -0.3046
   99SAPS   O14 9889   3.700   0.793   6.140 -0.0657 -0.2294  0.3254
   99SAPS   O12 9890   3.752   0.567   6.043  0.1805 -0.7451  0.6718
   99SAPS   O11 9891   3.573   0.597   6.208  0.3577 -0.0760  0.4150
   99SAPS    C1 9892   3.524   0.461   6.191 -0.2682  0.7718  0.2321
   99SAPS    HA 9893   3.429   0.454   6.134 -1.1387  0.7490  1.6663
   99SAPS    HB 9894   3.602   0.393   6.151  1.8153  1.4150  2.8994
   99SAPS    C2 9895   3.480   0.398   6.327 -0.2440 -0.7261 -0.0304
   99SAPS    HS 9896   3.406   0.468   6.371  0.4826 -0.6687  1.1488
   99SAPS   O21 9897   3.595   0.381   6.413  0.0566 -0.0958 -0.0473
   99SAPS   C21 9898   3.570   0.406   6.544 -0.3185  0.3152 -1.6327
   99SAPS   O22 9899   3.466   0.443   6.593  0.1913  0.4647  0.4692
   99SAPS   C22 9900   3.697   0.377   6.635  0.2846 -0.0793 -0.4454
   99SAPS   H2R 9901   3.770   0.335   6.563  1.7166  1.3493  0.1364
   99SAPS   H2S 9902   3.732   0.476   6.669  2.6109 -0.5555 -1.2704
   99SAPS    C3 9903   3.411   0.263   6.311  0.1742 -0.0217  0.0190
   99SAPS    HX 9904   3.483   0.182   6.284 -0.7172 -0.9731  0.4486
   99SAPS    HY 9905   3.342   0.283   6.227  0.8389 -0.5934 -0.6743
   99SAPS   O31 9906   3.331   0.224   6.420  0.4605 -0.1938  0.0906
   99SAPS   C31 9907   3.382   0.130   6.509 -0.5006 -0.2861 -0.1533
   99SAPS   O32 9908   3.494   0.076   6.507 -0.3814 -0.2103  0.1618
   99SAPS   C32 9909   3.271   0.105   6.604  0.2013 -0.6529 -0.1709
   99SAPS   H2X 9910   3.198   0.033   6.560  0.6870 -0.0999 -1.9931
   99SAPS   H2Y 9911   3.228   0.204   6.628 -2.1640 -2.1166  2.0822
   99SAPS   C23 9912   3.669   0.287   6.752  0.5810  0.1461 -0.6196
   99SAPS   H3R 9913   3.626   0.191   6.717  0.6046  0.0947 -0.5089
   99SAPS   H3S 9914   3.591   0.333   6.817  0.6711 -0.0564 -0.3648
   99SAPS   C24 9915   3.798   0.254   6.834 -1.1325 -0.2521 -0.3484
   99SAPS   H4R 9916   3.870   0.204   6.766 -3.3810 -1.8041 -1.7593
   99SAPS   H4S 9917   3.758   0.192   6.918  0.7058 -0.0288  0.7352
   99SAPS   C25 9918   3.863   0.378   6.895  0.6250  0.7000 -1.1237
   99SAPS   H5R 9919   3.943   0.427   6.838  0.2494  1.2021 -1.2272
   99SAPS   C26 9920   3.831   0.414   7.024 -0.0402  0.3879 -0.4637
   99SAPS   H6R 9921   3.881   0.503   7.064  0.9334  0.1650 -1.1373
   99SAPS   C27 9922   3.725   0.346   7.119  0.3838  0.3754 -0.1643
   99SAPS   H7R 9923   3.766   0.247   7.150 -0.9410  0.0462  0.6371
   99SAPS   H7S 9924   3.634   0.304   7.072  0.7989 -1.5962  0.6806
   99SAPS   C28 9925   3.692   0.426   7.239 -0.2245  0.2105  0.3725
   99SAPS   H8R 9926   3.652   0.525   7.213  0.1118 -0.0152 -1.0767
   99SAPS   C29 9927   3.704   0.391   7.366  0.1833  0.3629  1.1682
   99SAPS   H9R 9928   3.657   0.461   7.437  2.0394  1.1179  1.7208
   99SAPS  C210 9929   3.767   0.266   7.417 -0.3233  0.3326 -0.1549
   99SAPS  H10R 9930   3.858   0.277   7.479 -1.4758 -0.4161  1.7522
   99SAPS  H10S 9931   3.802   0.195   7.339  0.5142 -0.8764  1.2769
   99SAPS  C211 9932   3.668   0.189   7.505  0.5525 -0.3812  0.3266
   99SAPS  H11R 9933   3.605   0.113   7.457 -3.8129 -0.1828  4.9207
   99SAPS  C212 9934   3.645   0.210   7.634  0.6044 -0.9288  0.1078
   99SAPS  H12R 9935   3.561   0.156   7.680  1.3293  0.0595  2.8243
   99SAPS  C213 9936   3.716   0.313   7.727 -0.3400  0.3874  0.6557
   99SAPS  H13R 9937   3.817   0.335   7.688 -0.9753  1.6619 -0.3505
   99SAPS  H13S 9938   3.747   0.267   7.823 -0.2849  3.5049  2.2526
   99SAPS  C214 9939   3.655   0.449   7.747  0.2484  0.4565  0.3027
   99SAPS  H14R 9940   3.692   0.534   7.688  0.0031 -1.0145 -2.0859
   99SAPS  C215 9941   3.566   0.467   7.842 -0.0536  0.2027  0.3504
   99SAPS  H15R 9942   3.537   0.571   7.864  1.1794  1.0748 -1.8408
   99SAPS  C216 9943   3.522   0.362   7.939 -0.0480  0.2161  0.2880
   99SAPS  H16R 9944   3.558   0.260   7.915 -1.6732  0.1376 -2.2351
   99SAPS  H16S 9945   3.411   0.355   7.947  0.1236 -2.7736  1.2113
   99SAPS  C217 9946   3.580   0.405   8.075 -0.6871  0.3701  0.3767
   99SAPS  H17R 9947   3.565   0.514   8.094  1.3212  0.9138 -0.7846
   99SAPS  H17S 9948   3.690   0.388   8.079 -1.1317 -2.8214  3.5666
   99SAPS  C218 9949   3.533   0.313   8.189 -0.0822  0.2069  0.3198
   99SAPS  H18R 9950   3.559   0.207   8.166  1.1520  0.5691 -0.0089
   99SAPS  H18S 9951   3.423   0.324   8.193 -0.0632  0.7075 -0.4086
   99SAPS  C219 9952   3.581   0.356   8.321 -1.1761  0.5721 -0.6707
   99SAPS  H19R 9953   3.590   0.466   8.311 -0.5818  0.7484  1.3934
   99SAPS  H19S 9954   3.678   0.310   8.347 -1.2374  1.6477  1.7625
   99SAPS  C220 9955   3.487   0.329   8.437 -0.4581 -0.3055  0.3723
   99SAPS  H20R 9956   3.482   0.219   8.449  0.5417 -0.7378 -2.5156
   99SAPS  H20S 9957   3.387   0.374   8.422 -0.7599 -0.9069  0.5616
   99SAPS  H20T 9958   3.525   0.377   8.530  0.8124 -0.7202  0.0847
   99SAPS   C33 9959   3.321   0.057   6.739 -0.7003  0.0690 -0.1286
   99SAPS   H3X 9960   3.391   0.127   6.789  1.5374 -3.3692  2.0018
   99SAPS   H3Y 9961   3.373  -0.038   6.714  1.3945  1.3882 -1.0728
   99SAPS   C34 9962   3.208   0.031   6.832  0.7145  0.6205 -0.5398
   99SAPS   H4X 9963   3.161  -0.055   6.780  2.9363 -1.4183  0.6085
   99SAPS   H4Y 9964   3.141   0.119   6.827 -0.2909 -0.1615 -4.2317
   99SAPS   C35 9965   3.238  -0.007   6.980 -0.3188 -0.5155  0.7944
   99SAPS   H5X 9966   3.313  -0.089   6.982  1.5484  1.0370 -1.2809
   99SAPS   H5Y 9967   3.143  -0.055   7.013  0.3144 -3.2668 -1.0402
   99SAPS   C36 9968   3.280   0.121   7.064  0.0085  1.1786  0.5049
   99SAPS   H6X 9969   3.196   0.193   7.076 -0.4706  0.6911  0.1779
   99SAPS   H6Y 9970   3.363   0.170   7.010  0.3613  0.4729  0.3987
   99SAPS   C37 9971   3.352   0.073   7.196 -0.2436 -0.1686 -0.1688
   99SAPS   H7X 9972   3.399   0.155   7.254 -0.7729 -1.0419  1.5584
   99SAPS   H7Y 9973   3.431   0.002   7.161  0.5519  0.0140  1.2000
   99SAPS   C38 9974   3.251   0.004   7.300 -0.3833  0.1633  0.1826
   99SAPS   H8X 9975   3.299  -0.050   7.384  0.2996  0.5088  0.0240
   99SAPS   H8Y 9976   3.194  -0.077   7.249  0.0068  0.1763 -0.2861
   99SAPS   C39 9977   3.170   0.120   7.354  0.3977 -0.3055 -0.0462
   99SAPS   H9X 9978   3.115   0.171   7.273 -1.6637 -1.0969  0.7701
   99SAPS   H9Y 9979   3.230   0.197   7.407  0.5996 -1.2687  1.1701
   99SAPS  C310 9980   3.046   0.075   7.449 -0.7964  0.6093 -0.1540
   99SAPS  H10X 9981   3.039  -0.036   7.436 -0.4543  0.2872  1.9215
   99SAPS  H10Y 9982   2.952   0.109   7.403  0.9067  0.2220 -4.3438
   99SAPS  C311 9983   3.069   0.119   7.591  0.1809 -0.5900 -0.3757
   99SAPS  H11X 9984   2.973   0.115   7.646  0.5860  3.0577  0.8781
   99SAPS  H11Y 9985   3.103   0.224   7.602  0.9952 -0.8636 -0.2166
   99SAPS  C312 9986   3.182   0.038   7.664 -0.6561 -0.1900  0.3312
   99SAPS  H12X 9987   3.283   0.073   7.632 -0.3582 -1.2454  0.0858
   99SAPS  H12Y 9988   3.163  -0.067   7.633  0.0596  0.6190 -3.4535
   99SAPS  C313 9989   3.163   0.043   7.822 -0.4492 -0.2005  0.6876
   99SAPS  H13X 9990   3.242  -0.020   7.868  1.8004  2.1947  0.3446
   99SAPS  H13Y 9991   3.063  -0.004   7.836 -0.8698  0.3753 -0.3048
   99SAPS  C314 9992   3.164   0.182   7.883  0.4366  0.3292 -0.0544
   99SAPS  H14X 9993   3.085   0.251   7.846  1.1188 -0.1079 -2.5286
   99SAPS  H14Y 9994   3.265   0.229   7.879  0.1646  0.8661 -1.3628
   99SAPS  C315 9995   3.125   0.153   8.031 -0.5454  0.3668 -0.3719
   99SAPS  H15X 9996   3.190   0.080   8.084  1.2162  1.7656 -0.5167
   99SAPS  H15Y 9997   3.026   0.103   8.028  0.6413 -2.4174  1.7995
   99SAPS  C316 9998   3.122   0.278   8.113  0.5212 -0.1573 -0.1027
   99SAPS  H16X 9999   3.029   0.337   8.094 -0.5490 -2.1640 -1.5539
   99SAPS  H16Y10000   3.207   0.349   8.109  0.1430  0.4519  1.8041
   99SAPS  C31710001   3.111   0.239   8.265 -0.0000 -0.4132 -0.1138
   99SAPS  H17X10002   3.205   0.184   8.286 -0.9311 -2.1255 -0.2651
   99SAPS  H17Y10003   3.021   0.174   8.277 -0.5251  0.2695 -0.2811
   99SAPS  C31810004   3.078   0.358   8.348 -0.3624  0.2640  0.7217
   99SAPS  H18X10005   3.070   0.325   8.453  3.6720 -1.4857  0.6572
   99SAPS  H18Y10006   2.981   0.405   8.321  0.0630  0.7995  0.0663
   99SAPS  H18Z10007   3.157   0.435   8.332 -1.1529  0.8784 -0.4658
  100SAPS     N10008   2.269   2.961   6.050 -0.5702  0.1145 -0.0228
  100SAPS   HN110009   2.181   2.960   5.996 -1.5437 -0.5073  1.5185
  100SAPS   HN210010   2.260   3.019   6.136  1.9691 -2.1721  1.9855
  100SAPS   HN310011   2.352   2.991   5.995 -0.2319  2.7422  1.7480
  100SAPS   C1210012   2.292   2.821   6.113  0.0408  0.3333 -0.1507
  100SAPS  H12A10013   2.299   2.749   6.032 -1.7024 -1.0975  0.9087
  100SAPS   C1310014   2.431   2.793   6.173  0.2225  0.5102  0.8982
  100SAPS  O13A10015   2.517   2.881   6.191  0.0983 -0.1684 -0.5735
  100SAPS  O13B10016   2.454   2.677   6.208 -0.0666 -0.3602 -0.3397
  100SAPS   C1110017   2.174   2.789   6.208  0.0652  0.2892  0.9164
  100SAPS  H11A10018   2.189   2.860   6.292 -0.7980 -0.8483  2.0841
  100SAPS  H11B10019   2.189   2.687   6.249  2.6658  1.0940  2.2018
  100SAPS     P10020   1.968   2.691   6.079 -0.2212 -0.1454 -0.4169
  100SAPS   O1310021   1.857   2.747   6.007  0.1152 -0.2194  0.1766
  100SAPS   O1410022   2.073   2.624   6.003  0.0486  0.2308 -0.5134
  100SAPS   O1210023   2.041   2.812   6.155  0.6018  0.1996 -0.4405
  100SAPS   O1110024   1.920   2.619   6.211 -0.0068  0.4133  0.3409
  100SAPS    C110025   1.830   2.687   6.301 -0.4880 -0.6415 -0.4131
  100SAPS    HA10026   1.782   2.775   6.255  1.5961  1.4905  1.2082
  100SAPS    HB10027   1.739   2.628   6.325 -3.0551  2.4229 -1.9220
  100SAPS    C210028   1.901   2.711   6.433  0.0814  0.3854  0.2564
  100SAPS    HS10029   2.000   2.757   6.415 -0.1607  1.0302  0.5291
  100SAPS   O2110030   1.913   2.579   6.494  0.2341 -0.0478  0.2516
  100SAPS   C2110031   2.013   2.568   6.582  0.2344 -0.2660  0.3882
  100SAPS   O2210032   2.098   2.646   6.612  0.2788 -0.6467  0.3965
  100SAPS   C2210033   2.002   2.437   6.658 -0.6450 -0.3730  0.6135
  100SAPS   H2R10034   1.897   2.420   6.691 -1.0269 -1.8852 -1.2247
  100SAPS   H2S10035   2.029   2.353   6.591  0.0123  0.8936 -0.7576
  100SAPS    C310036   1.803   2.803   6.518 -0.4763  0.0949 -0.3884
  100SAPS    HX10037   1.719   2.737   6.548 -0.2587  0.0409  0.1173
  100SAPS    HY10038   1.766   2.890   6.460 -0.8090  1.4007  1.6682
  100SAPS   O3110039   1.866   2.851   6.629  0.6062  0.0109  0.0025
  100SAPS   C3110040   1.926   2.971   6.625 -0.3047  0.1677  0.5965
  100SAPS   O3210041   1.945   3.031   6.520 -0.7712 -0.1668 -0.5446
  100SAPS   C3210042   1.971   3.018   6.760  0.6423 -0.4398  0.3418
  100SAPS   H2X10043   1.896   3.089   6.802  1.0429 -0.2784  0.7994
  100SAPS   H2Y10044   2.064   3.076   6.739 -0.1393  0.2016 -1.5958
  100SAPS   C2310045   2.097   2.418   6.777 -0.1056  0.4475  0.2648
  100SAPS   H3R10046   2.194   2.467   6.758  0.1255 -0.8294 -2.2259
  100SAPS   H3S10047   2.128   2.312   6.791 -1.8979 -0.1638 -0.0925
  100SAPS   C2410048   2.036   2.467   6.912 -0.5735  0.6126 -0.6160
  100SAPS   H4R10049   1.933   2.428   6.930 -0.4866  1.1975  1.3483
  100SAPS   H4S10050   2.053   2.576   6.920  0.8836  0.2880  1.7805
  100SAPS   C2510051   2.114   2.411   7.028 -0.5587 -0.6518  0.5218
  100SAPS   H5R10052   2.221   2.432   7.012 -0.9244  1.9044  0.9740
  100SAPS   C2610053   2.068   2.364   7.149 -0.0867 -0.3876 -0.2279
  100SAPS   H6R10054   2.138   2.331   7.227 -0.0290 -1.2482 -0.6366
  100SAPS   C2710055   1.923   2.362   7.193  0.3084 -0.0060  0.2184
  100SAPS   H7R10056   1.886   2.272   7.248 -1.2300  0.5082  0.0808
  100SAPS   H7S10057   1.860   2.352   7.102  0.3058 -2.2391  0.4120
  100SAPS   C2810058   1.895   2.482   7.286  0.1345 -0.0401  0.2042
  100SAPS   H8R10059   1.953   2.574   7.270  0.4281 -0.4037 -0.9152
  100SAPS   C2910060   1.787   2.490   7.369 -0.0745  0.8240  0.0120
  100SAPS   H9R10061   1.770   2.577   7.434 -2.8850  0.6261 -0.3071
  100SAPS  C21010062   1.677   2.386   7.391 -0.2538  0.6125  0.7702
  100SAPS  H10R10063   1.651   2.348   7.290  2.1997 -0.1350  0.3614
  100SAPS  H10S10064   1.584   2.425   7.438 -0.5460 -0.2478  0.9295
  100SAPS  C21110065   1.719   2.266   7.472 -0.3362 -1.2863 -0.5769
  100SAPS  H11R10066   1.771   2.190   7.413  2.9005 -0.0091  0.3846
  100SAPS  C21210067   1.708   2.253   7.608 -0.2241 -0.0921 -0.6944
  100SAPS  H12R10068   1.736   2.153   7.647  0.0587  0.4923  0.6655
  100SAPS  C21310069   1.646   2.352   7.706 -0.1120  0.4493 -0.1130
  100SAPS  H13R10070   1.587   2.288   7.775  1.4380 -0.3766  0.5117
  100SAPS  H13S10071   1.569   2.410   7.652 -0.8880  1.1399  1.6619
  100SAPS  C21410072   1.738   2.441   7.787  0.3490 -0.0925 -0.6289
  100SAPS  H14R10073   1.806   2.498   7.722  0.2788 -1.5482 -2.0580
  100SAPS  C21510074   1.750   2.467   7.920  0.8387 -0.1587  0.4742
  100SAPS  H15R10075   1.833   2.529   7.957  0.4682  2.2414 -2.3401
  100SAPS  C21610076   1.674   2.393   8.025  0.2441 -0.8000  0.2595
  100SAPS  H16R10077   1.568   2.400   7.991  0.5134 -2.8664 -1.2051
  100SAPS  H16S10078   1.678   2.448   8.122 -0.2906  1.8833 -1.1320
  100SAPS  C21710079   1.706   2.243   8.041  0.0162  0.8363 -0.5146
  100SAPS  H17R10080   1.812   2.217   8.023 -1.0693 -3.3983 -1.9438
  100SAPS  H17S10081   1.669   2.187   7.952  1.2768  0.2121 -0.6673
  100SAPS  C21810082   1.656   2.198   8.173 -0.7282 -0.0933  0.6202
  100SAPS  H18R10083   1.550   2.226   8.188 -0.1915  1.6240  1.4035
  100SAPS  H18S10084   1.710   2.223   8.267 -0.7985  0.0055  0.6330
  100SAPS  C21910085   1.654   2.048   8.184  0.1841  0.1485 -0.3581
  100SAPS  H19R10086   1.761   2.016   8.186  0.0835 -0.1829  0.9178
  100SAPS  H19S10087   1.589   2.005   8.105 -0.3229 -0.2684  0.2785
  100SAPS  C22010088   1.587   2.003   8.317 -0.5459  0.1003  0.4456
  100SAPS  H20R10089   1.478   1.989   8.303 -0.0929 -0.8021 -3.4956
  100SAPS  H20S10090   1.614   2.067   8.403  0.3410 -2.3618  2.1326
  100SAPS  H20T10091   1.627   1.901   8.339  1.2921  0.4816 -0.9087
  100SAPS   C3310092   1.997   2.914   6.864 -0.1826 -0.4481 -0.0354
  100SAPS   H3X10093   2.088   2.856   6.836 -1.0195 -2.2051  0.7242
  100SAPS   H3Y10094   1.918   2.836   6.863 -0.7450  0.1169 -0.0149
  100SAPS   C3410095   1.984   2.984   7.000 -0.0519 -0.3422  0.1660
  100SAPS   H4X10096   1.879   3.018   7.015 -0.3288 -0.1281 -1.9029
  100SAPS   H4Y10097   2.053   3.071   7.000 -1.4880  0.8469  0.2642
  100SAPS   C3510098   2.014   2.881   7.111 -0.9392  0.0036 -0.3967
  100SAPS   H5X10099   2.070   2.795   7.069  0.9626  1.3338 -0.7139
  100SAPS   H5Y10100   1.912   2.849   7.141 -1.6134  2.5071  0.2641
  100SAPS   C3610101   2.085   2.928   7.236 -0.6504  0.0058  0.4477
  100SAPS   H6X10102   2.035   3.020   7.271  1.2513  1.2256  0.0755
  100SAPS   H6Y10103   2.188   2.957   7.207 -0.8134  0.5556  0.4130
  100SAPS   C3710104   2.096   2.820   7.341 -0.7419  0.5636  0.3808
  100SAPS   H7X10105   2.200   2.812   7.378  0.7473  3.1371 -2.7788
  100SAPS   H7Y10106   2.071   2.721   7.298  0.5867  0.2526  0.2748
  100SAPS   C3810107   2.013   2.857   7.468  0.6373 -0.8035 -0.2008
  100SAPS   H8X10108   1.905   2.880   7.450 -0.0357 -1.9532  2.0665
  100SAPS   H8Y10109   2.060   2.950   7.507 -0.7697 -0.1421 -0.0137
  100SAPS   C3910110   2.002   2.742   7.569  0.1323 -0.4708  0.0220
  100SAPS   H9X10111   2.102   2.700   7.595  1.0470  1.8550  0.5034
  100SAPS   H9Y10112   1.947   2.658   7.522 -2.4539  0.1209  1.7828
  100SAPS  C31010113   1.940   2.788   7.705 -0.6997  0.0926 -0.9759
  100SAPS  H10X10114   1.895   2.705   7.764 -0.4018 -0.1795 -1.1301
  100SAPS  H10Y10115   1.864   2.866   7.685 -0.2186  0.9937  0.5547
  100SAPS  C31110116   2.048   2.858   7.796  0.5343 -0.2630  0.2591
  100SAPS  H11X10117   2.073   2.961   7.762  0.1461  0.7706  2.8544
  100SAPS  H11Y10118   2.149   2.815   7.813  1.5465  1.8563 -0.1079
  100SAPS  C31210119   1.992   2.873   7.938 -0.3427  0.4260 -0.0542
  100SAPS  H12X10120   1.996   2.768   7.975  0.4509  0.8101  0.9922
  100SAPS  H12Y10121   1.892   2.922   7.935  0.3679  1.8922 -1.1124
  100SAPS  C31310122   2.088   2.955   8.029  0.6059  0.0713  0.5375
  100SAPS  H13X10123   2.091   3.062   7.998 -2.2318 -0.1939 -1.0352
  100SAPS  H13Y10124   2.193   2.920   8.033  0.8685  0.5946 -1.0723
  100SAPS  C31410125   2.037   2.949   8.171  0.0433  0.1963 -0.3265
  100SAPS  H14X10126   2.022   2.843   8.200 -0.3224  0.3437  0.0274
  100SAPS  H14Y10127   1.938   2.999   8.168 -0.4049 -0.6751 -0.1415
  100SAPS  C31510128   2.121   3.019   8.269 -0.4715  0.3101  0.7125
  100SAPS  H15X10129   2.141   3.125   8.243 -0.1105  0.7129  2.4826
  100SAPS  H15Y10130   2.220   2.971   8.280  0.8040  2.7252  0.4778
  100SAPS  C31610131   2.058   3.028   8.406 -0.7425 -0.2963  0.7865
  100SAPS  H16X10132   2.110   3.101   8.472 -1.8541 -0.4413  1.8731
  100SAPS  H16Y10133   2.072   2.927   8.450  0.7831 -0.3518  0.2101
  100SAPS  C31710134   1.913   3.077   8.406 -0.0095  0.0696  0.2497
  100SAPS  H17X10135   1.843   3.022   8.340 -0.1182  1.4007 -0.8090
  100SAPS  H17Y10136   1.916   3.173   8.349 -0.0017  0.0676  0.2481
  100SAPS  C31810137   1.861   3.113   8.547 -0.1654 -0.6604 -0.2855
  100SAPS  H18X10138   1.928   3.192   8.586  2.4737 -1.6491 -2.5271
  100SAPS  H18Y10139   1.860   3.026   8.616  0.7760 -0.6923 -0.2942
  100SAPS  H18Z10140   1.756   3.142   8.527 -0.6708 -0.9673  1.6773
  101OSM      N10141   2.489   2.008  11.229 -0.1929  0.3089  0.3460
  101OSM    C1510142   2.586   2.100  11.291 -0.5896  0.3799  0.1508
  101OSM   H15A10143   2.671   2.130  11.231 -0.6844  2.6746  1.0821
  101OSM   H15B10144   2.619   2.074  11.390  1.1685  1.6841 -0.0386
  101OSM   H15C10145   2.533   2.190  11.315 -1.9933 -0.7439  1.4171
  101OSM    C1410146   2.553   1.875  11.188  0.0982 -0.7171 -0.2689
  101OSM   H14A10147   2.641   1.886  11.128 -0.6586  0.2649 -1.2423
  101OSM   H14B10148   2.480   1.817  11.133 -2.0914  1.6447 -0.0622
  101OSM   H14C10149   2.577   1.815  11.275 -0.2782  0.1290  0.4405
  101OSM    C1310150   2.377   1.986  11.320  0.2072  0.4090  0.5886
  101OSM   H13A10151   2.334   2.078  11.357  1.0593  0.5104  1.3465
  101OSM   H13B10152   2.406   1.932  11.409  1.6352 -0.4187 -0.3396
  101OSM   H13C10153   2.304   1.919  11.276 -0.9042  1.7861  0.2402
  101OSM    C1210154   2.441   2.077  11.105  0.3180 -0.4745 -0.1345
  101OSM   H12A10155   2.523   2.128  11.056 -0.3498  1.2673  0.4863
  101OSM   H12B10156   2.383   2.164  11.133 -0.3654 -1.4799  1.6876
  101OSM    C1110157   2.359   1.999  10.999 -0.3706  0.0222 -0.5402
  101OSM   H11A10158   2.434   1.929  10.958  2.1854  0.6925  2.5941
  101OSM   H11B10159   2.343   2.072  10.916  0.5198  2.4812  1.3140
  101OSM      P10160   2.167   1.813  10.989  0.2115  0.2508  0.2864
  101OSM    O1310161   2.251   1.693  11.008  0.4973 -0.3955 -0.2388
  101OSM    O1410162   2.027   1.805  11.046 -0.1766  0.3538 -0.0939
  101OSM    O1110163   2.148   1.842  10.835 -0.4084  0.1625 -0.0466
  101OSM    O1210164   2.241   1.943  11.055 -0.0430 -0.1845  0.2099
  101OSM    C1S10165   2.129   1.970  10.784 -0.0484  0.0190  0.4395
  101OSM    H1S10166   2.231   2.006  10.757  0.1272 -0.2056  0.7984
  101OSM    H1T10167   2.074   2.041  10.849 -0.2651 -0.2679  0.5706
  101OSM     NF10168   2.034   2.103  10.596  0.3704  0.2888 -0.0285
  101OSM    HNF10169   1.948   2.153  10.591  0.1563 -0.1804 -1.7220
  101OSM    C2S10170   2.043   1.968  10.650  0.0977  0.4302  0.3205
  101OSM    H2S10171   2.104   1.905  10.581  2.2302 -0.0484  2.5046
  101OSM    C3S10172   1.894   1.913  10.672 -0.7705 -0.0460  0.0464
  101OSM    H3S10173   1.843   1.978  10.745 -2.9240 -2.5713  0.9493
  101OSM     O310174   1.888   1.787  10.740  0.0123  0.3492 -0.3352
  101OSM    HO310175   1.977   1.754  10.754  0.1482  1.1609  0.7817
  101OSM    C4S10176   1.816   1.912  10.547 -0.0520  0.1005  0.1599
  101OSM    H4S10177   1.748   1.998  10.536  0.5761  0.3770 -2.0068
  101OSM    C5S10178   1.826   1.821  10.446  0.8234 -0.2962 -0.2433
  101OSM    H5S10179   1.887   1.732  10.463 -0.6488 -1.1251  0.9708
  101OSM    C6S10180   1.751   1.837  10.317  0.2314  0.8034  0.5755
  101OSM    H6S10181   1.645   1.805  10.320  0.9826 -1.9801  0.5451
  101OSM    H6T10182   1.806   1.775  10.244 -0.6665  1.2228 -0.4806
  101OSM    C7S10183   1.739   1.977  10.261 -0.4979  0.1456  0.1578
  101OSM    H7S10184   1.839   2.024  10.273 -0.7837  1.4883 -2.2347
  101OSM    H7T10185   1.669   2.035  10.326 -2.6480 -2.0475 -0.0422
  101OSM    C8S10186   1.679   1.992  10.126 -0.1919  0.5925 -0.0231
  101OSM    H8S10187   1.619   2.085  10.115 -1.6211 -0.5391 -2.8765
  101OSM    H8T10188   1.606   1.911  10.105  0.5450 -0.3908  1.1274
  101OSM    C9S10189   1.789   1.982  10.016  0.2536  0.4922  0.3670
  101OSM    H9S10190   1.845   1.889  10.037  1.3105  1.4925  2.2789
  101OSM    H9T10191   1.867   2.061  10.027  0.2505  0.1851  3.1374
  101OSM   C10S10192   1.738   1.978   9.875 -0.4069 -0.3970 -0.3259
  101OSM   H10S10193   1.679   2.071   9.859  1.2046  0.7266 -0.0356
  101OSM   H10T10194   1.672   1.889   9.867 -0.7469 -0.2231  0.4475
  101OSM   C11S10195   1.853   1.975   9.776  0.1482 -0.4506  0.2060
  101OSM   H11S10196   1.918   1.887   9.798  0.7701 -0.5239 -1.7195
  101OSM   H11T10197   1.914   2.063   9.803 -1.0581 -0.0417  1.7017
  101OSM   C12S10198   1.794   1.974   9.636  0.2706 -0.0547  0.2156
  101OSM   H12S10199   1.710   2.045   9.628  0.6867  0.2999 -1.2508
  101OSM   H12T10200   1.744   1.878   9.612 -0.7707 -0.3775  3.2342
  101OSM   C13S10201   1.879   2.013   9.509 -0.1571 -0.6136  0.0926
  101OSM   H13S10202   1.970   1.952   9.491  0.9840  0.2022  2.5996
  101OSM   H13T10203   1.920   2.115   9.523  0.0426 -0.8136  0.9748
  101OSM   C14S10204   1.791   2.012   9.381 -0.8284  0.7999 -0.4324
  101OSM   H14S10205   1.708   1.939   9.394  0.4504 -0.4611  1.0719
  101OSM   H14T10206   1.853   1.984   9.294 -0.0336 -0.6816  0.5717
  101OSM   C15S10207   1.726   2.148   9.354  0.0578  0.0548  0.0485
  101OSM   H15S10208   1.802   2.226   9.378 -1.0167  0.8756  0.8788
  101OSM   H15T10209   1.638   2.165   9.419  1.2019  0.4422  1.5734
  101OSM   C16S10210   1.694   2.161   9.209 -0.2711  0.6130  0.3774
  101OSM   H16S10211   1.642   2.067   9.181  0.7748  0.4893 -1.3000
  101OSM   H16T10212   1.788   2.160   9.150 -1.2385 -0.6814 -1.2183
  101OSM   C17S10213   1.628   2.288   9.157 -0.3357  0.0699  0.2437
  101OSM   H17S10214   1.676   2.383   9.191 -2.2620  0.6483  1.4831
  101OSM   H17T10215   1.527   2.283   9.201 -1.1061  0.1510 -1.4457
  101OSM   C18S10216   1.618   2.295   9.006  0.0252 -0.1837 -0.1959
  101OSM   H18S10217   1.710   2.334   8.957 -0.3686 -0.4228 -1.1554
  101OSM   H18T10218   1.540   2.369   8.979  0.7869  0.2692 -1.2031
  101OSM   H18U10219   1.601   2.190   8.972 -0.2464 -0.6745  1.3484
  101OSM    C1F10220   2.145   2.155  10.538  0.0525 -0.2280 -0.1074
  101OSM     OF10221   2.249   2.091  10.524 -0.0817 -0.2437  0.1620
  101OSM    C2F10222   2.141   2.297  10.506  0.2389 -0.9026  0.1633
  101OSM    H2F10223   2.228   2.347  10.555 -0.9015  1.1454  0.2303
  101OSM    H2G10224   2.049   2.341  10.550 -0.7601 -3.4894  0.8037
  101OSM    C3F10225   2.146   2.339  10.359 -0.3937 -0.4228  0.3881
  101OSM    H3F10226   2.250   2.346  10.321  0.0324  0.1204  1.5843
  101OSM    H3G10227   2.103   2.441  10.346 -2.7320 -1.7403 -3.7939
  101OSM    C4F10228   2.056   2.255  10.264  0.3943  0.2421 -0.8012
  101OSM    H4F10229   1.949   2.285  10.277  1.0140  1.8478  1.1212
  101OSM    H4G10230   2.068   2.152  10.303 -0.7878  0.7104  0.9427
  101OSM    C5F10231   2.095   2.266  10.116 -0.2879 -0.1977  0.0200
  101OSM    H5F10232   2.065   2.169  10.069  3.7440 -0.6874 -1.9125
  101OSM    H5G10233   2.202   2.274  10.090 -0.5592  0.6945 -0.8774
  101OSM    C6F10234   2.039   2.385  10.042  0.4375 -0.2864  0.2963
  101OSM    H6F10235   2.084   2.478  10.085 -1.6548 -0.3007  2.7587
  101OSM    H6G10236   1.929   2.387  10.057  0.2341  0.9390 -1.1320
  101OSM    C7F10237   2.060   2.383   9.893  0.3356 -0.6803  0.0720
  101OSM    H7F10238   2.007   2.291   9.860 -4.8330  1.8597  0.3360
  101OSM    H7G10239   2.166   2.360   9.865  0.2737  0.6450 -1.3543
  101OSM    C8F10240   2.017   2.506   9.818 -0.2871  0.6155 -0.0636
  101OSM    H8F10241   2.095   2.586   9.814  0.0418  0.2790 -0.5260
  101OSM    H8G10242   1.919   2.549   9.848 -1.8750 -2.3315 -0.6586
  101OSM    C9F10243   1.985   2.474   9.671 -0.4408 -0.4602 -0.0086
  101OSM    H9F10244   1.883   2.441   9.648  0.2323 -0.7542 -2.9532
  101OSM   C10F10245   2.072   2.471   9.571 -0.2520  0.5167  0.0504
  101OSM   H10F10246   2.037   2.431   9.475  0.8151  0.9663 -0.5431
  101OSM   C11F10247   2.223   2.489   9.577  0.0724  0.0636  0.1934
  101OSM   H11F10248   2.273   2.400   9.533  1.2819  0.6237  0.4037
  101OSM   H11G10249   2.245   2.479   9.685 -2.3547 -1.2522  0.6204
  101OSM   C12F10250   2.264   2.615   9.512  0.7259 -0.5893  0.5753
  101OSM   H12F10251   2.372   2.631   9.536  1.1341 -0.6350 -1.1456
  101OSM   H12G10252   2.209   2.702   9.554  1.1759 -0.5045  1.0073
  101OSM   C13F10253   2.257   2.622   9.357 -0.2071  0.4830  0.1829
  101OSM   H13F10254   2.163   2.573   9.323  0.7432 -0.6101 -0.9702
  101OSM   H13G10255   2.338   2.569   9.303 -0.9979  0.7900 -1.3789
  101OSM   C14F10256   2.259   2.768   9.308 -0.0786  0.3038 -0.2536
  101OSM   H14F10257   2.354   2.816   9.340 -0.4500  1.3825 -0.7296
  101OSM   H14G10258   2.179   2.839   9.339 -0.3757 -0.9771  2.1750
  101OSM   C15F10259   2.260   2.781   9.157  0.0196  0.2668  0.5250
  101OSM   H15F10260   2.340   2.717   9.115 -1.2827  0.4167 -2.3889
  101OSM   H15G10261   2.265   2.887   9.123 -1.4302 -0.3871 -1.9719
  101OSM   C16F10262   2.127   2.729   9.097  1.1360  0.6929  0.2627
  101OSM   H16F10263   2.037   2.783   9.134  1.3717  1.8287 -0.7434
  101OSM   H16G10264   2.115   2.619   9.111  0.5347  0.7485  0.2346
  101OSM   C17F10265   2.131   2.725   8.947 -0.1204 -0.0022  0.1434
  101OSM   H17F10266   2.057   2.653   8.908 -1.6948  0.0145  2.8732
  101OSM   H17G10267   2.231   2.684   8.922  0.5868  1.6725  0.0472
  101OSM   C18F10268   2.110   2.864   8.884 -0.3138  0.9236 -0.0272
  101OSM   H18F10269   2.176   2.939   8.932 -0.4577  1.0645 -0.0471
  101OSM   H18G10270   2.007   2.902   8.897 -1.0537 -0.6490 -1.0269
  101OSM   H18H10271   2.120   2.867   8.773 -0.4300  1.3681 -0.0273
  102OSM      N10272   1.713   0.720  11.139  0.4235 -0.0849 -0.0796
  102OSM    C1510273   1.746   0.697  11.289 -0.1318  0.0426  0.0529
  102OSM   H15A10274   1.720   0.602  11.332 -2.2565  0.2048 -0.7439
  102OSM   H15B10275   1.689   0.765  11.351  0.9899  0.1420  0.9921
  102OSM   H15C10276   1.852   0.706  11.306  0.4031  1.5527 -3.1449
  102OSM    C1410277   1.567   0.690  11.107 -0.1498 -0.0498 -0.1716
  102OSM   H14A10278   1.551   0.702  11.001  0.2739  0.9504 -0.1278
  102OSM   H14B10279   1.500   0.757  11.157 -0.0369 -1.9194  2.7450
  102OSM   H14C10280   1.546   0.589  11.141 -1.8356  0.9899  2.1295
  102OSM    C1310281   1.736   0.864  11.111 -0.3618 -0.7686  0.3356
  102OSM   H13A10282   1.671   0.926  11.171  0.7763 -0.1207  0.9327
  102OSM   H13B10283   1.718   0.877  11.006  1.6213 -3.9584 -0.5418
  102OSM   H13C10284   1.837   0.900  11.127 -0.5826  0.4525 -0.9291
  102OSM    C1210285   1.811   0.639  11.051 -0.3519  0.0805 -0.5283
  102OSM   H12A10286   1.797   0.535  11.076  0.4141  0.3973  1.3084
  102OSM   H12B10287   1.909   0.673  11.080 -0.8104  1.1903 -0.2304
  102OSM    C1110288   1.793   0.644  10.893 -0.2869 -0.0126  0.5547
  102OSM   H11A10289   1.881   0.606  10.837 -0.9284  0.8632 -1.1328
  102OSM   H11B10290   1.791   0.753  10.873 -2.0950 -0.1710 -0.3735
  102OSM      P10291   1.692   0.420  10.843  0.6579 -0.0192  0.3562
  102OSM    O1310292   1.752   0.376  10.969 -0.6961  0.3174 -0.2056
  102OSM    O1410293   1.562   0.369  10.810 -0.3264  0.1848  0.2809
  102OSM    O1110294   1.793   0.389  10.730  1.5639  0.0117  0.0592
  102OSM    O1210295   1.675   0.576  10.845 -0.4082  0.3189 -0.2232
  102OSM    C1S10296   1.785   0.429  10.594 -0.2453 -0.0653 -0.2696
  102OSM    H1S10297   1.775   0.539  10.580 -1.0371 -0.3514 -2.3973
  102OSM    H1T10298   1.698   0.380  10.545  1.1685 -1.6226 -1.3383
  102OSM     NF10299   1.891   0.439  10.364 -0.4013 -0.8071 -0.2115
  102OSM    HNF10300   1.868   0.370  10.296 -0.3138 -1.9706  0.9075
  102OSM    C2S10301   1.907   0.393  10.502 -0.7489  0.3387  0.6269
  102OSM    H2S10302   1.992   0.453  10.538 -1.3173  1.4873  0.0977
  102OSM    C3S10303   1.943   0.243  10.524 -0.4537  0.3769  0.1297
  102OSM    H3S10304   1.874   0.173  10.473  1.6995 -2.9273  1.3900
  102OSM     O310305   1.937   0.195  10.659 -0.4911 -0.0825  0.0670
  102OSM    HO310306   1.888   0.263  10.705  0.0342 -0.1994  0.8122
  102OSM    C4S10307   2.081   0.215  10.469  0.0502  0.2292 -0.7588
  102OSM    H4S10308   2.167   0.256  10.524  0.0262 -0.5852 -0.0982
  102OSM    C5S10309   2.095   0.133  10.366  0.0307  0.3105  0.7455
  102OSM    H5S10310   2.006   0.101  10.309 -0.0207  1.9134 -0.1343
  102OSM    C6S10311   2.231   0.079  10.309 -0.4488  0.0365 -0.5081
  102OSM    H6S10312   2.254  -0.011  10.371 -1.2410 -1.6297 -2.5204
  102OSM    H6T10313   2.309   0.157  10.322  0.2464 -0.5955 -0.7787
  102OSM    C7S10314   2.224   0.044  10.158  0.3256 -0.6786  0.6728
  102OSM    H7S10315   2.217   0.141  10.105 -1.1633 -0.2519  1.5945
  102OSM    H7T10316   2.127  -0.005  10.137 -0.7555  1.8527 -0.5742
  102OSM    C8S10317   2.343  -0.039  10.109  0.3524  0.4042  0.0485
  102OSM    H8S10318   2.366  -0.116  10.186 -1.2049  1.1287  1.2888
  102OSM    H8T10319   2.431   0.029  10.104 -0.2299  1.0798 -1.2139
  102OSM    C9S10320   2.320  -0.109   9.972 -0.0512 -0.4053 -0.1837
  102OSM    H9S10321   2.224  -0.165   9.975 -1.6211  2.1445 -0.1592
  102OSM    H9T10322   2.402  -0.182   9.954 -0.5008 -1.0552  0.3559
  102OSM   C10S10323   2.341   0.001   9.870  1.2371 -0.2131 -0.6799
  102OSM   H10S10324   2.447   0.031   9.884  1.1320  0.2597 -0.8885
  102OSM   H10T10325   2.270   0.084   9.893  0.1693 -1.5959  1.3593
  102OSM   C11S10326   2.332  -0.046   9.729  0.0748 -0.5403  0.1008
  102OSM   H11S10327   2.234  -0.095   9.706 -0.4494  0.7834 -0.6120
  102OSM   H11T10328   2.409  -0.126   9.718  2.3241  1.1886  2.2893
  102OSM   C12S10329   2.362   0.069   9.633  0.0114  0.1824 -0.6035
  102OSM   H12S10330   2.460   0.111   9.664 -0.6403 -0.4528  2.6882
  102OSM   H12T10331   2.291   0.154   9.646  1.0925  0.8735  0.9662
  102OSM   C13S10332   2.370   0.015   9.490  0.1394 -0.1427  0.5615
  102OSM   H13S10333   2.280  -0.048   9.472 -0.1120  0.7070 -1.3986
  102OSM   H13T10334   2.461  -0.049   9.488  0.3292  0.0646 -2.5373
  102OSM   C14S10335   2.386   0.119   9.372 -1.1197 -0.4297 -0.2008
  102OSM   H14S10336   2.484   0.169   9.378 -1.3230 -0.1538  1.2905
  102OSM   H14T10337   2.307   0.195   9.390 -1.3575 -0.2900 -1.7473
  102OSM   C15S10338   2.376   0.051   9.235  0.2500  0.1108  0.3829
  102OSM   H15S10339   2.288  -0.017   9.231 -0.0270  0.3457  2.0513
  102OSM   H15T10340   2.463  -0.016   9.222  1.1237  1.3084 -0.1698
  102OSM   C16S10341   2.357   0.159   9.128  0.4798 -0.7298 -0.1103
  102OSM   H16S10342   2.310   0.249   9.175  0.5271 -0.5189 -0.4632
  102OSM   H16T10343   2.273   0.128   9.062  0.0424 -0.5785  0.3698
  102OSM   C17S10344   2.483   0.217   9.051 -0.0914 -0.1378 -0.1228
  102OSM   H17S10345   2.536   0.141   8.989 -1.1272 -0.1100 -1.0726
  102OSM   H17T10346   2.553   0.261   9.125 -0.8838  1.1221 -0.0957
  102OSM   C18S10347   2.432   0.323   8.956 -0.9625 -0.8210  0.2972
  102OSM   H18S10348   2.373   0.403   9.004 -1.6183 -1.3430  0.3787
  102OSM   H18T10349   2.354   0.276   8.892 -1.4598  1.1166 -0.5873
  102OSM   H18U10350   2.518   0.353   8.891  1.7752 -0.8520  3.6263
  102OSM    C1F10351   1.883   0.568  10.334  0.5252  0.0791  0.5596
  102OSM     OF10352   1.911   0.650  10.421  0.1801  0.3739  0.3363
  102OSM    C2F10353   1.857   0.605  10.183 -0.1821  0.0634 -0.2738
  102OSM    H2F10354   1.754   0.573  10.156  0.8459 -0.7723 -3.7358
  102OSM    H2G10355   1.937   0.541  10.141  0.0472  1.7266 -2.5310
  102OSM    C3F10356   1.887   0.743  10.144  0.0773 -0.0135  0.8718
  102OSM    H3F10357   1.992   0.775  10.164  1.4488 -3.2655 -0.4487
  102OSM    H3G10358   1.820   0.809  10.203  3.0451  1.6513  2.6850
  102OSM    C4F10359   1.873   0.764   9.994 -0.4495 -0.2092  0.1220
  102OSM    H4F10360   1.920   0.675   9.946  2.4603 -0.7275  3.5474
  102OSM    H4G10361   1.937   0.852   9.974  0.6155 -1.3160 -1.5887
  102OSM    C5F10362   1.726   0.791   9.955 -0.4743  0.0573 -0.1349
  102OSM    H5F10363   1.683   0.871  10.018  0.0708  0.6411 -0.4984
  102OSM    H5G10364   1.674   0.694   9.972 -0.1488  0.1987  1.9670
  102OSM    C6F10365   1.712   0.838   9.804 -0.0814  0.3453 -0.1403
  102OSM    H6F10366   1.772   0.926   9.774  0.7422 -0.0281  0.3789
  102OSM    H6G10367   1.604   0.860   9.788 -0.1201 -0.1140 -0.5244
  102OSM    C7F10368   1.740   0.728   9.709  0.4269  0.1858  0.4782
  102OSM    H7F10369   1.652   0.661   9.716  0.8069 -0.3321  0.4305
  102OSM    H7G10370   1.839   0.681   9.727  0.6972  0.8131  0.6600
  102OSM    C8F10371   1.750   0.768   9.556 -0.3571  0.8261 -0.6821
  102OSM    H8F10372   1.795   0.680   9.505 -0.9454  0.1970 -0.1428
  102OSM    H8G10373   1.821   0.853   9.546  1.1217 -0.0283  1.6896
  102OSM    C9F10374   1.625   0.817   9.482 -0.1700 -0.0000 -0.7220
  102OSM    H9F10375   1.591   0.922   9.483 -0.7907 -0.1910 -0.9297
  102OSM   C10F10376   1.536   0.735   9.425  0.0884  0.0796 -0.0456
  102OSM   H10F10377   1.446   0.778   9.377  0.0796 -0.9356 -0.9937
  102OSM   C11F10378   1.552   0.584   9.427 -0.1675 -0.2701 -0.2032
  102OSM   H11F10379   1.479   0.544   9.500  0.5895 -0.1885  0.6142
  102OSM   H11G10380   1.651   0.536   9.442  1.2760  1.6777 -2.6159
  102OSM   C12F10381   1.495   0.530   9.292 -0.7110 -0.0135  0.0407
  102OSM   H12F10382   1.395   0.576   9.273 -0.5578 -0.1039 -1.0447
  102OSM   H12G10383   1.477   0.423   9.312 -4.2300  1.1055  4.5216
  102OSM   C13F10384   1.582   0.553   9.166 -0.2865  0.3156 -0.5059
  102OSM   H13F10385   1.689   0.535   9.192  0.1524  0.9385 -1.7792
  102OSM   H13G10386   1.593   0.659   9.136  6.6344  0.0423 -0.7571
  102OSM   C14F10387   1.548   0.459   9.046  0.0045  0.0615 -0.4912
  102OSM   H14F10388   1.565   0.351   9.067 -0.7658 -0.1172 -0.7538
  102OSM   H14G10389   1.620   0.483   8.965  0.0488  0.1741 -0.4181
  102OSM   C15F10390   1.397   0.488   9.012 -0.1413 -0.1096 -0.0518
  102OSM   H15F10391   1.367   0.592   9.033  1.0201  0.1602  0.3627
  102OSM   H15G10392   1.338   0.432   9.088  0.9712 -0.3288  0.6776
  102OSM   C16F10393   1.370   0.442   8.871 -0.1011 -0.4728 -0.1631
  102OSM   H16F10394   1.262   0.419   8.867 -0.1209 -0.1908 -1.5596
  102OSM   H16G10395   1.434   0.353   8.854  1.2735  0.1075  1.6710
  102OSM   C17F10396   1.402   0.539   8.763  0.1038 -0.7031  0.1027
  102OSM   H17F10397   1.373   0.505   8.661 -0.5926 -0.5749  0.2550
  102OSM   H17G10398   1.509   0.562   8.780 -0.8421  2.6881  2.4369
  102OSM   C18F10399   1.310   0.667   8.782 -0.4453  0.7240  0.9494
  102OSM   H18F10400   1.327   0.731   8.692 -0.6639 -2.5825 -1.6233
  102OSM   H18G10401   1.341   0.716   8.877 -1.3421 -0.4895  1.8909
  102OSM   H18H10402   1.204   0.639   8.797  0.0737 -0.6080  2.3492
  103OSM      N10403   2.145   6.027  10.801 -0.2499 -0.5929  0.5421
  103OSM    C1510404   2.090   5.950  10.918  0.4375 -0.7456 -0.4414
  103OSM   H15A10405   2.169   5.947  10.991  0.0749  1.8767  0.1712
  103OSM   H15B10406   2.061   5.855  10.877  0.9985 -1.2071  0.2083
  103OSM   H15C10407   2.000   6.002  10.948 -0.2409 -1.2231 -1.5999
  103OSM    C1410408   2.041   6.031  10.685  0.0236 -0.2172 -0.2327
  103OSM   H14A10409   2.084   6.076  10.597  0.6159 -0.9825 -0.3519
  103OSM   H14B10410   1.956   6.089  10.717  0.8842  0.6212  0.5729
  103OSM   H14C10411   2.021   5.928  10.657  0.9673 -0.0817 -1.4984
  103OSM    C1310412   2.169   6.170  10.839 -0.5244  0.1625  0.4682
  103OSM   H13A10413   2.187   6.235  10.754 -0.4313  0.5566  0.7852
  103OSM   H13B10414   2.259   6.179  10.897 -0.2974  0.9184  0.0188
  103OSM   H13C10415   2.092   6.203  10.908  1.8379  0.0633  3.3605
  103OSM    C1210416   2.273   5.962  10.751  0.4521 -0.4091  0.9551
  103OSM   H12A10417   2.297   6.003  10.654  0.2086 -0.5004  0.8562
  103OSM   H12B10418   2.248   5.860  10.726  2.0003 -0.4022 -0.8936
  103OSM    C1110419   2.393   5.972  10.845 -0.1628  0.3768 -0.1780
  103OSM   H11A10420   2.476   5.919  10.794  1.2673  1.2357  1.1610
  103OSM   H11B10421   2.364   5.909  10.931 -0.7769 -0.2315 -0.8151
  103OSM      P10422   2.527   6.197  10.799 -0.1371  0.1772 -0.2403
  103OSM    O1310423   2.525   6.341  10.830  0.4883 -0.6531  0.4412
  103OSM    O1410424   2.660   6.133  10.814 -0.5372  0.0899 -0.3980
  103OSM    O1110425   2.460   6.174  10.652 -0.3340  0.2954  0.0506
  103OSM    O1210426   2.428   6.110  10.893 -0.6092  0.6605  0.3174
  103OSM    C1S10427   2.531   6.100  10.556 -0.3013 -0.4722 -0.4999
  103OSM    H1S10428   2.523   5.994  10.588  0.5667  0.3900  3.1106
  103OSM    H1T10429   2.639   6.124  10.545  0.0521 -2.0676 -0.7028
  103OSM     NF10430   2.568   6.053  10.321 -0.4027  0.1049 -0.2106
  103OSM    HNF10431   2.605   6.125  10.262 -3.6031  1.3900 -0.8570
  103OSM    C2S10432   2.472   6.117  10.408 -0.6311  0.3341 -0.0082
  103OSM    H2S10433   2.375   6.064  10.406 -1.4618  1.6590  1.9459
  103OSM    C3S10434   2.445   6.271  10.375 -0.1918 -0.0825 -0.5789
  103OSM    H3S10435   2.538   6.331  10.388 -0.9257  0.8705  0.3587
  103OSM     O310436   2.338   6.335  10.450 -0.6439 -0.1452 -0.0470
  103OSM    HO310437   2.310   6.276  10.520  0.8322 -0.1139  0.6143
  103OSM    C4S10438   2.417   6.291  10.232  0.3342 -0.0601  0.5337
  103OSM    H4S10439   2.501   6.329  10.172  0.8357 -2.4494 -0.3834
  103OSM    C5S10440   2.305   6.251  10.161 -0.1780 -0.6499  0.0673
  103OSM    H5S10441   2.221   6.196  10.207 -1.0343  0.8975  0.4237
  103OSM    C6S10442   2.274   6.284  10.016 -0.2789 -0.0031  0.4427
  103OSM    H6S10443   2.322   6.376   9.979 -0.7604  0.3558  0.6972
  103OSM    H6T10444   2.168   6.316  10.011 -0.4715 -0.8375 -2.5875
  103OSM    C7S10445   2.301   6.179   9.901  0.5523  0.6386 -0.0881
  103OSM    H7S10446   2.257   6.221   9.808 -0.2987 -0.9113 -0.4030
  103OSM    H7T10447   2.246   6.084   9.912  2.3293 -0.4583 -0.2692
  103OSM    C8S10448   2.450   6.168   9.867  0.8282 -0.2748 -0.1279
  103OSM    H8S10449   2.475   6.075   9.812 -0.1728  0.3362 -1.6752
  103OSM    H8T10450   2.505   6.162   9.963  1.4764 -1.7397 -0.5599
  103OSM    C9S10451   2.512   6.277   9.777  0.5654 -0.0052  0.6790
  103OSM    H9S10452   2.618   6.259   9.752  1.4862  3.0681  1.9519
  103OSM    H9T10453   2.505   6.374   9.831 -6.3515 -0.3581  1.3310
  103OSM   C10S10454   2.441   6.291   9.636 -0.3998  0.4052 -0.3736
  103OSM   H10S10455   2.339   6.336   9.645  0.6436  2.6992  1.1151
  103OSM   H10T10456   2.430   6.186   9.604 -0.5322 -0.2532  1.6992
  103OSM   C11S10457   2.525   6.368   9.535  0.4976 -0.7929  0.1598
  103OSM   H11S10458   2.632   6.339   9.527  1.0779  1.6395 -2.3976
  103OSM   H11T10459   2.515   6.473   9.570 -2.5109 -0.7575 -0.5997
  103OSM   C12S10460   2.459   6.355   9.404 -0.3786 -0.6186 -0.0089
  103OSM   H12S10461   2.354   6.394   9.406 -0.3725 -0.3982 -1.9851
  103OSM   H12T10462   2.453   6.249   9.370 -0.4669 -0.3072 -1.0146
  103OSM   C13S10463   2.534   6.442   9.307 -0.1690  0.0449  0.0965
  103OSM   H13S10464   2.632   6.393   9.292 -2.3049 -3.7636 -3.8441
  103OSM   H13T10465   2.540   6.545   9.349 -1.4074  0.8002 -1.4594
  103OSM   C14S10466   2.470   6.450   9.167  0.1145  0.2951 -0.3277
  103OSM   H14S10467   2.371   6.501   9.174  0.1764  0.3547  0.1813
  103OSM   H14T10468   2.439   6.354   9.121 -0.6496  0.6837 -0.6524
  103OSM   C15S10469   2.565   6.523   9.075  0.1803 -0.2823 -0.6446
  103OSM   H15S10470   2.655   6.462   9.054  1.0745  0.5283  0.6575
  103OSM   H15T10471   2.598   6.617   9.125  1.4198 -0.0001 -1.9478
  103OSM   C16S10472   2.502   6.565   8.941  0.0044  0.0409 -0.5036
  103OSM   H16S10473   2.416   6.631   8.963  2.0921  2.7513 -0.0795
  103OSM   H16T10474   2.470   6.473   8.886 -0.2318 -0.6677  0.7802
  103OSM   C17S10475   2.602   6.633   8.847  0.4215  0.2603 -0.1568
  103OSM   H17S10476   2.671   6.560   8.801 -0.4740 -0.8939  0.3046
  103OSM   H17T10477   2.663   6.703   8.908  0.5660 -0.6006  0.7162
  103OSM   C18S10478   2.535   6.726   8.745 -0.3552 -0.0200 -0.4292
  103OSM   H18S10479   2.497   6.673   8.655 -1.6961 -0.1369  0.1921
  103OSM   H18T10480   2.599   6.815   8.725 -1.9138  1.6441  1.5564
  103OSM   H18U10481   2.446   6.774   8.790  0.5402  1.9829 -0.6765
  103OSM    C1F10482   2.586   5.919  10.320 -0.0606  0.5336  0.2376
  103OSM     OF10483   2.515   5.841  10.389  0.5075 -0.0036 -0.0064
  103OSM    C2F10484   2.694   5.874  10.225 -0.0311 -0.0345  0.2144
  103OSM    H2F10485   2.747   5.784  10.262 -0.2729 -0.2445  0.0613
  103OSM    H2G10486   2.771   5.954  10.233 -0.7631  0.7161 -0.0456
  103OSM    C3F10487   2.648   5.849  10.070  0.3420  0.0550  0.0726
  103OSM    H3F10488   2.587   5.940  10.048 -0.0159 -0.4665 -1.1996
  103OSM    H3G10489   2.584   5.759  10.063 -0.2022  0.3831  0.6377
  103OSM    C4F10490   2.769   5.848   9.979 -0.0033 -0.2468  0.3463
  103OSM    H4F10491   2.818   5.748   9.988  0.5995 -0.1192 -1.3297
  103OSM    H4G10492   2.840   5.928  10.007  0.0034  0.1196 -0.6816
  103OSM    C5F10493   2.726   5.872   9.832  0.3660 -0.3580 -0.6399
  103OSM    H5F10494   2.650   5.953   9.831 -0.9744 -1.5627 -1.4612
  103OSM    H5G10495   2.666   5.783   9.802  0.5044  0.0010 -2.0752
  103OSM    C6F10496   2.841   5.875   9.737  0.4574  0.3345 -0.1210
  103OSM    H6F10497   2.912   5.794   9.765  2.0752  2.2157  1.5637
  103OSM    H6G10498   2.910   5.961   9.749  1.2981 -0.5854  2.1820
  103OSM    C7F10499   2.787   5.861   9.592  0.7402 -0.1059 -0.1652
  103OSM    H7F10500   2.741   5.959   9.567 -1.1473  0.1132  3.4730
  103OSM    H7G10501   2.695   5.799   9.598  0.4679  0.3135  0.0248
  103OSM    C8F10502   2.899   5.813   9.490 -0.1046 -0.0364  0.3404
  103OSM    H8F10503   2.988   5.880   9.493  0.1141 -0.2231 -0.9947
  103OSM    H8G10504   2.852   5.838   9.392 -1.9136  0.2997  1.2582
  103OSM    C9F10505   2.951   5.674   9.517  0.5534 -0.7726  0.1082
  103OSM    H9F10506   3.006   5.679   9.612  1.0770  0.6216 -0.2297
  103OSM   C10F10507   2.932   5.567   9.445  0.2236 -0.1149  0.3377
  103OSM   H10F10508   2.971   5.471   9.482  1.4063  0.0508 -0.4431
  103OSM   C11F10509   2.866   5.563   9.310 -0.4441 -0.2284 -0.2183
  103OSM   H11F10510   2.950   5.544   9.240  1.0848  2.4079  0.7353
  103OSM   H11G10511   2.829   5.663   9.280 -2.7541 -0.7238  0.8148
  103OSM   C12F10512   2.739   5.472   9.302  0.3092 -0.1965 -0.6949
  103OSM   H12F10513   2.665   5.532   9.361  0.2034 -0.1241 -0.9002
  103OSM   H12G10514   2.759   5.375   9.352 -1.4041 -0.5271 -0.5799
  103OSM   C13F10515   2.696   5.444   9.158  0.0876 -0.0402  0.2150
  103OSM   H13F10516   2.690   5.542   9.106 -1.3952 -0.2563 -0.0737
  103OSM   H13G10517   2.776   5.387   9.106  0.0968  0.6856 -0.5837
  103OSM   C14F10518   2.557   5.378   9.140 -0.0546 -0.2076  0.4731
  103OSM   H14F10519   2.476   5.442   9.182  0.9726  0.5884  1.3029
  103OSM   H14G10520   2.570   5.279   9.190 -0.9280 -0.7878 -0.4156
  103OSM   C15F10521   2.525   5.345   8.985  0.0400  0.1018  0.2153
  103OSM   H15F10522   2.429   5.292   8.970  0.0505 -0.2399  1.3094
  103OSM   H15G10523   2.602   5.275   8.947  1.7725  1.8090  0.4100
  103OSM   C16F10524   2.528   5.469   8.893  0.2773 -0.2291 -0.0195
  103OSM   H16F10525   2.624   5.523   8.904 -1.0727  2.0472  1.2867
  103OSM   H16G10526   2.446   5.541   8.914 -0.3762 -0.2357 -2.2688
  103OSM   C17F10527   2.509   5.427   8.743 -0.0905  0.0199  0.8270
  103OSM   H17F10528   2.570   5.340   8.713 -2.0086 -0.7365 -1.1725
  103OSM   H17G10529   2.538   5.511   8.676  2.1831 -0.7124  0.8029
  103OSM   C18F10530   2.373   5.382   8.701  0.2060 -0.0710 -0.2823
  103OSM   H18F10531   2.369   5.278   8.742  2.5756 -0.3504 -0.6159
  103OSM   H18G10532   2.360   5.376   8.591 -2.0400 -3.6928 -0.0028
  103OSM   H18H10533   2.291   5.446   8.740 -0.2219  0.8106 -2.4885
  104OSM      N10534   1.806   1.433  10.921  0.2548  0.0809  0.0055
  104OSM    C1510535   1.938   1.505  10.933 -0.3585  0.1719 -0.0171
  104OSM   H15A10536   1.933   1.612  10.940  0.0296  0.2671 -0.9843
  104OSM   H15B10537   2.000   1.474  10.850  0.0653 -1.6917  0.9276
  104OSM   H15C10538   1.988   1.458  11.016 -0.7461 -2.4119 -1.1417
  104OSM    C1410539   1.757   1.470  10.782 -0.6900  0.7516 -0.4680
  104OSM   H14A10540   1.814   1.408  10.714 -2.1392 -1.8838  0.5670
  104OSM   H14B10541   1.782   1.571  10.754  1.1724  0.2144 -0.8778
  104OSM   H14C10542   1.653   1.449  10.762 -0.9019  1.6002 -0.3304
  104OSM    C1310543   1.835   1.293  10.948  0.9342  0.3498 -0.2162
  104OSM   H13A10544   1.885   1.270  11.041  0.0941 -1.4546 -0.1689
  104OSM   H13B10545   1.896   1.244  10.874 -1.7420  0.2955 -2.5410
  104OSM   H13C10546   1.745   1.234  10.940  1.3673 -0.6290  1.5817
  104OSM    C1210547   1.711   1.481  11.023 -0.3977  0.0204 -0.6414
  104OSM   H12A10548   1.683   1.581  10.995  1.4423  0.4602 -1.0313
  104OSM   H12B10549   1.762   1.477  11.119 -0.4022  0.5113 -0.6171
  104OSM    C1110550   1.577   1.401  11.032  0.2130 -0.1670 -0.0377
  104OSM   H11A10551   1.512   1.447  11.110 -1.8206  1.0376 -2.2901
  104OSM   H11B10552   1.597   1.301  11.074  0.5398  0.0627  0.3621
  104OSM      P10553   1.426   1.281  10.857 -0.1686 -0.0785 -0.6873
  104OSM    O1310554   1.504   1.154  10.866  0.2399 -0.0114 -0.0717
  104OSM    O1410555   1.292   1.291  10.914  0.4978 -0.1057 -0.2149
  104OSM    O1110556   1.420   1.325  10.704  0.2387  0.5493  0.6410
  104OSM    O1210557   1.510   1.404  10.908 -0.1765 -0.0376  0.5252
  104OSM    C1S10558   1.459   1.236  10.596  0.7504 -0.0902 -0.4778
  104OSM    H1S10559   1.374   1.165  10.587  1.7244 -1.7829  2.5582
  104OSM    H1T10560   1.553   1.179  10.612  0.4835 -1.8365 -4.0151
  104OSM     NF10561   1.459   1.217  10.347 -0.7465  0.8922  0.8211
  104OSM    HNF10562   1.546   1.191  10.306 -0.4699  2.2509  0.4784
  104OSM    C2S10563   1.454   1.308  10.459 -0.1793  0.3307  0.4540
  104OSM    H2S10564   1.356   1.359  10.456 -0.5456 -0.3560  0.5116
  104OSM    C3S10565   1.569   1.411  10.446  0.2678 -0.0269 -0.4511
  104OSM    H3S10566   1.666   1.357  10.455  1.0300  1.2608 -0.7144
  104OSM     O310567   1.573   1.507  10.554  0.6334 -0.3881 -0.0970
  104OSM    HO310568   1.515   1.468  10.620 -0.1162 -0.9111 -1.0357
  104OSM    C4S10569   1.560   1.476  10.310  0.4164 -0.1308 -0.3465
  104OSM    H4S10570   1.458   1.506  10.283  0.8270  0.5173 -1.2587
  104OSM    C5S10571   1.660   1.509  10.230  0.3016 -0.1368  0.2820
  104OSM    H5S10572   1.760   1.484  10.267 -0.0393  0.5536  1.7972
  104OSM    C6S10573   1.649   1.574  10.090 -0.3036  0.3309  0.2254
  104OSM    H6S10574   1.666   1.684  10.098 -0.2762  0.4647 -1.4083
  104OSM    H6T10575   1.547   1.558  10.050  0.4049 -0.5628 -1.3234
  104OSM    C7S10576   1.748   1.503   9.990 -0.0647 -0.0854 -0.0012
  104OSM    H7S10577   1.707   1.401   9.970 -0.1346 -0.5796  2.4192
  104OSM    H7T10578   1.844   1.489  10.044 -0.2479  0.6757  0.5416
  104OSM    C8S10579   1.766   1.587   9.859  0.0283 -0.4741  0.7726
  104OSM    H8S10580   1.841   1.665   9.882 -1.9513  1.5950  0.6137
  104OSM    H8T10581   1.664   1.627   9.841 -0.3453 -2.6824 -3.2985
  104OSM    C9S10582   1.813   1.513   9.733  0.3703 -0.4695 -0.0627
  104OSM    H9S10583   1.758   1.418   9.717  2.1614 -1.4836 -0.4982
  104OSM    H9T10584   1.909   1.463   9.758  0.1151 -0.1162  1.7036
  104OSM   C10S10585   1.827   1.599   9.607 -0.1190  0.0834 -0.5853
  104OSM   H10S10586   1.891   1.685   9.635 -0.4721  0.9852 -2.4069
  104OSM   H10T10587   1.728   1.644   9.583 -0.6042 -1.1734 -1.0414
  104OSM   C11S10588   1.895   1.529   9.486 -0.4615 -0.1100 -0.2758
  104OSM   H11S10589   1.867   1.422   9.481 -1.8447  0.2681 -1.1332
  104OSM   H11T10590   2.004   1.540   9.501 -0.6604 -0.2343  1.4996
  104OSM   C12S10591   1.849   1.595   9.358  0.1594 -0.9391 -0.3746
  104OSM   H12S10592   1.863   1.706   9.362 -1.3543 -0.7342  0.1302
  104OSM   H12T10593   1.738   1.585   9.361 -0.2702  2.2872 -1.0478
  104OSM   C13S10594   1.911   1.540   9.230 -0.3192 -0.8664  0.2026
  104OSM   H13S10595   1.916   1.429   9.231 -0.7821 -0.8996 -0.6815
  104OSM   H13T10596   2.013   1.583   9.220  0.1218 -1.6033  1.3351
  104OSM   C14S10597   1.849   1.588   9.099 -0.5055  0.3628 -0.1134
  104OSM   H14S10598   1.740   1.568   9.091 -0.4044 -0.5268  0.6040
  104OSM   H14T10599   1.898   1.545   9.009 -1.0785  0.6615 -0.5748
  104OSM   C15S10600   1.849   1.738   9.090 -0.1513  0.2559  0.8680
  104OSM   H15S10601   1.953   1.774   9.101  0.2126 -1.1748  2.6996
  104OSM   H15T10602   1.780   1.789   9.161 -0.9151  2.3475 -1.2350
  104OSM   C16S10603   1.791   1.772   8.948  0.2348 -0.5611 -0.2416
  104OSM   H16S10604   1.683   1.744   8.952 -0.3049  1.3578 -0.3689
  104OSM   H16T10605   1.836   1.706   8.870 -0.4800  0.0323 -1.1848
  104OSM   C17S10606   1.796   1.925   8.900 -0.8570  0.3878 -0.0509
  104OSM   H17S10607   1.896   1.938   8.853 -0.5161 -2.5959 -0.3683
  104OSM   H17T10608   1.792   1.980   8.997 -0.8259 -0.2618  0.3256
  104OSM   C18S10609   1.672   1.956   8.820 -0.9784  0.1448  0.1854
  104OSM   H18S10610   1.655   1.877   8.743  2.0072 -0.7646  0.3356
  104OSM   H18T10611   1.679   2.058   8.777 -2.4837 -0.1037 -0.7324
  104OSM   H18U10612   1.578   1.953   8.880 -0.1373 -1.4097  1.4726
  104OSM    C1F10613   1.352   1.154  10.293  0.0170 -0.6828  0.2750
  104OSM     OF10614   1.245   1.180  10.341  0.8779  0.5665  0.1195
  104OSM    C2F10615   1.386   1.051  10.191 -0.2048 -0.2507  0.1669
  104OSM    H2F10616   1.405   0.958  10.250  0.6064  1.1734  2.2614
  104OSM    H2G10617   1.481   1.082  10.144  0.4107  0.9278  2.0597
  104OSM    C3F10618   1.271   1.043  10.082  0.0100  0.4406  0.1295
  104OSM    H3F10619   1.173   1.043  10.135  0.2446 -0.1227  0.5875
  104OSM    H3G10620   1.279   0.942  10.035  1.2378  1.6566 -2.4350
  104OSM    C4F10621   1.282   1.148   9.966  0.0323  0.6933 -0.1657
  104OSM    H4F10622   1.300   1.250  10.007 -1.6355  1.6220 -1.5752
  104OSM    H4G10623   1.189   1.131   9.907  0.5825  0.9270 -1.1343
  104OSM    C5F10624   1.398   1.117   9.875 -0.2622 -0.3999 -0.1486
  104OSM    H5F10625   1.378   1.028   9.812 -1.6996  2.5281 -4.3050
  104OSM    H5G10626   1.488   1.092   9.936 -0.7541 -1.0992  0.2997
  104OSM    C6F10627   1.429   1.232   9.774  0.6840 -0.4109  0.2767
  104OSM    H6F10628   1.479   1.316   9.826  1.0133 -2.1948  3.0172
  104OSM    H6G10629   1.331   1.270   9.740  1.0837 -0.3892 -0.9071
  104OSM    C7F10630   1.497   1.178   9.651 -0.3879  0.6136 -0.5190
  104OSM    H7F10631   1.459   1.075   9.634  0.2694  0.3344 -0.2965
  104OSM    H7G10632   1.604   1.165   9.677 -0.7639 -0.2243  0.7107
  104OSM    C8F10633   1.486   1.263   9.523 -0.4322  0.4002 -0.0220
  104OSM    H8F10634   1.537   1.361   9.534 -0.0601  0.0792  1.3323
  104OSM    H8G10635   1.378   1.281   9.501  0.1499  0.3850 -3.3615
  104OSM    C9F10636   1.566   1.190   9.413  0.1817 -0.1730  0.2682
  104OSM    H9F10637   1.676   1.200   9.416  0.7698 -4.1752 -1.5658
  104OSM   C10F10638   1.509   1.123   9.308  0.2288  0.6233 -0.6606
  104OSM   H10F10639   1.579   1.087   9.231  1.2495 -0.0576  0.5416
  104OSM   C11F10640   1.370   1.087   9.280  0.5179 -0.1732 -0.5732
  104OSM   H11F10641   1.312   1.093   9.375 -0.0298  1.0243 -0.9698
  104OSM   H11G10642   1.362   0.984   9.240 -1.3057 -0.1306 -0.3765
  104OSM   C12F10643   1.314   1.181   9.177  0.5041  0.0122 -0.2669
  104OSM   H12F10644   1.371   1.276   9.165 -3.0987  2.1387 -2.3678
  104OSM   H12G10645   1.205   1.194   9.199  0.4559 -0.7318 -0.0384
  104OSM   C13F10646   1.312   1.113   9.044 -0.0519  0.6132  0.3591
  104OSM   H13F10647   1.244   1.026   9.037  0.3371  0.3101  0.3171
  104OSM   H13G10648   1.411   1.073   9.016 -0.3302  0.0434  0.1732
  104OSM   C14F10649   1.264   1.205   8.930 -0.5068 -0.4543  0.4038
  104OSM   H14F10650   1.160   1.235   8.956 -1.3271 -1.3960 -1.6542
  104OSM   H14G10651   1.260   1.134   8.845 -0.4821  0.2480 -0.1881
  104OSM   C15F10652   1.335   1.338   8.902  0.0123  0.0331 -0.1670
  104OSM   H15F10653   1.320   1.401   8.992  1.7369 -2.2507  1.8222
  104OSM   H15G10654   1.281   1.385   8.817  1.6378 -1.6048 -2.2047
  104OSM   C16F10655   1.483   1.323   8.878  0.1237 -0.0152  0.3985
  104OSM   H16F10656   1.494   1.266   8.783 -0.0980  0.8414 -0.1534
  104OSM   H16G10657   1.534   1.269   8.961  1.5013  2.7040  1.4227
  104OSM   C17F10658   1.552   1.457   8.851 -0.4727 -0.3650 -0.7651
  104OSM   H17F10659   1.552   1.488   8.958  2.2314 -0.4702 -0.6652
  104OSM   H17G10660   1.499   1.530   8.787  0.6986 -0.5276 -1.9521
  104OSM   C18F10661   1.699   1.439   8.823  0.2479  0.4138  0.0469
  104OSM   H18F10662   1.744   1.380   8.905 -1.9310 -1.5770 -0.1065
  104OSM   H18G10663   1.741   1.542   8.814 -0.8982  0.9063  0.2055
  104OSM   H18H10664   1.719   1.395   8.723  0.4844  0.8275 -0.0950
  105OSM      N10665   6.573   2.380  11.009  0.5338 -0.3581 -0.5661
  105OSM    C1510666   6.539   2.254  11.088  0.2198  0.7055  0.1595
  105OSM   H15A10667   6.524   2.279  11.192  1.2277  1.2665  0.1856
  105OSM   H15B10668   6.617   2.180  11.085 -0.5231 -0.0961 -2.9453
  105OSM   H15C10669   6.451   2.208  11.045  0.3726 -2.4916  2.8960
  105OSM    C1410670   6.707   2.437  11.060  0.1423 -0.1571  0.5281
  105OSM   H14A10671   6.776   2.355  11.044  1.0876  0.7161 -0.0019
  105OSM   H14B10672   6.710   2.463  11.165  1.8859  1.1123  0.2216
  105OSM   H14C10673   6.744   2.520  11.001 -0.1291 -2.3247 -2.9725
  105OSM    C1310674   6.590   2.350  10.861 -0.3183  0.1167  0.0074
  105OSM   H13A10675   6.495   2.336  10.812 -0.1710  0.0598 -0.2647
  105OSM   H13B10676   6.646   2.262  10.837 -0.9916 -0.6233  1.0620
  105OSM   H13C10677   6.641   2.434  10.816  1.4995 -1.1519 -0.4034
  105OSM    C1210678   6.463   2.488  11.024  0.4562 -0.5975 -0.1515
  105OSM   H12A10679   6.492   2.577  10.970  1.8231  0.7893  2.6888
  105OSM   H12B10680   6.463   2.521  11.126 -1.9179  0.1002 -0.3200
  105OSM    C1110681   6.315   2.452  10.991 -0.4818  0.2313 -0.2422
  105OSM   H11A10682   6.249   2.540  11.004  0.9444  1.4293 -0.7990
  105OSM   H11B10683   6.289   2.378  11.069  0.2568 -0.6887 -0.8414
  105OSM      P10684   6.236   2.271  10.818 -0.1116  0.1140  0.3076
  105OSM    O1310685   6.333   2.166  10.865  0.5281  0.1420 -0.4733
  105OSM    O1410686   6.096   2.273  10.863  0.1100  0.4637 -0.7193
  105OSM    O1110687   6.233   2.248  10.657 -0.1716 -0.6067  0.1494
  105OSM    O1210688   6.303   2.417  10.851  0.6012  0.2905 -0.6018
  105OSM    C1S10689   6.255   2.365  10.576  0.1967  0.2946  0.1589
  105OSM    H1S10690   6.361   2.398  10.580  0.4854 -0.0597 -2.5939
  105OSM    H1T10691   6.184   2.450  10.592  0.6560  0.7876 -0.3878
  105OSM     NF10692   6.295   2.446  10.343  0.2010  0.9904  0.2416
  105OSM    HNF10693   6.232   2.510  10.302 -0.1022  0.3630 -0.2857
  105OSM    C2S10694   6.242   2.334  10.423  0.6749 -0.2632 -0.6493
  105OSM    H2S10695   6.308   2.249  10.396  1.4168  0.9486 -3.0191
  105OSM    C3S10696   6.092   2.300  10.384  0.4300  0.1397  0.1275
  105OSM    H3S10697   6.028   2.383  10.421 -0.4105  0.3394 -1.6646
  105OSM     O310698   6.056   2.178  10.449 -0.0934  0.4451  0.4127
  105OSM    HO310699   6.130   2.158  10.506  1.2015  0.5731 -1.1656
  105OSM    C4S10700   6.075   2.290  10.237  0.0113  0.1601  0.5117
  105OSM    H4S10701   6.079   2.394  10.200  0.7355  0.2819  0.9313
  105OSM    C5S10702   6.047   2.187  10.155 -0.1136 -0.4356 -0.5944
  105OSM    H5S10703   6.043   2.086  10.198 -1.6576 -0.8575 -1.6411
  105OSM    C6S10704   6.028   2.203  10.013 -0.0069 -0.1779  0.1383
  105OSM    H6S10705   6.029   2.311   9.985 -2.2773 -0.2805 -0.5724
  105OSM    H6T10706   5.927   2.164   9.991 -0.6580 -0.4194  3.1816
  105OSM    C7S10707   6.127   2.140   9.915  0.0017 -1.6316 -0.0930
  105OSM    H7S10708   6.091   2.169   9.814  1.1011 -2.3889 -0.7238
  105OSM    H7T10709   6.111   2.032   9.937 -1.0777 -1.2413  1.1455
  105OSM    C8S10710   6.280   2.177   9.928 -0.1760  0.4713 -0.7819
  105OSM    H8S10711   6.311   2.149  10.031 -0.9972  0.2200 -0.5981
  105OSM    H8T10712   6.300   2.286   9.919  0.3548  0.6246  1.4546
  105OSM    C9S10713   6.373   2.103   9.826  0.0515  0.2059 -0.6726
  105OSM    H9S10714   6.370   1.999   9.864  1.7114  0.8974  1.5644
  105OSM    H9T10715   6.481   2.127   9.837 -0.1437  0.6261  0.5661
  105OSM   C10S10716   6.329   2.119   9.684 -0.2298 -0.0728 -0.1525
  105OSM   H10S10717   6.320   2.229   9.672  1.3221  0.0604 -0.3901
  105OSM   H10T10718   6.226   2.077   9.680 -0.2421 -0.0746  0.1494
  105OSM   C11S10719   6.423   2.053   9.576 -0.3199 -0.9321 -0.5008
  105OSM   H11S10720   6.434   1.948   9.608  2.8082 -1.2198 -2.1349
  105OSM   H11T10721   6.517   2.110   9.590 -1.7324  1.6901 -0.8384
  105OSM   C12S10722   6.386   2.068   9.432  0.5872  0.0376  0.8085
  105OSM   H12S10723   6.366   2.177   9.425 -0.9124 -0.0452  2.8821
  105OSM   H12T10724   6.293   2.012   9.408  0.8984  1.2314 -4.4063
  105OSM   C13S10725   6.500   2.012   9.343 -0.6002 -0.7335  0.0797
  105OSM   H13S10726   6.539   1.919   9.388 -0.1553  0.3782  2.1458
  105OSM   H13T10727   6.579   2.090   9.345  0.3891 -1.7302  1.3020
  105OSM   C14S10728   6.455   1.996   9.197  0.1609  0.7348  0.5468
  105OSM   H14S10729   6.393   1.904   9.188 -1.4392  1.6028  2.1563
  105OSM   H14T10730   6.548   1.977   9.140 -0.1857 -1.2397  0.5719
  105OSM   C15S10731   6.375   2.111   9.130  0.1791  0.1093  0.0545
  105OSM   H15S10732   6.435   2.202   9.150 -2.3865  2.1471 -1.0131
  105OSM   H15T10733   6.273   2.122   9.172 -0.2220 -0.5140 -0.7390
  105OSM   C16S10734   6.363   2.087   8.979  0.1816  0.7298 -0.2388
  105OSM   H16S10735   6.266   2.034   8.968 -1.2594  2.2441  3.6353
  105OSM   H16T10736   6.444   2.017   8.945 -0.6176  0.1162 -0.9323
  105OSM   C17S10737   6.377   2.206   8.892 -0.5562 -0.1613  0.6233
  105OSM   H17S10738   6.337   2.296   8.945 -1.8130  1.3909 -2.6577
  105OSM   H17T10739   6.311   2.194   8.804  0.6087 -2.1489 -0.0253
  105OSM   C18S10740   6.520   2.244   8.858  0.4282 -0.4649 -0.1305
  105OSM   H18S10741   6.518   2.322   8.779  1.9057 -0.0422  0.2040
  105OSM   H18T10742   6.581   2.155   8.830  0.9477 -0.6776  1.5765
  105OSM   H18U10743   6.560   2.289   8.952  1.2839 -1.4730  0.0039
  105OSM    C1F10744   6.421   2.472  10.332  0.5749  0.0490  0.1972
  105OSM     OF10745   6.513   2.398  10.375  0.1232 -0.1105  0.1808
  105OSM    C2F10746   6.452   2.596  10.249  0.1974 -0.3253 -0.2006
  105OSM    H2F10747   6.488   2.675  10.318  0.0115 -1.6848  1.5195
  105OSM    H2G10748   6.364   2.626  10.188 -0.2170  0.0317  0.5691
  105OSM    C3F10749   6.584   2.584  10.167 -0.8865  0.1111  0.0169
  105OSM    H3F10750   6.669   2.538  10.222  0.6072  1.3447 -1.1691
  105OSM    H3G10751   6.611   2.683  10.125  2.0146  0.4019  2.2409
  105OSM    C4F10752   6.569   2.494  10.036 -0.2499 -0.1543 -0.1558
  105OSM    H4F10753   6.551   2.388  10.065 -0.3712  0.2717  1.4151
  105OSM    H4G10754   6.672   2.490   9.993  0.4249 -0.4467  1.3999
  105OSM    C5F10755   6.461   2.540   9.943  0.1792  0.1199  0.2695
  105OSM    H5F10756   6.459   2.648   9.921  0.6560  0.1183  0.2147
  105OSM    H5G10757   6.365   2.509   9.989  1.1192 -1.7025  1.1299
  105OSM    C6F10758   6.472   2.467   9.808  0.9022  0.6152 -0.0064
  105OSM    H6F10759   6.388   2.504   9.745  0.8493 -0.8779 -0.8598
  105OSM    H6G10760   6.472   2.359   9.836  0.1045  0.6604  0.1868
  105OSM    C7F10761   6.598   2.507   9.740 -0.2926 -0.1306  0.0458
  105OSM    H7F10762   6.684   2.496   9.810 -1.7223  1.8540  2.2745
  105OSM    H7G10763   6.611   2.616   9.723  2.2584 -0.4990 -0.8294
  105OSM    C8F10764   6.635   2.447   9.601  0.0793  0.1314  0.4500
  105OSM    H8F10765   6.636   2.336   9.611 -0.1370  0.0275 -0.6157
  105OSM    H8G10766   6.739   2.478   9.577  0.0888 -0.8216 -0.8856
  105OSM    C9F10767   6.539   2.475   9.489 -0.5265  0.5014 -0.1269
  105OSM    H9F10768   6.436   2.502   9.519 -0.6547  1.2912 -1.1875
  105OSM   C10F10769   6.555   2.446   9.360  0.1083  0.1838 -0.3237
  105OSM   H10F10770   6.473   2.479   9.295 -0.8428  1.4160  1.3936
  105OSM   C11F10771   6.688   2.388   9.315 -0.0565  0.3945 -0.2082
  105OSM   H11F10772   6.664   2.287   9.276  2.4883 -1.1646  1.9039
  105OSM   H11G10773   6.761   2.376   9.398  0.3408  1.6098 -0.3648
  105OSM   C12F10774   6.765   2.483   9.231 -0.4003 -0.3193 -0.4054
  105OSM   H12F10775   6.869   2.445   9.221 -0.4374 -0.7792  0.7374
  105OSM   H12G10776   6.772   2.584   9.275 -0.9866  0.6868 -2.5107
  105OSM   C13F10777   6.714   2.496   9.084 -0.4855 -0.0267 -0.2107
  105OSM   H13F10778   6.605   2.514   9.093 -0.0903  4.3354 -1.6545
  105OSM   H13G10779   6.754   2.412   9.023  0.5166  1.9831 -2.5024
  105OSM   C14F10780   6.756   2.627   9.009  0.1189  0.0052 -0.4605
  105OSM   H14F10781   6.867   2.635   9.007  0.2706 -1.8633 -2.4729
  105OSM   H14G10782   6.711   2.709   9.069 -2.4308 -0.9865 -0.8816
  105OSM   C15F10783   6.707   2.662   8.866 -0.2279 -1.1889 -0.1259
  105OSM   H15F10784   6.603   2.624   8.868 -0.3816 -0.8522 -1.1375
  105OSM   H15G10785   6.757   2.600   8.788  1.8098  0.6918 -0.4135
  105OSM   C16F10786   6.729   2.801   8.812  0.6557  0.7509  0.0104
  105OSM   H16F10787   6.836   2.832   8.803  1.9175 -3.2547 -0.8198
  105OSM   H16G10788   6.692   2.877   8.883  0.5630  2.2532 -1.5973
  105OSM   C17F10789   6.655   2.826   8.681  0.3171 -0.3562 -0.0987
  105OSM   H17F10790   6.666   2.932   8.650  2.7372 -0.4186  0.3064
  105OSM   H17G10791   6.548   2.802   8.700  0.7183 -3.0856 -0.8220
  105OSM   C18F10792   6.687   2.732   8.560  0.5759  0.7148  0.7735
  105OSM   H18F10793   6.650   2.781   8.467 -0.3164 -0.3070  0.5681
  105OSM   H18G10794   6.627   2.639   8.571 -1.7427  1.8563 -1.1705
  105OSM   H18H10795   6.794   2.708   8.548  0.8305  1.3835  1.6050
  106OSM      N10796   1.171   5.769  10.931  0.0096 -0.6752 -0.0888
  106OSM    C1510797   1.141   5.647  11.009  0.2370  0.3253 -0.3881
  106OSM   H15A10798   1.209   5.568  10.983  0.9234  0.8016 -0.0604
  106OSM   H15B10799   1.038   5.616  10.995  0.0902 -0.3895  1.9435
  106OSM   H15C10800   1.154   5.653  11.116 -0.2058 -0.8629 -0.2588
  106OSM    C1410801   1.088   5.885  10.977 -0.2603  0.4537 -0.2851
  106OSM   H14A10802   1.052   5.867  11.077 -0.1231  1.5514 -0.0259
  106OSM   H14B10803   1.001   5.889  10.913  0.1678 -1.0623 -1.0115
  106OSM   H14C10804   1.151   5.973  10.976  0.1602  0.1978  1.2472
  106OSM    C1310805   1.312   5.810  10.969 -0.3830  0.5981  0.0470
  106OSM   H13A10806   1.303   5.814  11.076 -1.5287  1.7965 -0.0591
  106OSM   H13B10807   1.336   5.904  10.920  2.1973  0.8255  1.5794
  106OSM   H13C10808   1.392   5.743  10.942  0.3546  1.3513  0.2985
  106OSM    C1210809   1.168   5.739  10.787  0.1474 -0.4824 -0.0215
  106OSM   H12A10810   1.070   5.698  10.769 -0.3895 -0.2089  2.0239
  106OSM   H12B10811   1.244   5.665  10.765  0.4365  0.0012 -0.6728
  106OSM    C1110812   1.168   5.852  10.686 -0.3638  0.2921 -0.7207
  106OSM   H11A10813   1.161   5.819  10.580 -1.4054 -0.8966 -0.3002
  106OSM   H11B10814   1.256   5.916  10.705 -0.0645 -0.1461 -0.6179
  106OSM      P10815   0.907   5.890  10.658 -0.3462 -0.3176  0.1541
  106OSM    O1310816   0.923   5.785  10.555  0.4601 -0.9893 -0.0034
  106OSM    O1410817   0.817   5.869  10.773 -0.9382 -0.7818  0.5566
  106OSM    O1110818   0.863   6.026  10.581  0.3801 -1.3866 -0.1462
  106OSM    O1210819   1.049   5.930  10.703  0.1356  0.3946 -0.4315
  106OSM    C1S10820   0.962   6.095  10.503 -0.4124 -0.4509  0.3611
  106OSM    H1S10821   1.053   6.033  10.489 -0.9620 -1.1976  0.0439
  106OSM    H1T10822   0.984   6.199  10.536  0.5020 -0.6018  0.2477
  106OSM     NF10823   1.011   6.170  10.266  0.0017 -0.3433 -0.6441
  106OSM    HNF10824   1.004   6.269  10.254 -1.2061 -0.2245  0.6137
  106OSM    C2S10825   0.911   6.117  10.354  0.6915  0.5342 -0.7985
  106OSM    H2S10826   0.872   6.017  10.326 -2.9220  0.9581  1.9684
  106OSM    C3S10827   0.785   6.208  10.367 -0.2213  0.3190  0.2744
  106OSM    H3S10828   0.812   6.312  10.397 -1.6704  1.2265 -1.3804
  106OSM     O310829   0.687   6.166  10.462 -0.3486 -0.6418  0.2674
  106OSM    HO310830   0.729   6.090  10.503 -0.2413 -0.9929 -0.4935
  106OSM    C4S10831   0.728   6.223  10.230 -0.0247 -0.1779 -0.0887
  106OSM    H4S10832   0.700   6.134  10.172 -0.4357  2.1851 -3.8937
  106OSM    C5S10833   0.697   6.340  10.170 -0.3344  0.0108 -1.0801
  106OSM    H5S10834   0.729   6.428  10.228 -1.5466  0.6447 -1.3260
  106OSM    C6S10835   0.636   6.362  10.030 -0.1373 -0.6817  0.1917
  106OSM    H6S10836   0.672   6.462   9.996 -1.2652 -0.3152  0.0306
  106OSM    H6T10837   0.525   6.374  10.030 -0.3691 -1.7265 -2.7893
  106OSM    C7S10838   0.680   6.263   9.920 -0.0625  0.0947 -0.1328
  106OSM    H7S10839   0.639   6.162   9.941 -0.5686  0.3241 -0.0037
  106OSM    H7T10840   0.791   6.257   9.926 -0.1277 -0.1163  1.3473
  106OSM    C8S10841   0.644   6.302   9.779 -0.1689  0.7557 -0.2331
  106OSM    H8S10842   0.688   6.400   9.752 -2.5490  2.2678  0.9785
  106OSM    H8T10843   0.534   6.321   9.776 -0.6876 -1.6326  1.2046
  106OSM    C9S10844   0.679   6.184   9.678  0.4697 -0.4756  0.2598
  106OSM    H9S10845   0.634   6.092   9.721 -1.5626  0.4879  0.3074
  106OSM    H9T10846   0.789   6.165   9.672  0.2182 -1.5614 -1.5296
  106OSM   C10S10847   0.621   6.220   9.541  0.0778  0.3365  0.3109
  106OSM   H10S10848   0.646   6.325   9.517 -2.0659  0.5356 -1.3722
  106OSM   H10T10849   0.512   6.205   9.556 -0.2267  3.3833  2.0829
  106OSM   C11S10850   0.674   6.135   9.423 -0.1250  0.4647  0.2385
  106OSM   H11S10851   0.625   6.035   9.427 -0.2438  0.5008 -0.3373
  106OSM   H11T10852   0.782   6.119   9.444  0.0660  2.0507  0.5692
  106OSM   C12S10853   0.658   6.186   9.279  0.1346  0.3696 -0.0321
  106OSM   H12S10854   0.695   6.104   9.214  0.7160  0.6476 -0.0583
  106OSM   H12T10855   0.712   6.280   9.258 -0.9535  0.7447 -1.2944
  106OSM   C13S10856   0.509   6.186   9.248 -0.6522 -0.4830 -1.0042
  106OSM   H13S10857   0.463   6.268   9.308  0.9995  0.3394 -0.8006
  106OSM   H13T10858   0.460   6.091   9.278 -1.0814  0.0881  0.1765
  106OSM   C14S10859   0.467   6.211   9.101 -0.2617  0.0890 -0.1561
  106OSM   H14S10860   0.520   6.304   9.073  2.4750 -1.2540  0.1955
  106OSM   H14T10861   0.359   6.232   9.088 -0.2982  1.6479  2.2419
  106OSM   C15S10862   0.504   6.093   9.009 -0.0111  0.3245 -0.2085
  106OSM   H15S10863   0.430   6.016   9.039  1.3297 -0.8976  0.0854
  106OSM   H15T10864   0.602   6.051   9.041  0.0368  0.8888  0.4064
  106OSM   C16S10865   0.490   6.126   8.864  0.0582  0.2589  0.4087
  106OSM   H16S10866   0.573   6.193   8.831 -1.2085  2.2518  1.0858
  106OSM   H16T10867   0.405   6.198   8.862  1.3389  1.8471 -0.0155
  106OSM   C17S10868   0.475   6.010   8.764  1.2657 -0.4121  0.2142
  106OSM   H17S10869   0.387   5.957   8.805 -0.2756  2.3866  0.8198
  106OSM   H17T10870   0.559   5.941   8.788  0.7570 -0.4780  1.9814
  106OSM   C18S10871   0.455   6.041   8.611 -0.3146  0.4974 -0.5859
  106OSM   H18S10872   0.541   6.100   8.572 -0.5721  1.2346 -0.0622
  106OSM   H18T10873   0.368   6.106   8.589 -0.1090  0.0419 -3.0225
  106OSM   H18U10874   0.448   5.948   8.551 -1.7744 -0.7526  1.3765
  106OSM    C1F10875   1.105   6.094  10.220 -0.2147  0.0419 -0.7449
  106OSM     OF10876   1.144   5.992  10.273  1.0350  0.4635  0.4705
  106OSM    C2F10877   1.173   6.137  10.095  0.0627 -0.1726 -0.0586
  106OSM    H2F10878   1.279   6.104  10.086  0.6796  2.0993 -2.5479
  106OSM    H2G10879   1.164   6.247  10.089 -1.4364 -0.2847 -0.5205
  106OSM    C3F10880   1.117   6.064   9.965 -0.1159 -0.3180 -1.1289
  106OSM    H3F10881   1.177   6.105   9.881 -1.3048 -0.1151 -1.8990
  106OSM    H3G10882   1.012   6.091   9.943  0.2359  3.0863  0.6655
  106OSM    C4F10883   1.122   5.912   9.958  0.2484  0.3183 -0.4514
  106OSM    H4F10884   1.060   5.871  10.040  1.5377 -1.1230 -0.1665
  106OSM    H4G10885   1.231   5.899   9.974 -0.2379 -0.1375  3.3779
  106OSM    C5F10886   1.088   5.852   9.821 -0.1899  0.2195 -0.6729
  106OSM    H5F10887   0.982   5.873   9.794 -0.1171  0.1296 -1.0406
  106OSM    H5G10888   1.096   5.741   9.829 -0.6883  0.1707 -0.7779
  106OSM    C6F10889   1.182   5.900   9.710  0.1528 -0.2751 -0.0206
  106OSM    H6F10890   1.282   5.902   9.758  0.1288  0.9957 -0.0077
  106OSM    H6G10891   1.161   6.003   9.675  1.9194 -0.0603 -0.5364
  106OSM    C7F10892   1.177   5.803   9.591 -0.6003  0.1660  0.6217
  106OSM    H7F10893   1.199   5.701   9.628 -0.2891 -0.0776 -0.2229
  106OSM    H7G10894   1.265   5.831   9.530 -1.8107 -0.4895 -1.5290
  106OSM    C8F10895   1.046   5.796   9.506  0.3202 -0.3507 -0.0312
  106OSM    H8F10896   0.961   5.746   9.556 -1.1198  0.1997 -1.8263
  106OSM    H8G10897   1.072   5.722   9.428 -0.3505 -2.6554  1.8230
  106OSM    C9F10898   1.000   5.932   9.457 -0.7072  0.6449  0.0699
  106OSM    H9F10899   0.975   5.999   9.540  0.4307  0.8486  0.2689
  106OSM   C10F10900   0.991   5.973   9.331  0.7601 -0.2213 -0.2064
  106OSM   H10F10901   0.944   6.069   9.308  0.5289 -0.7953 -2.3898
  106OSM   C11F10902   1.030   5.890   9.203  0.0102 -0.8849 -1.0252
  106OSM   H11F10903   1.086   5.796   9.224 -1.4734 -1.5726  0.0635
  106OSM   H11G10904   1.093   5.960   9.144 -0.2306  0.6536  0.4484
  106OSM   C12F10905   0.903   5.854   9.120  0.8088 -0.1945  0.2883
  106OSM   H12F10906   0.945   5.828   9.021  0.4699  0.0295  0.0822
  106OSM   H12G10907   0.847   5.949   9.109  0.7818 -0.1785  0.5590
  106OSM   C13F10908   0.819   5.739   9.179  0.5547 -0.6779 -0.0607
  106OSM   H13F10909   0.777   5.769   9.277  0.5575 -2.7661  0.6293
  106OSM   H13G10910   0.882   5.649   9.197  1.6486  0.1384  0.2857
  106OSM   C14F10911   0.696   5.706   9.089  0.5322  0.6094  0.7494
  106OSM   H14F10912   0.619   5.786   9.087  0.9925  1.1412  2.3841
  106OSM   H14G10913   0.641   5.620   9.132  0.0429  1.0530  1.0194
  106OSM   C15F10914   0.730   5.668   8.939  0.0829 -0.1064  0.1008
  106OSM   H15F10915   0.816   5.597   8.941  0.5877  0.4974  1.7392
  106OSM   H15G10916   0.756   5.766   8.893  1.7687 -0.1321  0.9057
  106OSM   C16F10917   0.618   5.608   8.864  1.1516  0.3039 -0.4522
  106OSM   H16F10918   0.534   5.680   8.869  0.2332 -0.8311  1.1374
  106OSM   H16G10919   0.590   5.511   8.911  1.2370 -0.0379 -1.0955
  106OSM   C17F10920   0.646   5.590   8.706  0.1741 -0.9040 -0.4162
  106OSM   H17F10921   0.548   5.554   8.669 -1.0795  0.9129  0.9104
  106OSM   H17G10922   0.721   5.509   8.695  1.3497  0.1399 -0.2861
  106OSM   C18F10923   0.680   5.712   8.626 -0.8025 -0.5257  0.9948
  106OSM   H18F10924   0.591   5.775   8.647 -1.1947 -0.5798 -0.4140
  106OSM   H18G10925   0.680   5.689   8.518 -0.4052  2.3242  0.3063
  106OSM   H18H10926   0.775   5.759   8.659 -0.2813 -0.4198 -0.5852
  107OSM      N10927   1.757   5.597  11.008  0.3801  0.3869 -0.3462
  107OSM    C1510928   1.613   5.625  11.043 -0.3875  0.4352 -0.2952
  107OSM   H15A10929   1.598   5.730  11.064  2.4018  0.6607  0.9390
  107OSM   H15B10930   1.569   5.571  11.126 -4.1587  1.1442 -1.6040
  107OSM   H15C10931   1.556   5.594  10.956 -0.4794 -1.2087  0.3255
  107OSM    C1410932   1.838   5.611  11.133  0.1974 -0.3987 -0.0735
  107OSM   H14A10933   1.786   5.571  11.219 -0.9914  1.5921  0.2047
  107OSM   H14B10934   1.845   5.716  11.156  0.3234 -0.5976  0.8239
  107OSM   H14C10935   1.939   5.574  11.134  1.5564  2.9815  1.1678
  107OSM    C1310936   1.767   5.452  10.973  0.6367 -0.4029 -0.6498
  107OSM   H13A10937   1.873   5.430  10.982  0.3642 -1.4709  0.1260
  107OSM   H13B10938   1.736   5.426  10.873 -0.3471  2.1277 -1.0961
  107OSM   H13C10939   1.718   5.388  11.044  1.5382 -1.3852 -0.8950
  107OSM    C1210940   1.808   5.672  10.896 -0.1697 -0.6877 -0.1268
  107OSM   H12A10941   1.828   5.773  10.928 -0.3908 -0.4757 -0.6376
  107OSM   H12B10942   1.735   5.688  10.818 -0.8257  1.2551  0.8288
  107OSM    C1110943   1.942   5.634  10.823 -0.0197 -0.5855 -0.3864
  107OSM   H11A10944   1.958   5.702  10.736  3.1460  0.6490  1.0010
  107OSM   H11B10945   1.931   5.537  10.771 -0.9804 -1.6387  1.6591
  107OSM      P10946   2.198   5.589  10.874 -0.0071 -0.3995  0.4466
  107OSM    O1310947   2.304   5.679  10.920  0.2953  0.5927 -0.5054
  107OSM    O1410948   2.210   5.446  10.902 -0.0748  0.3112 -0.3313
  107OSM    O1110949   2.190   5.600  10.721 -0.6688 -0.3277  0.3895
  107OSM    O1210950   2.057   5.639  10.915 -0.3551 -0.2292  0.1939
  107OSM    C1S10951   2.303   5.572  10.641 -0.5829  0.5953  0.7893
  107OSM    H1S10952   2.338   5.467  10.644 -0.7480  0.5491  1.0784
  107OSM    H1T10953   2.393   5.635  10.653  1.4768 -2.0583  0.1475
  107OSM     NF10954   2.372   5.552  10.396 -0.1239 -0.5254  0.4902
  107OSM    HNF10955   2.426   5.626  10.356  2.3329 -1.2751  2.1944
  107OSM    C2S10956   2.266   5.585  10.485  0.1653  0.0325 -0.6993
  107OSM    H2S10957   2.183   5.513  10.471  0.1174  0.1761 -1.1546
  107OSM    C3S10958   2.207   5.724  10.461  0.1054 -0.6301 -0.7154
  107OSM    H3S10959   2.282   5.797  10.500  0.2141 -0.0329 -1.9786
  107OSM     O310960   2.091   5.754  10.541 -0.3282  0.5249  0.3758
  107OSM    HO310961   2.090   5.701  10.621 -0.4961  0.5415  0.3863
  107OSM    C4S10962   2.168   5.746  10.319  0.7387  0.0102  0.4182
  107OSM    H4S10963   2.082   5.688  10.283  0.3316  0.5778  0.4571
  107OSM    C5S10964   2.216   5.836  10.237 -0.6934 -0.4732 -0.1438
  107OSM    H5S10965   2.295   5.901  10.278  0.3178 -1.8866  0.2128
  107OSM    C6S10966   2.185   5.861  10.089 -0.3322  0.4342  0.5409
  107OSM    H6S10967   2.287   5.880  10.049  0.1820 -0.7272  1.2518
  107OSM    H6T10968   2.134   5.958  10.069  1.2863  1.1816 -0.1853
  107OSM    C7S10969   2.132   5.748   9.998 -0.3376  0.8068  0.3936
  107OSM    H7S10970   2.043   5.698  10.041  0.2923 -0.4743  0.2733
  107OSM    H7T10971   2.212   5.671   9.985 -1.1475 -0.2371  1.3170
  107OSM    C8S10972   2.105   5.792   9.856 -0.2171 -0.0852  0.1540
  107OSM    H8S10973   2.185   5.866   9.838  2.3604 -2.3276  1.6441
  107OSM    H8T10974   2.006   5.841   9.847 -0.5369 -0.8088 -0.4057
  107OSM    C9S10975   2.115   5.681   9.751  0.0536 -0.4938 -0.3587
  107OSM    H9S10976   2.041   5.607   9.788 -0.7859  0.9824  1.0194
  107OSM    H9T10977   2.219   5.641   9.745  0.1331 -0.3283 -0.0807
  107OSM   C10S10978   2.076   5.723   9.613  0.7229  0.0630  0.0116
  107OSM   H10S10979   1.998   5.801   9.605  1.6136  0.7988 -2.3931
  107OSM   H10T10980   2.044   5.621   9.581 -0.9230 -0.1339  2.0721
  107OSM   C11S10981   2.191   5.776   9.529  0.2469 -0.4499  0.3887
  107OSM   H11S10982   2.265   5.694   9.513  1.4759  0.8015 -0.5129
  107OSM   H11T10983   2.239   5.865   9.573  0.4537  0.5237 -1.6806
  107OSM   C12S10984   2.135   5.819   9.388 -0.2527 -0.3010 -0.0053
  107OSM   H12S10985   2.070   5.907   9.402 -0.7078 -0.6000 -0.2446
  107OSM   H12T10986   2.070   5.743   9.340 -2.7943 -0.5522  3.4630
  107OSM   C13S10987   2.243   5.876   9.296  0.2131 -0.0437  0.0357
  107OSM   H13S10988   2.298   5.960   9.342 -0.7845  2.0926 -2.3760
  107OSM   H13T10989   2.180   5.921   9.215 -1.4582 -0.1500  1.2198
  107OSM   C14S10990   2.357   5.786   9.237  0.3855 -0.9342  1.3294
  107OSM   H14S10991   2.312   5.690   9.206 -1.0498 -0.2906  1.3271
  107OSM   H14T10992   2.429   5.780   9.322 -0.3796  0.9964  2.1809
  107OSM   C15S10993   2.434   5.848   9.108  0.3806  0.8271 -0.1469
  107OSM   H15S10994   2.354   5.859   9.032 -1.2176  2.4176  1.6373
  107OSM   H15T10995   2.506   5.775   9.066 -3.2889 -1.9674 -2.1927
  107OSM   C16S10996   2.509   5.977   9.149 -0.3072  0.7660 -0.5746
  107OSM   H16S10997   2.456   6.041   9.223 -0.2180 -0.1462  0.3116
  107OSM   H16T10998   2.523   6.047   9.064 -1.5933  1.4686 -0.2347
  107OSM   C17S10999   2.647   5.958   9.206  0.3542  0.2704 -0.6330
  107OSM   H17S11000   2.712   5.879   9.163  2.4825 -0.0635  2.7492
  107OSM   H17T11001   2.628   5.922   9.310  1.5212  1.4706  0.0189
  107OSM   C18S11002   2.715   6.092   9.219 -0.5109  0.2783 -0.4368
  107OSM   H18S11003   2.737   6.135   9.119 -0.5675 -0.1664 -0.6448
  107OSM   H18T11004   2.811   6.074   9.272 -1.4126 -1.2852  0.7628
  107OSM   H18U11005   2.660   6.170   9.275 -0.3252 -0.0894  0.2662
  107OSM    C1F11006   2.422   5.432  10.384 -0.7188 -0.6082  0.0689
  107OSM     OF11007   2.359   5.331  10.416 -0.2288 -0.5356 -0.7931
  107OSM    C2F11008   2.566   5.429  10.339  0.0088 -0.1916  1.1766
  107OSM    H2F11009   2.595   5.323  10.322 -0.2802 -0.4189  2.0775
  107OSM    H2G11010   2.626   5.480  10.418  1.0924  2.0619 -0.9636
  107OSM    C3F11011   2.605   5.511  10.213  0.2497  0.1577  0.1292
  107OSM    H3F11012   2.713   5.538  10.211  0.2785  0.1538  1.3344
  107OSM    H3G11013   2.539   5.600  10.206  0.0409 -0.1073 -2.3694
  107OSM    C4F11014   2.581   5.421  10.084 -0.8293  0.1842 -0.3515
  107OSM    H4F11015   2.474   5.393  10.097 -0.8804  0.3387 -0.4359
  107OSM    H4G11016   2.636   5.324  10.087 -0.1986  0.5325 -0.6679
  107OSM    C5F11017   2.606   5.494   9.952 -0.0242  0.1707  0.2556
  107OSM    H5F11018   2.717   5.507   9.946 -0.1360  1.5556  0.7079
  107OSM    H5G11019   2.556   5.593   9.962 -0.9612 -0.1243 -1.2616
  107OSM    C6F11020   2.569   5.411   9.825  0.5799  0.0845 -0.4925
  107OSM    H6F11021   2.464   5.381   9.847  0.0651  1.9221 -0.3252
  107OSM    H6G11022   2.634   5.321   9.839  0.7551  0.4650  1.4635
  107OSM    C7F11023   2.583   5.494   9.700  0.0279  0.2084 -0.6528
  107OSM    H7F11024   2.686   5.472   9.664  0.5434  1.7496 -0.2251
  107OSM    H7G11025   2.592   5.601   9.728 -1.0255 -0.3424  2.0978
  107OSM    C8F11026   2.467   5.482   9.599 -0.5310 -0.6062  1.1117
  107OSM    H8F11027   2.499   5.543   9.512  0.4188 -1.7529  0.6306
  107OSM    H8G11028   2.378   5.527   9.647 -0.7988  0.9149 -0.6864
  107OSM    C9F11029   2.462   5.341   9.554  0.6520 -0.1010  0.4882
  107OSM    H9F11030   2.560   5.294   9.540  0.0562 -0.4861 -3.3437
  107OSM   C10F11031   2.353   5.273   9.521 -0.3493  0.4005 -0.0723
  107OSM   H10F11032   2.352   5.168   9.486 -1.2769  0.8464 -1.4823
  107OSM   C11F11033   2.215   5.340   9.522 -0.0188 -0.3395 -0.5162
  107OSM   H11F11034   2.226   5.449   9.501  1.3527 -0.4844 -0.6359
  107OSM   H11G11035   2.187   5.333   9.629  1.5891 -0.3952 -0.0652
  107OSM   C12F11036   2.114   5.256   9.444 -0.0754 -0.1573 -0.1931
  107OSM   H12F11037   2.012   5.285   9.476 -0.0494 -0.6386  0.3365
  107OSM   H12G11038   2.139   5.150   9.465  1.6438  0.2200 -0.1531
  107OSM   C13F11039   2.120   5.269   9.291 -0.0808 -0.1186 -0.5579
  107OSM   H13F11040   2.227   5.273   9.263  0.0663  3.0730  0.1107
  107OSM   H13G11041   2.079   5.366   9.255 -0.6398  0.1606  0.7658
  107OSM   C14F11042   2.063   5.153   9.217 -0.2757 -0.6222  0.7855
  107OSM   H14F11043   1.961   5.129   9.253  0.6298 -0.7295  3.4528
  107OSM   H14G11044   2.118   5.060   9.242 -0.0819 -1.1309 -1.3163
  107OSM   C15F11045   2.063   5.178   9.068  0.3574 -0.2014  0.2716
  107OSM   H15F11046   2.154   5.227   9.027 -0.0312 -1.3957 -2.2262
  107OSM   H15G11047   1.985   5.253   9.044  1.1460  0.9028  1.0544
  107OSM   C16F11048   2.042   5.065   8.966 -0.2229 -0.2175  0.6564
  107OSM   H16F11049   1.941   5.030   8.993 -0.0764 -0.8525  0.4040
  107OSM   H16G11050   2.114   4.983   8.987 -0.4111 -0.7373 -0.5918
  107OSM   C17F11051   2.057   5.098   8.812  0.0160  0.2301  0.2057
  107OSM   H17F11052   2.160   5.129   8.786 -0.4573  0.1792 -1.9116
  107OSM   H17G11053   1.981   5.175   8.786  1.4408  1.3112 -0.9729
  107OSM   C18F11054   2.028   4.974   8.722 -0.0789  0.1129 -0.0490
  107OSM   H18F11055   2.084   4.887   8.762  0.3355  0.2438 -0.3309
  107OSM   H18G11056   2.047   5.003   8.616  0.9149  3.3466  0.8739
  107OSM   H18H11057   1.921   4.949   8.738 -0.2345  1.1967  0.7415
  108OSM      N11058   5.495   3.636  11.174 -0.1502  0.5952 -0.6427
  108OSM    C1511059   5.624   3.569  11.183 -0.4061 -0.2306 -0.2872
  108OSM   H15A11060   5.637   3.486  11.115 -1.5799 -0.9615  0.3528
  108OSM   H15B11061   5.638   3.541  11.287 -0.0626 -1.8169 -0.7339
  108OSM   H15C11062   5.698   3.636  11.142 -1.0218  1.3852  1.0967
  108OSM    C1411063   5.392   3.542  11.230  0.0460  0.0773 -0.5378
  108OSM   H14A11064   5.380   3.454  11.168  3.4272 -0.2413 -0.9063
  108OSM   H14B11065   5.299   3.596  11.238 -0.7077 -1.0658 -1.2979
  108OSM   H14C11066   5.408   3.509  11.331  0.9824 -2.4527 -1.4406
  108OSM    C1311067   5.500   3.763  11.262 -0.1765  0.4834 -0.7446
  108OSM   H13A11068   5.584   3.828  11.242 -1.0664  2.4231  1.4547
  108OSM   H13B11069   5.506   3.727  11.363  1.4124 -0.5618 -1.1621
  108OSM   H13C11070   5.407   3.817  11.256 -0.9301 -0.4589  1.4306
  108OSM    C1211071   5.476   3.673  11.028  0.3714  0.0607 -0.7328
  108OSM   H12A11072   5.479   3.593  10.957 -2.7592 -0.7336 -0.1356
  108OSM   H12B11073   5.558   3.741  11.008  1.2904 -1.0618 -0.8803
  108OSM    C1111074   5.341   3.743  10.994 -0.2617 -1.1926 -0.4518
  108OSM   H11A11075   5.340   3.779  10.889 -2.5833  2.1832  0.5456
  108OSM   H11B11076   5.346   3.830  11.064  2.5236 -0.3930 -1.4985
  108OSM      P11077   5.158   3.557  10.950  0.1395  0.4282  0.1492
  108OSM    O1311078   5.201   3.424  10.995 -0.5157  0.2585 -0.3268
  108OSM    O1411079   5.011   3.592  10.961  0.1050  0.4489 -0.2915
  108OSM    O1111080   5.193   3.579  10.800 -0.0124 -0.4257 -0.4495
  108OSM    O1211081   5.237   3.667  11.024 -0.3947 -0.0859 -0.6557
  108OSM    C1S11082   5.146   3.685  10.724 -0.4492  0.2497 -0.0348
  108OSM    H1S11083   5.204   3.773  10.759  0.9877 -1.2289  1.5282
  108OSM    H1T11084   5.038   3.697  10.747 -0.4347  1.5116 -0.5712
  108OSM     NF11085   5.138   3.792  10.499  0.2709  0.5830  0.1861
  108OSM    HNF11086   5.044   3.802  10.471 -0.4254 -0.0818  2.1030
  108OSM    C2S11087   5.163   3.672  10.571  0.1495  0.4077  0.5099
  108OSM    H2S11088   5.258   3.632  10.531 -0.7577  1.8315 -3.6080
  108OSM    C3S11089   5.065   3.562  10.528  0.4622 -0.0238 -1.2525
  108OSM    H3S11090   4.965   3.609  10.536  1.3563  1.5977  1.9340
  108OSM     O311091   5.064   3.439  10.598  0.0829 -0.9555  0.1635
  108OSM    HO311092   5.124   3.437  10.673 -1.4185 -1.0358  1.4024
  108OSM    C4S11093   5.075   3.522  10.387  0.0255  0.5012  0.2243
  108OSM    H4S11094   5.171   3.478  10.358  0.1169  1.0694 -0.3561
  108OSM    C5S11095   4.982   3.540  10.290  0.0669  1.0955 -0.4027
  108OSM    H5S11096   4.880   3.569  10.317 -1.0015 -2.9001  0.4202
  108OSM    C6S11097   4.998   3.501  10.149  0.3460  0.0802 -0.3720
  108OSM    H6S11098   4.901   3.465  10.110  0.0528 -2.0868  2.0786
  108OSM    H6T11099   5.066   3.413  10.147 -2.6635 -2.5968  2.4147
  108OSM    C7S11100   5.049   3.609  10.052 -0.4759  0.7798 -0.1318
  108OSM    H7S11101   5.146   3.622  10.104 -2.7377 -0.0459  4.9840
  108OSM    H7T11102   4.986   3.701  10.060 -1.9074 -0.2274  0.6907
  108OSM    C8S11103   5.046   3.568   9.906 -0.2284  0.0095  0.6271
  108OSM    H8S11104   5.076   3.661   9.853 -0.1513 -0.0813  0.5105
  108OSM    H8T11105   4.948   3.527   9.872  0.3894  0.0080 -1.2819
  108OSM    C9S11106   5.142   3.453   9.881 -0.8280 -0.0081 -0.1154
  108OSM    H9S11107   5.105   3.355   9.916 -0.5930  0.9423  3.1558
  108OSM    H9T11108   5.234   3.465   9.942 -1.8844  0.2198  1.5144
  108OSM   C10S11109   5.194   3.450   9.736 -0.2661 -0.2134  0.1535
  108OSM   H10S11110   5.282   3.384   9.721 -0.1133 -0.2723  1.2519
  108OSM   H10T11111   5.231   3.554   9.724 -1.6035  0.2766  0.1339
  108OSM   C11S11112   5.096   3.417   9.625 -0.3990 -0.0221  0.6887
  108OSM   H11S11113   5.007   3.483   9.632  1.6907  2.8357  3.0933
  108OSM   H11T11114   5.060   3.314   9.646  0.5798 -0.2895  1.1504
  108OSM   C12S11115   5.148   3.419   9.477 -0.1489 -0.2632 -0.1282
  108OSM   H12S11116   5.233   3.349   9.461 -0.9126 -1.3179  0.3312
  108OSM   H12T11117   5.196   3.515   9.450 -0.8048 -0.3682 -1.8272
  108OSM   C13S11118   5.042   3.385   9.371 -0.7384 -0.7878 -0.4243
  108OSM   H13S11119   4.990   3.480   9.346  1.6028  0.5439 -0.4473
  108OSM   H13T11120   4.968   3.312   9.413  0.3575 -0.8310  1.5690
  108OSM   C14S11121   5.106   3.334   9.239 -0.2238  0.0171  0.1992
  108OSM   H14S11122   5.176   3.251   9.262 -0.2903 -0.1033 -0.0274
  108OSM   H14T11123   5.166   3.414   9.190  0.4964 -1.1988 -0.9816
  108OSM   C15S11124   4.992   3.296   9.145  0.4803 -0.5991  0.0452
  108OSM   H15S11125   4.915   3.376   9.144  0.2475 -0.8182 -0.8579
  108OSM   H15T11126   4.952   3.202   9.188 -1.6071  0.9216  1.6011
  108OSM   C16S11127   5.039   3.268   8.999  0.0471  0.2149  0.1673
  108OSM   H16S11128   5.136   3.216   9.013  0.2493  0.5849  0.1791
  108OSM   H16T11129   5.064   3.365   8.951  0.1551 -0.9661 -2.2735
  108OSM   C17S11130   4.955   3.178   8.910 -0.5284 -0.0502 -1.1020
  108OSM   H17S11131   4.852   3.218   8.899 -0.6331 -0.4635 -1.6988
  108OSM   H17T11132   4.947   3.080   8.963 -2.2575  0.2355 -0.7494
  108OSM   C18S11133   5.023   3.166   8.777 -0.2348  0.6418  0.0381
  108OSM   H18S11134   5.054   3.264   8.735  0.3649  0.2138 -0.5212
  108OSM   H18T11135   4.961   3.119   8.698 -1.9587  3.1771 -0.2473
  108OSM   H18U11136   5.116   3.107   8.788  0.2456  1.3187 -0.3807
  108OSM    C1F11137   5.225   3.890  10.502 -0.5767 -0.6460 -0.5357
  108OSM     OF11138   5.344   3.874  10.543 -0.0635 -0.0368  0.2137
  108OSM    C2F11139   5.172   4.023  10.468  0.3355  0.0819 -0.2524
  108OSM    H2F11140   5.204   4.098  10.543 -0.6499 -2.2975  2.7724
  108OSM    H2G11141   5.061   4.027  10.479  0.3562 -0.2934  0.1656
  108OSM    C3F11142   5.203   4.064  10.321 -0.2045  0.1172 -0.4849
  108OSM    H3F11143   5.304   4.024  10.299 -0.2557 -0.7956  0.8446
  108OSM    H3G11144   5.209   4.175  10.325  0.4212  0.0564  0.5185
  108OSM    C4F11145   5.107   4.004  10.222 -0.0272  0.1079  0.6781
  108OSM    H4F11146   5.017   4.069  10.235  1.9454  2.8891  1.5182
  108OSM    H4G11147   5.088   3.897  10.241 -0.0396 -0.4607 -2.0318
  108OSM    C5F11148   5.152   4.036  10.078  0.9096  0.7766 -0.7553
  108OSM    H5F11149   5.251   3.997  10.046  0.8418 -0.9331  0.9180
  108OSM    H5G11150   5.163   4.146  10.089 -0.2799  0.9251 -0.9412
  108OSM    C6F11151   5.041   4.006   9.977 -0.3394  0.2962 -0.4883
  108OSM    H6F11152   4.942   4.050  10.005 -0.3078 -0.8096  1.5678
  108OSM    H6G11153   5.021   3.898   9.961 -0.8241  0.1644  0.8490
  108OSM    C7F11154   5.074   4.058   9.843 -0.6268 -0.0985 -0.3980
  108OSM    H7F11155   5.131   4.150   9.866  0.3167 -0.5831 -0.7151
  108OSM    H7G11156   4.976   4.068   9.792 -1.3524  0.0787  1.0098
  108OSM    C8F11157   5.175   3.965   9.770 -0.1677 -0.2345  0.7040
  108OSM    H8F11158   5.119   3.870   9.752 -0.4685 -0.0971  0.9016
  108OSM    H8G11159   5.262   3.946   9.837 -0.7925 -1.9361  1.1024
  108OSM    C9F11160   5.218   4.027   9.635  0.5320 -0.0228  0.2938
  108OSM    H9F11161   5.299   4.101   9.637 -0.3161  0.9961 -1.2098
  108OSM   C10F11162   5.184   4.004   9.507  0.7459  0.2015  0.4902
  108OSM   H10F11163   5.235   4.051   9.422  0.7320 -0.0787  0.3256
  108OSM   C11F11164   5.082   3.903   9.460  0.1471  0.1713 -0.2131
  108OSM   H11F11165   4.988   3.961   9.465  0.9921  2.1101 -3.6039
  108OSM   H11G11166   5.074   3.820   9.534  0.6434 -1.2964 -1.7233
  108OSM   C12F11167   5.095   3.823   9.331  0.0543 -0.4449 -0.0635
  108OSM   H12F11168   5.045   3.882   9.251  1.4516 -1.7285 -1.9465
  108OSM   H12G11169   5.044   3.725   9.337  1.2641 -1.0895 -0.0036
  108OSM   C13F11170   5.238   3.793   9.286  0.1589 -0.7807  0.5912
  108OSM   H13F11171   5.281   3.719   9.357  1.8278 -3.5448 -2.9764
  108OSM   H13G11172   5.293   3.889   9.292 -0.4513 -0.4378  0.8919
  108OSM   C14F11173   5.239   3.735   9.145  0.0538 -0.0339  0.0683
  108OSM   H14F11174   5.189   3.636   9.143  0.0459 -0.1683  2.9542
  108OSM   H14G11175   5.344   3.713   9.115  0.5558  1.7511  0.3792
  108OSM   C15F11176   5.166   3.816   9.027 -0.6935  0.2182 -0.0984
  108OSM   H15F11177   5.191   3.924   9.041 -0.6538  0.2526 -0.4211
  108OSM   H15G11178   5.057   3.812   9.047 -0.5854 -0.6856  0.3567
  108OSM   C16F11179   5.186   3.760   8.890  0.0145  0.1937  0.6932
  108OSM   H16F11180   5.293   3.735   8.876 -0.4181 -1.4846  0.0911
  108OSM   H16G11181   5.161   3.837   8.814  2.8826 -1.1602 -1.8083
  108OSM   C17F11182   5.103   3.632   8.863  0.4916  0.2060 -0.3265
  108OSM   H17F11183   5.005   3.622   8.915  2.5876 -4.1007  3.5497
  108OSM   H17G11184   5.156   3.551   8.918  0.6365 -0.1393 -0.9633
  108OSM   C18F11185   5.092   3.593   8.715 -0.2311  0.1585  0.2797
  108OSM   H18F11186   5.031   3.661   8.652 -1.5242 -2.5332 -1.5924
  108OSM   H18G11187   5.041   3.499   8.683  0.1357 -1.1944  3.2977
  108OSM   H18H11188   5.192   3.591   8.667 -1.1237  0.5328 -1.7044
  109OSM      N11189   1.617   2.517  11.113  0.3650 -0.9019 -0.2772
  109OSM    C1511190   1.751   2.537  11.195  0.7971  0.4496  0.5086
  109OSM   H15A11191   1.811   2.447  11.193  1.3026  0.7777 -1.1796
  109OSM   H15B11192   1.720   2.559  11.296 -0.3245 -1.8379  0.7276
  109OSM   H15C11193   1.811   2.620  11.160  2.7743 -1.8423 -1.9693
  109OSM    C1411194   1.543   2.390  11.155 -0.3651  0.4840  0.3132
  109OSM   H14A11195   1.616   2.312  11.166  2.2504  2.6830 -0.2573
  109OSM   H14B11196   1.452   2.364  11.102  0.3443  1.7951 -1.6795
  109OSM   H14C11197   1.502   2.402  11.254 -0.2062  1.3100  0.2868
  109OSM    C1311198   1.532   2.641  11.131  0.2502  0.0950  0.2477
  109OSM   H13A11199   1.436   2.613  11.090  0.5066  0.2770 -0.4900
  109OSM   H13B11200   1.567   2.723  11.070  1.0346 -0.4718 -0.0886
  109OSM   H13C11201   1.513   2.675  11.232 -1.5719 -0.0315 -0.0155
  109OSM    C1211202   1.659   2.493  10.964  0.3949 -0.4841 -0.1654
  109OSM   H12A11203   1.583   2.446  10.905  0.4218 -0.0256 -0.5703
  109OSM   H12B11204   1.743   2.425  10.963 -0.1827 -1.2174  0.4428
  109OSM    C1111205   1.700   2.615  10.883  0.6290 -0.4262  0.4209
  109OSM   H11A11206   1.620   2.692  10.882 -0.6236 -1.6683  0.7081
  109OSM   H11B11207   1.691   2.581  10.778  2.3813  0.5449 -0.0842
  109OSM      P11208   1.957   2.610  10.851 -0.5490  0.2835 -0.2796
  109OSM    O1311209   2.074   2.694  10.888 -0.7751 -0.8099  0.5479
  109OSM    O1411210   1.962   2.464  10.876 -0.0375 -0.5449  0.3830
  109OSM    O1111211   1.939   2.632  10.691  0.5542 -0.2415  0.4956
  109OSM    O1211212   1.826   2.678  10.919 -0.2354 -0.1719  0.4326
  109OSM    C1S11213   1.905   2.763  10.640  0.1715 -0.5548  0.3175
  109OSM    H1S11214   1.985   2.835  10.669 -0.2264  0.1116 -0.2194
  109OSM    H1T11215   1.813   2.793  10.694  1.2356  0.7346  1.4941
  109OSM     NF11216   1.842   2.912  10.447  0.0295 -0.3481  0.1920
  109OSM    HNF11217   1.762   2.928  10.390 -1.1588 -0.1109  1.8756
  109OSM    C2S11218   1.880   2.774  10.488  0.0769  0.2437 -0.4013
  109OSM    H2S11219   1.974   2.750  10.433  0.4597  2.2925 -0.7286
  109OSM    C3S11220   1.786   2.652  10.447  0.2497 -0.8445  0.6031
  109OSM    H3S11221   1.686   2.672  10.490 -0.2608 -0.8257 -0.5527
  109OSM     O311222   1.826   2.522  10.490 -0.0484  0.1224 -0.1791
  109OSM    HO311223   1.880   2.537  10.568 -0.2595 -0.1987  0.0289
  109OSM    C4S11224   1.788   2.658  10.296 -0.2853  0.6892 -0.9779
  109OSM    H4S11225   1.868   2.600  10.248  0.1704  0.9715 -0.5758
  109OSM    C5S11226   1.704   2.731  10.210  0.3541 -0.1345 -1.2325
  109OSM    H5S11227   1.629   2.799  10.253  1.5437  0.1311  0.5682
  109OSM    C6S11228   1.726   2.729  10.066  0.4354  0.1401 -0.2655
  109OSM    H6S11229   1.624   2.729  10.022 -0.1455  1.6925  0.9945
  109OSM    H6T11230   1.778   2.637  10.031  0.2494  0.5131 -1.5619
  109OSM    C7S11231   1.812   2.850  10.032 -0.3840  0.1376 -0.1268
  109OSM    H7S11232   1.909   2.829  10.083 -1.1272 -1.1867  0.8117
  109OSM    H7T11233   1.781   2.951  10.065 -1.0951  0.8406 -2.7495
  109OSM    C8S11234   1.826   2.879   9.879 -0.2404  0.7347  0.1436
  109OSM    H8S11235   1.728   2.904   9.835 -1.1551 -2.6965 -0.0946
  109OSM    H8T11236   1.872   2.784   9.843  2.3394  1.5615  0.9996
  109OSM    C9S11237   1.922   2.993   9.839  0.4404 -0.7061  0.2145
  109OSM    H9S11238   2.008   2.997   9.909  0.8825  1.8711 -0.3597
  109OSM    H9T11239   1.865   3.087   9.858 -0.6649 -0.6160 -2.8534
  109OSM   C10S11240   1.972   2.972   9.700 -0.3206  0.7166 -0.3321
  109OSM   H10S11241   2.035   2.881   9.691  0.2204  0.7606  2.3963
  109OSM   H10T11242   2.052   3.044   9.672  0.1636 -0.2918 -1.6900
  109OSM   C11S11243   1.854   2.969   9.603  0.3020  0.4434  0.3587
  109OSM   H11S11244   1.794   3.062   9.613  3.2075  2.4712 -0.0048
  109OSM   H11T11245   1.783   2.887   9.630 -1.2873  2.1160  1.4724
  109OSM   C12S11246   1.902   2.954   9.456 -0.1057 -0.8431 -0.2179
  109OSM   H12S11247   1.814   2.938   9.391  1.4270  0.1701 -2.6738
  109OSM   H12T11248   1.970   2.868   9.439  1.8637  0.3181  1.3230
  109OSM   C13S11249   1.977   3.078   9.398  0.0027 -1.4925  0.1984
  109OSM   H13S11250   2.057   3.093   9.473 -0.2204 -0.4615  0.2455
  109OSM   H13T11251   1.908   3.164   9.413  0.2861 -1.1301 -0.5270
  109OSM   C14S11252   2.027   3.066   9.248  0.2752 -0.8398  0.4017
  109OSM   H14S11253   1.935   3.029   9.197 -0.3202 -1.3484  1.7995
  109OSM   H14T11254   2.107   2.990   9.260  0.2672 -1.5235 -2.9800
  109OSM   C15S11255   2.065   3.207   9.209  0.4453 -0.0608  0.2772
  109OSM   H15S11256   2.125   3.252   9.291 -0.6378  0.2837  0.9001
  109OSM   H15T11257   1.974   3.270   9.200  0.7566  0.0842 -4.1155
  109OSM   C16S11258   2.154   3.209   9.082 -0.3782  0.0348 -0.1770
  109OSM   H16S11259   2.097   3.170   8.996  0.9474 -0.2698 -0.9462
  109OSM   H16T11260   2.245   3.146   9.094  0.7724  1.4545 -1.1357
  109OSM   C17S11261   2.196   3.342   9.039 -0.1125  0.1715  0.4749
  109OSM   H17S11262   2.092   3.383   9.036 -0.7022 -0.9997  2.5450
  109OSM   H17T11263   2.248   3.353   8.942  1.8699 -2.8124  1.0822
  109OSM   C18S11264   2.276   3.429   9.140  0.0127 -0.2394  0.3463
  109OSM   H18S11265   2.219   3.435   9.236  2.4444  1.6272  1.8026
  109OSM   H18T11266   2.298   3.533   9.107 -0.7066  0.3944  1.7406
  109OSM   H18U11267   2.372   3.377   9.162  1.5298  2.0413 -0.4786
  109OSM    C1F11268   1.927   3.015  10.470 -0.3469  0.1519 -0.1882
  109OSM     OF11269   2.042   2.995  10.506 -0.4804  0.6331  0.5818
  109OSM    C2F11270   1.868   3.153  10.470  0.0107 -0.0508 -0.1772
  109OSM    H2F11271   1.862   3.193  10.574  1.3440 -0.1109 -0.0648
  109OSM    H2G11272   1.763   3.148  10.434 -0.3878  1.6931  0.6383
  109OSM    C3F11273   1.952   3.237  10.372 -0.1473  0.9291  0.1078
  109OSM    H3F11274   1.955   3.196  10.269 -0.8863 -0.2619  0.5488
  109OSM    H3G11275   2.058   3.242  10.404  0.4511  1.0024 -1.7569
  109OSM    C4F11276   1.899   3.375  10.359 -0.2548  0.0886 -0.0030
  109OSM    H4F11277   1.970   3.430  10.293  0.5245 -2.4201 -1.3630
  109OSM    H4G11278   1.905   3.422  10.460 -0.9979 -1.9196  1.0116
  109OSM    C5F11279   1.756   3.389  10.300  0.0711  0.1471  0.5506
  109OSM    H5F11280   1.719   3.490  10.327 -0.0772 -0.0910  1.2673
  109OSM    H5G11281   1.682   3.311  10.328  1.2519 -1.8406 -1.4684
  109OSM    C6F11282   1.759   3.380  10.152 -0.5541  0.6602  0.3275
  109OSM    H6F11283   1.817   3.289  10.126 -0.5351 -0.6128  4.0807
  109OSM    H6G11284   1.789   3.475  10.103  0.3087 -0.0236 -0.4992
  109OSM    C7F11285   1.617   3.359  10.089  0.9005  0.2788  0.6401
  109OSM    H7F11286   1.543   3.441  10.103 -1.7119 -1.7417 -0.5324
  109OSM    H7G11287   1.559   3.284  10.147 -0.9245  0.6196 -0.6632
  109OSM    C8F11288   1.628   3.333   9.940  0.1373  0.9848 -0.2333
  109OSM    H8F11289   1.525   3.308   9.907  0.9031 -0.0491 -1.9882
  109OSM    H8G11290   1.686   3.239   9.925 -1.5357  0.0035 -0.7820
  109OSM    C9F11291   1.682   3.441   9.851 -0.3280 -0.0438  0.0687
  109OSM    H9F11292   1.691   3.541   9.898  1.4262  1.6970 -3.6106
  109OSM   C10F11293   1.724   3.436   9.722 -0.8209  0.2852 -0.6184
  109OSM   H10F11294   1.749   3.533   9.676 -1.7468 -0.1434 -2.0890
  109OSM   C11F11295   1.723   3.315   9.633  0.8535 -0.3400 -0.1570
  109OSM   H11F11296   1.666   3.233   9.680  0.1748 -1.8108 -3.2499
  109OSM   H11G11297   1.826   3.275   9.620  0.8463 -1.9828  3.7206
  109OSM   C12F11298   1.657   3.344   9.501 -0.5938 -0.0897 -0.4467
  109OSM   H12F11299   1.556   3.387   9.513 -0.0198  2.5405 -3.7728
  109OSM   H12G11300   1.652   3.245   9.449  2.7888  0.5283 -2.2405
  109OSM   C13F11301   1.735   3.437   9.412 -0.4603 -0.8227  0.2664
  109OSM   H13F11302   1.846   3.434   9.423 -0.2225  1.9800 -0.5483
  109OSM   H13G11303   1.707   3.542   9.437 -0.9847 -1.2226  1.4181
  109OSM   C14F11304   1.713   3.425   9.261  0.4054  0.1150 -0.1567
  109OSM   H14F11305   1.603   3.419   9.247  0.4007 -0.0371 -0.0517
  109OSM   H14G11306   1.765   3.337   9.218  0.6490 -0.4978  1.3246
  109OSM   C15F11307   1.762   3.553   9.184  0.0368 -0.2190 -0.0747
  109OSM   H15F11308   1.873   3.553   9.181  0.0854 -1.6938 -3.9783
  109OSM   H15G11309   1.725   3.649   9.226  2.4766  0.0433  1.7086
  109OSM   C16F11310   1.733   3.548   9.037  0.2164 -0.4025 -0.8270
  109OSM   H16F11311   1.622   3.554   9.037  0.2078 -0.4913  0.1522
  109OSM   H16G11312   1.759   3.448   8.998 -0.4627 -1.0102  0.2517
  109OSM   C17F11313   1.789   3.657   8.947 -0.2042 -0.1588 -0.9236
  109OSM   H17F11314   1.769   3.759   8.987  1.8900  0.7028 -1.9346
  109OSM   H17G11315   1.730   3.657   8.853 -0.2001 -0.1320 -0.9264
  109OSM   C18F11316   1.935   3.655   8.919  0.1429  0.2300 -0.3245
  109OSM   H18F11317   2.014   3.671   8.995  1.5023 -0.4622 -1.5388
  109OSM   H18G11318   1.961   3.727   8.838  1.9483  0.6342  0.5709
  109OSM   H18H11319   1.964   3.557   8.876 -0.6000 -0.2793  0.3096
  110OSM      N11320   1.094   2.089  10.545  0.2294 -0.0834  0.8593
  110OSM    C1511321   1.158   1.961  10.581  0.5906  0.9216 -0.2600
  110OSM   H15A11322   1.126   1.886  10.511 -0.8143  0.5925  0.6869
  110OSM   H15B11323   1.123   1.909  10.670 -0.1086 -0.6113 -1.3877
  110OSM   H15C11324   1.266   1.952  10.578  0.4622 -2.5503  1.0342
  110OSM    C1411325   1.106   2.119  10.397  0.0352 -0.4477  0.0601
  110OSM   H14A11326   1.211   2.131  10.373  0.2791 -0.1181  1.2366
  110OSM   H14B11327   1.065   2.217  10.376  0.9941  0.0442  0.3686
  110OSM   H14C11328   1.061   2.048  10.330  0.1140  1.3751 -2.0656
  110OSM    C1311329   0.943   2.083  10.573  0.2447 -0.2996 -0.0954
  110OSM   H13A11330   0.926   2.039  10.670  1.9481 -1.6642 -0.3708
  110OSM   H13B11331   0.903   2.004  10.512  0.8480 -1.1817  0.6357
  110OSM   H13C11332   0.883   2.173  10.561 -0.2670 -0.5151  0.7522
  110OSM    C1211333   1.150   2.199  10.626  0.7197 -0.7115 -0.3094
  110OSM   H12A11334   1.108   2.187  10.725  1.7204 -2.5748 -0.0687
  110OSM   H12B11335   1.118   2.294  10.586  1.2507 -0.4968 -0.2289
  110OSM    C1111336   1.298   2.206  10.636 -0.2479 -0.3292  0.3835
  110OSM   H11A11337   1.330   2.206  10.529  0.6361 -1.5202  0.6258
  110OSM   H11B11338   1.340   2.123  10.697  2.2147 -0.7773 -1.7402
  110OSM      P11339   1.450   2.418  10.677  0.2166 -0.1910  0.1555
  110OSM    O1311340   1.433   2.551  10.734 -0.3228 -0.3537 -0.3326
  110OSM    O1411341   1.572   2.344  10.720  0.5689 -0.2775  0.5032
  110OSM    O1111342   1.442   2.427  10.523 -0.7417  0.6098 -0.1231
  110OSM    O1211343   1.321   2.331  10.711 -0.7964 -0.1328  0.0860
  110OSM    C1S11344   1.359   2.513  10.450  0.7727 -0.5052 -0.3078
  110OSM    H1S11345   1.380   2.614  10.492 -0.7310 -0.6794  0.9069
  110OSM    H1T11346   1.254   2.484  10.471  0.9580 -2.6074 -1.9078
  110OSM     NF11347   1.281   2.610  10.242 -0.1325  1.3730 -0.4394
  110OSM    HNF11348   1.208   2.582  10.181  1.2770  0.9236 -1.9995
  110OSM    C2S11349   1.387   2.520  10.297 -0.2776 -0.1378 -0.2065
  110OSM    H2S11350   1.486   2.569  10.285 -0.3139  0.6912  2.3442
  110OSM    C3S11351   1.395   2.380  10.226  0.7199  0.3309  0.7804
  110OSM    H3S11352   1.290   2.344  10.234  0.2505  0.9413 -1.7724
  110OSM     O311353   1.474   2.291  10.307 -0.6220 -0.6063  0.1687
  110OSM    HO311354   1.487   2.346  10.385 -2.1160  0.9646 -0.6302
  110OSM    C4S11355   1.451   2.403  10.084  0.4801  0.7700  0.2382
  110OSM    H4S11356   1.373   2.421  10.009 -2.3385 -0.2999  2.7476
  110OSM    C5S11357   1.584   2.397  10.049 -0.4450 -0.3103 -0.0114
  110OSM    H5S11358   1.665   2.389  10.124  1.1361  2.2103 -1.3146
  110OSM    C6S11359   1.633   2.419   9.909 -0.4438  0.4377 -0.6294
  110OSM    H6S11360   1.721   2.354   9.887  0.6088  1.9445 -1.0144
  110OSM    H6T11361   1.667   2.524   9.894  3.4597 -0.6340 -0.5763
  110OSM    C7S11362   1.529   2.393   9.792 -0.1277 -0.1406 -0.1571
  110OSM    H7S11363   1.458   2.478   9.805  2.8650  2.2455  2.1695
  110OSM    H7T11364   1.483   2.297   9.823 -1.4571  0.6483  0.4152
  110OSM    C8S11365   1.586   2.374   9.657  0.0856  0.7606  0.5829
  110OSM    H8S11366   1.515   2.316   9.594  1.5809 -2.5801  1.7225
  110OSM    H8T11367   1.681   2.316   9.659  0.0982  0.6616 -1.0837
  110OSM    C9S11368   1.621   2.515   9.598  0.6076  0.0371 -0.0181
  110OSM    H9S11369   1.708   2.557   9.653  0.7084 -1.2132  0.8070
  110OSM    H9T11370   1.531   2.577   9.614  0.5796  0.1053 -0.4104
  110OSM   C10S11371   1.656   2.528   9.445 -0.0901  0.4038 -0.2419
  110OSM   H10S11372   1.559   2.536   9.392 -0.3479 -1.5780 -0.1392
  110OSM   H10T11373   1.714   2.436   9.421 -0.5037 -0.6273  2.3195
  110OSM   C11S11374   1.751   2.645   9.414 -0.8008 -0.0590 -0.3338
  110OSM   H11S11375   1.847   2.615   9.462 -2.4935 -0.3009  3.2681
  110OSM   H11T11376   1.717   2.726   9.482  0.8218  0.2846  0.1255
  110OSM   C12S11377   1.765   2.670   9.265  0.0431 -0.2223 -0.5286
  110OSM   H12S11378   1.811   2.586   9.209 -1.6647 -1.3399 -0.3312
  110OSM   H12T11379   1.830   2.757   9.242 -1.5725  0.9067 -0.9955
  110OSM   C13S11380   1.633   2.707   9.194  0.5415  0.1862  0.0318
  110OSM   H13S11381   1.572   2.769   9.263  1.7438  0.0427  1.2791
  110OSM   H13T11382   1.565   2.621   9.183 -0.0089  0.6731 -0.4412
  110OSM   C14S11383   1.660   2.790   9.069  0.2494  0.0774  0.0527
  110OSM   H14S11384   1.746   2.738   9.021  0.2230  0.0460  0.0400
  110OSM   H14T11385   1.692   2.895   9.086  1.9438 -0.5155  0.7214
  110OSM   C15S11386   1.550   2.790   8.960  0.7571  0.1182  0.0821
  110OSM   H15S11387   1.456   2.834   8.999  0.6407 -1.5174  1.7811
  110OSM   H15T11388   1.519   2.686   8.936  0.4358  0.5837 -1.6740
  110OSM   C16S11389   1.588   2.856   8.829  0.4166 -0.8698 -0.0010
  110OSM   H16S11390   1.666   2.793   8.782  1.1491 -0.4368  0.6097
  110OSM   H16T11391   1.624   2.957   8.858  1.6120 -1.2017 -0.2686
  110OSM   C17S11392   1.465   2.882   8.734  0.7000  0.2835 -0.2083
  110OSM   H17S11393   1.395   2.950   8.789 -1.1288 -0.0886 -1.9480
  110OSM   H17T11394   1.409   2.787   8.718 -1.9340  1.7948 -0.5498
  110OSM   C18S11395   1.508   2.952   8.602  0.1451 -0.4542  0.7532
  110OSM   H18S11396   1.595   2.910   8.548  1.3231  3.6723 -0.9683
  110OSM   H18T11397   1.556   3.046   8.638  1.2156 -1.1028  1.0510
  110OSM   H18U11398   1.422   2.964   8.532  0.7603  1.3812  0.2565
  110OSM    C1F11399   1.296   2.743  10.259  0.0101  0.0448 -0.0112
  110OSM     OF11400   1.393   2.790  10.319  0.1931  0.2692  0.4594
  110OSM    C2F11401   1.201   2.833  10.187  0.6762 -0.3078  0.5412
  110OSM    H2F11402   1.110   2.848  10.250 -0.3235  2.7628 -1.3991
  110OSM    H2G11403   1.157   2.779  10.101  0.3678 -0.4889  0.8113
  110OSM    C3F11404   1.246   2.976  10.148  0.2777  0.3952  0.3822
  110OSM    H3F11405   1.285   3.026  10.239 -1.0336 -1.5508  2.0976
  110OSM    H3G11406   1.169   3.046  10.107  0.8471 -1.0991 -3.6818
  110OSM    C4F11407   1.353   2.983  10.044 -0.3331 -0.8699  0.3213
  110OSM    H4F11408   1.442   2.929  10.083  0.6470  0.7975  0.5174
  110OSM    H4G11409   1.373   3.092  10.029 -0.3719 -0.9165 -0.0738
  110OSM    C5F11410   1.326   2.927   9.905  0.4121  0.3411  0.1395
  110OSM    H5F11411   1.223   2.964   9.886  0.8610  2.2396  1.1044
  110OSM    H5G11412   1.343   2.817   9.910  1.4869  0.4619 -0.5234
  110OSM    C6F11413   1.420   2.998   9.801  0.0995 -0.0624 -0.0003
  110OSM    H6F11414   1.520   3.004   9.848  0.4692  0.6230 -0.8511
  110OSM    H6G11415   1.390   3.104   9.788  5.0646  1.5703 -0.1249
  110OSM    C7F11416   1.416   2.935   9.660 -0.8696  0.3199 -1.0705
  110OSM    H7F11417   1.334   2.859   9.658 -1.0168  0.4815 -1.1603
  110OSM    H7G11418   1.511   2.877   9.655  0.7303  2.8255 -1.4432
  110OSM    C8F11419   1.414   3.042   9.546 -0.0161 -0.8056 -0.0055
  110OSM    H8F11420   1.497   3.116   9.553 -0.5803  0.1889 -2.6757
  110OSM    H8G11421   1.315   3.093   9.547  0.1595 -0.4424 -0.7746
  110OSM    C9F11422   1.431   2.974   9.416  0.1441  0.1583 -0.8346
  110OSM    H9F11423   1.487   2.880   9.425  0.2507  0.3234  0.3778
  110OSM   C10F11424   1.374   3.013   9.301  0.3976  0.1610 -0.8194
  110OSM   H10F11425   1.394   2.945   9.216 -1.7086  1.1557 -2.1911
  110OSM   C11F11426   1.303   3.139   9.268  0.0149  0.1819  0.3281
  110OSM   H11F11427   1.295   3.182   9.370 -0.4868  0.0826  0.3315
  110OSM   H11G11428   1.202   3.130   9.222  1.6729 -0.5145 -3.4979
  110OSM   C12F11429   1.391   3.226   9.175 -0.1577  0.4144  0.2972
  110OSM   H12F11430   1.492   3.229   9.221 -0.4375  0.5183  0.9134
  110OSM   H12G11431   1.339   3.325   9.180  0.7249  1.1155 -2.6169
  110OSM   C13F11432   1.385   3.178   9.024 -0.5940 -0.6912 -0.1884
  110OSM   H13F11433   1.280   3.160   8.994 -0.5248  0.3183 -1.0978
  110OSM   H13G11434   1.446   3.085   9.023 -0.3340 -0.6036  2.0797
  110OSM   C14F11435   1.434   3.283   8.921 -0.5282 -0.3914  0.4152
  110OSM   H14F11436   1.455   3.224   8.830  1.4926  2.3030 -0.9974
  110OSM   H14G11437   1.523   3.326   8.974 -2.1741  0.2073  2.8666
  110OSM   C15F11438   1.326   3.386   8.893  0.7423  0.2146 -0.4107
  110OSM   H15F11439   1.310   3.446   8.985  0.3592 -2.7557  1.5874
  110OSM   H15G11440   1.226   3.340   8.878 -0.4910  2.8345 -0.8299
  110OSM   C16F11441   1.334   3.463   8.756 -0.1820 -0.0198 -0.2577
  110OSM   H16F11442   1.241   3.523   8.752 -0.7609 -0.7360  1.5780
  110OSM   H16G11443   1.335   3.393   8.669  0.1399 -0.4199  0.0615
  110OSM   C17F11444   1.454   3.551   8.746 -0.2385 -0.3209 -0.4649
  110OSM   H17F11445   1.540   3.487   8.716  0.6478  0.5319  0.1643
  110OSM   H17G11446   1.476   3.598   8.844  0.0171  1.6177 -1.3945
  110OSM   C18F11447   1.437   3.666   8.647 -0.5296  0.6928 -0.8966
  110OSM   H18F11448   1.360   3.743   8.670  0.0568  0.9258  0.3501
  110OSM   H18G11449   1.412   3.621   8.549 -0.1708  2.0883 -1.6493
  110OSM   H18H11450   1.533   3.722   8.638  0.9747 -1.4441  0.6868
  111OSM      N11451   6.772   5.722  11.032 -0.0558 -0.4569  0.0098
  111OSM    C1511452   6.911   5.732  11.090 -0.0720 -0.5605 -0.5580
  111OSM   H15A11453   6.987   5.694  11.024  2.5661 -0.1648  2.0545
  111OSM   H15B11454   6.917   5.673  11.180  1.5509 -0.5337 -0.6279
  111OSM   H15C11455   6.938   5.836  11.103  2.3306 -1.2831  0.7410
  111OSM    C1411456   6.674   5.760  11.141 -0.2517  0.1821 -0.1556
  111OSM   H14A11457   6.691   5.710  11.235 -0.0243  1.3206  0.4373
  111OSM   H14B11458   6.575   5.734  11.106  1.6782 -4.9844 -2.7928
  111OSM   H14C11459   6.691   5.864  11.166  0.1205  0.8451 -2.8938
  111OSM    C1311460   6.752   5.827  10.929 -0.1274 -0.5032  0.1781
  111OSM   H13A11461   6.652   5.814  10.891  0.1271 -2.6635  0.1187
  111OSM   H13B11462   6.834   5.828  10.859  0.3529 -2.9794  0.5970
  111OSM   H13C11463   6.756   5.927  10.969  0.0945 -1.5091  2.8780
  111OSM    C1211464   6.758   5.582  10.975  0.2915 -0.1525 -0.6020
  111OSM   H12A11465   6.770   5.515  11.059  2.3666  1.2508  0.3186
  111OSM   H12B11466   6.847   5.569  10.916  0.6012  1.3817 -0.5249
  111OSM    C1111467   6.641   5.544  10.883  0.5014 -0.0694  0.1381
  111OSM   H11A11468   6.541   5.551  10.930  0.4092  2.2131 -0.3019
  111OSM   H11B11469   6.656   5.435  10.864  1.1885 -0.2909  1.7578
  111OSM      P11470   6.737   5.565  10.634 -0.5996  0.1600 -0.0882
  111OSM    O1311471   6.736   5.685  10.546 -0.0607 -0.3369  0.6469
  111OSM    O1411472   6.864   5.513  10.686 -0.3723 -0.5581 -0.2321
  111OSM    O1111473   6.657   5.448  10.565 -0.8185  0.2359 -0.0651
  111OSM    O1211474   6.642   5.606  10.757  0.1976  0.0350 -0.1991
  111OSM    C1S11475   6.559   5.483  10.466 -0.0912  0.2870  0.0620
  111OSM    H1S11476   6.519   5.586  10.480  0.2046  0.4324 -0.1668
  111OSM    H1T11477   6.475   5.410  10.470 -0.1826  0.3186 -0.9480
  111OSM     NF11478   6.498   5.506  10.233 -0.3153  0.2019  0.1841
  111OSM    HNF11479   6.454   5.426  10.194 -1.7344  0.8466  0.3839
  111OSM    C2S11480   6.611   5.474  10.321  0.7013 -0.7482  0.3409
  111OSM    H2S11481   6.688   5.547  10.289 -0.8627  0.1923 -1.5083
  111OSM    C3S11482   6.664   5.326  10.297 -0.3083 -0.2769  0.0364
  111OSM    H3S11483   6.593   5.249  10.334 -0.5717 -1.3397 -2.4886
  111OSM     O311484   6.774   5.310  10.381 -0.4138  0.5550 -0.2296
  111OSM    HO311485   6.760   5.381  10.444 -0.5637  0.4590 -0.1528
  111OSM    C4S11486   6.688   5.300  10.149 -0.3394 -0.0465  0.4723
  111OSM    H4S11487   6.598   5.263  10.097  0.7401 -0.5462 -1.1092
  111OSM    C5S11488   6.798   5.310  10.078  0.3669  0.4949  0.4486
  111OSM    H5S11489   6.887   5.352  10.128  0.1932  1.4997 -0.0468
  111OSM    C6S11490   6.830   5.292   9.934 -0.1333 -0.7108  0.1384
  111OSM    H6S11491   6.886   5.196   9.921  1.0061 -0.2442  1.3103
  111OSM    H6T11492   6.903   5.372   9.909 -2.9355  3.0518  2.9323
  111OSM    C7S11493   6.714   5.280   9.835 -0.0397 -0.2487 -0.6448
  111OSM    H7S11494   6.646   5.367   9.843  0.7809  0.4297 -0.9500
  111OSM    H7T11495   6.661   5.183   9.853 -0.4274  0.1027  0.1975
  111OSM    C8S11496   6.776   5.276   9.699 -1.3080  0.4228  0.1658
  111OSM    H8S11497   6.809   5.172   9.681 -1.0490  0.6854 -0.9176
  111OSM    H8T11498   6.866   5.340   9.684 -0.8865 -0.0648  0.5782
  111OSM    C9S11499   6.679   5.310   9.584 -0.3237  0.8494 -0.2043
  111OSM    H9S11500   6.648   5.414   9.607 -0.4413  0.5189  1.2279
  111OSM    H9T11501   6.593   5.241   9.597 -0.9298  1.2695 -1.7356
  111OSM   C10S11502   6.731   5.284   9.443  0.1262 -0.3044 -0.3251
  111OSM   H10S11503   6.721   5.174   9.432 -1.9503 -0.1209 -0.5920
  111OSM   H10T11504   6.840   5.305   9.436  0.2721 -0.3447  1.4511
  111OSM   C11S11505   6.647   5.343   9.330 -0.8384 -1.0514  0.1673
  111OSM   H11S11506   6.542   5.308   9.317 -1.9955  2.3963 -0.8928
  111OSM   H11T11507   6.695   5.324   9.231 -2.0771 -0.9762 -0.4775
  111OSM   C12S11508   6.652   5.502   9.335  0.0527 -0.8429  0.9059
  111OSM   H12S11509   6.760   5.528   9.331 -0.5475  1.8264  0.7924
  111OSM   H12T11510   6.610   5.539   9.431  1.2862  0.5697  0.9311
  111OSM   C13S11511   6.568   5.572   9.217 -0.0446  0.0291  0.1319
  111OSM   H13S11512   6.457   5.570   9.227 -0.0136  0.6417  0.7348
  111OSM   H13T11513   6.594   5.533   9.117  1.0817 -0.2738  0.5392
  111OSM   C14S11514   6.608   5.721   9.216  0.4846  0.0762  0.1339
  111OSM   H14S11515   6.708   5.726   9.170 -0.0989 -0.8117 -1.2934
  111OSM   H14T11516   6.618   5.752   9.323  0.1232 -1.2888  0.5857
  111OSM   C15S11517   6.517   5.824   9.137  0.1446  0.0861  0.3373
  111OSM   H15S11518   6.553   5.927   9.156  0.4045  0.2190 -0.7713
  111OSM   H15T11519   6.412   5.821   9.172 -1.0202  0.6477 -2.7420
  111OSM   C16S11520   6.499   5.793   8.988 -0.2059 -0.7153  0.5346
  111OSM   H16S11521   6.490   5.685   8.965 -3.5130 -0.2090 -1.1496
  111OSM   H16T11522   6.592   5.822   8.934  0.5817 -1.9483  1.1930
  111OSM   C17S11523   6.367   5.858   8.936  0.5672  0.3996  0.0213
  111OSM   H17S11524   6.275   5.818   8.982 -1.4592  4.4891  0.0320
  111OSM   H17T11525   6.354   5.840   8.827  0.1904  0.4465  0.0557
  111OSM   C18S11526   6.355   6.009   8.967  0.3234 -0.8978  0.7995
  111OSM   H18S11527   6.256   6.041   8.929  0.9505 -1.4050 -1.3847
  111OSM   H18T11528   6.437   6.058   8.910 -1.4361  1.9652  0.5182
  111OSM   H18U11529   6.365   6.036   9.074 -0.6252 -0.8527  0.8852
  111OSM    C1F11530   6.453   5.636  10.215 -0.8935 -0.4107 -0.1080
  111OSM     OF11531   6.509   5.733  10.271 -0.4445  0.2031  0.4756
  111OSM    C2F11532   6.349   5.667  10.109  1.0321  0.0880  0.7060
  111OSM    H2F11533   6.252   5.701  10.152  0.8794  0.5305  0.0384
  111OSM    H2G11534   6.335   5.577  10.047 -0.0973  0.2017  0.7673
  111OSM    C3F11535   6.405   5.786  10.017  0.3403  0.0594 -0.1465
  111OSM    H3F11536   6.491   5.744   9.961 -0.2797 -1.0731 -0.2837
  111OSM    H3G11537   6.430   5.879  10.073 -0.9336 -0.4309  1.2957
  111OSM    C4F11538   6.308   5.819   9.902  0.2332  0.3659  0.2684
  111OSM    H4F11539   6.237   5.884   9.958  1.4887 -0.9695  3.6692
  111OSM    H4G11540   6.263   5.725   9.864 -1.1670  0.5394  1.4130
  111OSM    C5F11541   6.384   5.883   9.788 -0.2748 -0.2725 -0.5585
  111OSM    H5F11542   6.472   5.824   9.757  0.3258  0.0273  0.5336
  111OSM    H5G11543   6.422   5.980   9.827 -2.7406  0.8757 -0.8099
  111OSM    C6F11544   6.296   5.915   9.657 -0.3724  1.1573 -0.7116
  111OSM    H6F11545   6.233   6.003   9.683 -1.0144 -0.1443  2.6458
  111OSM    H6G11546   6.227   5.828   9.657  3.0604 -1.8561  1.1473
  111OSM    C7F11547   6.377   5.929   9.528  0.3436  0.1721 -0.2101
  111OSM    H7F11548   6.370   5.827   9.483 -0.6507 -0.5681  1.5111
  111OSM    H7G11549   6.484   5.954   9.546  0.3801 -0.1947  0.1152
  111OSM    C8F11550   6.328   6.034   9.432 -0.1825  0.7955 -0.5511
  111OSM    H8F11551   6.229   6.011   9.386 -0.0668 -0.2491 -0.2941
  111OSM    H8G11552   6.383   6.031   9.336 -0.0562  2.2964 -0.5510
  111OSM    C9F11553   6.349   6.174   9.486 -0.1717  0.4676 -0.0146
  111OSM    H9F11554   6.295   6.202   9.577  1.2949  3.9481 -0.0593
  111OSM   C10F11555   6.420   6.269   9.426 -0.0521  0.0741  0.5526
  111OSM   H10F11556   6.414   6.369   9.471 -3.6011  0.5841 -0.7149
  111OSM   C11F11557   6.502   6.263   9.297 -0.3707 -0.0012 -0.5688
  111OSM   H11F11558   6.508   6.161   9.255 -3.0418 -0.9162  0.9956
  111OSM   H11G11559   6.605   6.305   9.303 -1.6214  3.2607  0.7405
  111OSM   C12F11560   6.431   6.350   9.195 -0.4816  0.1695 -0.4135
  111OSM   H12F11561   6.400   6.444   9.245  2.0453  0.3682  0.9855
  111OSM   H12G11562   6.346   6.300   9.145 -0.0410  1.3820 -2.4999
  111OSM   C13F11563   6.530   6.385   9.073  0.3694  0.2105 -0.6118
  111OSM   H13F11564   6.572   6.291   9.032  0.5084  0.8581 -2.0068
  111OSM   H13G11565   6.608   6.448   9.121 -0.3787  0.8947 -0.2504
  111OSM   C14F11566   6.457   6.455   8.959  0.6172  0.4942 -0.5398
  111OSM   H14F11567   6.403   6.542   9.001 -0.4834  0.3933 -1.6876
  111OSM   H14G11568   6.384   6.378   8.926 -0.1105  0.7285  0.4982
  111OSM   C15F11569   6.537   6.503   8.835 -0.3152  0.4262  0.0532
  111OSM   H15F11570   6.624   6.564   8.869  0.8455 -1.2105  0.1385
  111OSM   H15G11571   6.473   6.571   8.774 -1.2431 -0.2691  0.2364
  111OSM   C16F11572   6.595   6.388   8.753 -0.0139  0.0476 -0.1826
  111OSM   H16F11573   6.512   6.316   8.740 -0.9345  1.1489 -0.5966
  111OSM   H16G11574   6.682   6.340   8.803  0.7467  2.9218  1.4942
  111OSM   C17F11575   6.653   6.443   8.621 -0.4424  0.1389  1.5746
  111OSM   H17F11576   6.690   6.352   8.569  2.1664  1.4969  0.8727
  111OSM   H17G11577   6.750   6.494   8.639  1.0104 -2.5350  1.7732
  111OSM   C18F11578   6.549   6.514   8.527 -0.8951 -0.1878 -0.3290
  111OSM   H18F11579   6.501   6.607   8.564  0.9648  0.6637  0.1140
  111OSM   H18G11580   6.464   6.446   8.507 -0.8131 -0.1363 -0.8723
  111OSM   H18H11581   6.601   6.530   8.430  1.2845 -2.2848  0.3868
  112OSM      N11582   3.054   4.724  11.111 -0.4629 -0.5874  0.0635
  112OSM    C1511583   3.044   4.868  11.137  0.0228 -0.4766  0.7813
  112OSM   H15A11584   3.002   4.918  11.051  1.9077  0.6715  0.4668
  112OSM   H15B11585   3.135   4.925  11.148  0.3677 -0.7058 -0.6563
  112OSM   H15C11586   2.977   4.886  11.220 -2.2358  0.9455 -1.2219
  112OSM    C1411587   3.166   4.708  11.014  0.2200  0.2744  0.3435
  112OSM   H14A11588   3.161   4.744  10.912  0.4454  0.5585  0.4323
  112OSM   H14B11589   3.188   4.602  11.008 -0.4362  0.0027  2.0873
  112OSM   H14C11590   3.258   4.749  11.052  0.3068 -1.1608  1.7954
  112OSM    C1311591   3.096   4.652  11.235 -0.6371  0.1635  1.0489
  112OSM   H13A11592   3.117   4.550  11.207  0.9923  0.1876  2.0406
  112OSM   H13B11593   3.017   4.654  11.307 -1.6818 -3.4567  0.2334
  112OSM   H13C11594   3.186   4.688  11.282  0.6447 -2.0373  0.4260
  112OSM    C1211595   2.921   4.667  11.062  0.6500  0.5322 -0.8957
  112OSM   H12A11596   2.840   4.683  11.131  0.9704  1.1018 -0.6497
  112OSM   H12B11597   2.932   4.560  11.050 -0.4158  0.4542 -1.2905
  112OSM    C1111598   2.869   4.734  10.931  0.2965  0.4582 -0.2702
  112OSM   H11A11599   2.807   4.655  10.883  1.1235  0.2590 -1.0290
  112OSM   H11B11600   2.955   4.760  10.866  2.3381 -0.1886  2.0123
  112OSM      P11601   2.658   4.877  11.016  0.2430 -0.0714 -0.4703
  112OSM    O1311602   2.630   4.768  11.108 -0.1051  0.4075  0.1497
  112OSM    O1411603   2.639   5.016  11.056  0.0764 -0.1379  0.0318
  112OSM    O1111604   2.576   4.846  10.884  0.1385 -0.1912 -0.0994
  112OSM    O1211605   2.811   4.858  10.965  0.6508 -0.3841  0.1197
  112OSM    C1S11606   2.607   4.927  10.773  0.0705  0.4931 -0.1641
  112OSM    H1S11607   2.697   4.990  10.792  2.6092 -3.3196  1.6989
  112OSM    H1T11608   2.524   4.990  10.734  0.4173  1.3577  0.4512
  112OSM     NF11609   2.703   4.917  10.548  0.1801 -1.0316  0.5796
  112OSM    HNF11610   2.637   4.954  10.483 -0.6076 -0.9697  1.4004
  112OSM    C2S11611   2.651   4.838  10.657 -0.2730 -0.0517 -0.5119
  112OSM    H2S11612   2.735   4.776  10.695 -1.5723 -1.2938  0.4674
  112OSM    C3S11613   2.536   4.740  10.610  0.7556 -0.1172  0.1719
  112OSM    H3S11614   2.459   4.807  10.568  1.6905 -0.3293 -1.9882
  112OSM     O311615   2.486   4.660  10.712 -0.5629 -0.6763  0.2523
  112OSM    HO311616   2.528   4.693  10.792 -1.3462  2.4356 -0.4738
  112OSM    C4S11617   2.590   4.661  10.490 -0.7723  0.7417 -0.2219
  112OSM    H4S11618   2.582   4.714  10.394  2.0543  1.4249 -0.1953
  112OSM    C5S11619   2.651   4.539  10.500  0.2559  0.2663  0.6551
  112OSM    H5S11620   2.650   4.481  10.593  1.1024 -1.8086 -0.5749
  112OSM    C6S11621   2.707   4.471  10.377 -0.6100 -0.2846  0.2614
  112OSM    H6S11622   2.654   4.375  10.359  1.1461 -1.4299  0.9101
  112OSM    H6T11623   2.813   4.443  10.397 -0.3450  0.5852  0.1307
  112OSM    C7S11624   2.692   4.536  10.240  0.1880  0.7743  0.4532
  112OSM    H7S11625   2.742   4.635  10.234  0.4763  0.5516 -2.2887
  112OSM    H7T11626   2.584   4.551  10.221  0.2634  0.3673 -0.3427
  112OSM    C8S11627   2.760   4.450  10.133 -0.1543  0.8577 -0.6500
  112OSM    H8S11628   2.720   4.349  10.155 -1.2863  1.0607 -1.6497
  112OSM    H8T11629   2.871   4.441  10.139 -0.2368 -0.2503 -0.6813
  112OSM    C9S11630   2.723   4.478   9.988 -0.0556  0.1886  0.0409
  112OSM    H9S11631   2.759   4.579   9.959  1.7573  0.0179  1.4862
  112OSM    H9T11632   2.612   4.483   9.982 -0.0290  0.1300 -0.6380
  112OSM   C10S11633   2.775   4.379   9.876  0.3977 -0.3552  0.0905
  112OSM   H10S11634   2.744   4.282   9.920  0.6764 -1.1039 -1.3175
  112OSM   H10T11635   2.886   4.368   9.875  0.3424 -0.8286 -0.8698
  112OSM   C11S11636   2.731   4.419   9.731  0.3441  0.5251 -0.5723
  112OSM   H11S11637   2.799   4.504   9.710  0.3102  0.5231 -0.6910
  112OSM   H11T11638   2.625   4.455   9.733  0.7057  2.0298 -3.4225
  112OSM   C12S11639   2.743   4.308   9.627  0.4194 -1.3578  0.0843
  112OSM   H12S11640   2.660   4.234   9.624 -1.7379  0.9232 -2.8647
  112OSM   H12T11641   2.839   4.262   9.658  0.3988 -2.0232 -0.7877
  112OSM   C13S11642   2.759   4.356   9.491  0.3249  0.1865 -0.5156
  112OSM   H13S11643   2.766   4.267   9.424 -1.7081 -1.5980  1.5035
  112OSM   H13T11644   2.861   4.401   9.487  1.1464 -1.5254  0.1576
  112OSM   C14S11645   2.655   4.456   9.436 -0.1582  0.3043  0.5062
  112OSM   H14S11646   2.675   4.552   9.489  2.3077  0.7330 -1.0739
  112OSM   H14T11647   2.558   4.414   9.470 -1.4023 -0.7628 -3.7591
  112OSM   C15S11648   2.643   4.468   9.280 -0.4943 -0.3024  0.4103
  112OSM   H15S11649   2.563   4.535   9.242  0.3421  0.2985 -0.3480
  112OSM   H15T11650   2.625   4.372   9.227  0.3784  0.5985 -1.6597
  112OSM   C16S11651   2.773   4.532   9.220  0.2351 -0.1491 -0.3563
  112OSM   H16S11652   2.858   4.475   9.263 -0.1887 -0.1307  0.5220
  112OSM   H16T11653   2.790   4.636   9.254  0.5154 -0.2270 -0.2524
  112OSM   C17S11654   2.770   4.531   9.061  0.4570 -0.0536  0.1418
  112OSM   H17S11655   2.672   4.570   9.027 -0.2511  0.6727  2.7780
  112OSM   H17T11656   2.790   4.426   9.033 -0.9774 -0.1782 -0.4594
  112OSM   C18S11657   2.882   4.620   8.995 -0.0108  0.4137 -0.6604
  112OSM   H18S11658   2.892   4.724   9.032 -1.0257  0.5213 -0.6468
  112OSM   H18T11659   2.858   4.622   8.886 -0.0658 -2.1371 -0.7521
  112OSM   H18U11660   2.978   4.564   9.002  0.1620  0.6292 -1.2038
  112OSM    C1F11661   2.827   4.962  10.561  0.1175 -0.0774  0.2805
  112OSM     OF11662   2.902   4.925  10.652 -0.3027 -0.1165 -0.2428
  112OSM    C2F11663   2.873   5.054  10.452  0.0289  0.0328 -0.1261
  112OSM    H2F11664   2.983   5.064  10.456 -0.0482  1.1253 -0.3308
  112OSM    H2G11665   2.832   5.156  10.468  0.7934  0.2404  0.6084
  112OSM    C3F11666   2.819   5.012  10.310  0.6749  0.3678 -0.6059
  112OSM    H3F11667   2.710   5.024  10.292  0.5361 -0.2719 -0.2305
  112OSM    H3G11668   2.832   4.902  10.308  2.0879  0.5149 -1.5499
  112OSM    C4F11669   2.899   5.074  10.194 -1.2474  0.2291  0.0481
  112OSM    H4F11670   3.008   5.064  10.215 -1.3881  1.7363  1.8484
  112OSM    H4G11671   2.883   5.184  10.198  1.2905  0.7023 -1.0917
  112OSM    C5F11672   2.870   5.012  10.061 -0.5064 -0.1868 -1.3032
  112OSM    H5F11673   2.761   4.991  10.054 -0.8359  1.3640 -1.2167
  112OSM    H5G11674   2.921   4.914  10.050 -0.4721 -0.3954  0.3871
  112OSM    C6F11675   2.918   5.085   9.934 -0.1543  0.7925 -0.1554
  112OSM    H6F11676   3.027   5.104   9.937  0.2042 -0.6354  4.9065
  112OSM    H6G11677   2.876   5.187   9.929 -1.2379  0.3601 -0.1484
  112OSM    C7F11678   2.883   5.011   9.800  0.2516  0.3004 -0.0362
  112OSM    H7F11679   2.782   5.047   9.771 -0.5806 -1.7368  0.1821
  112OSM    H7G11680   2.849   4.908   9.825  2.5211  0.0871  2.6339
  112OSM    C8F11681   2.987   5.021   9.694  0.2214 -0.0798 -0.7017
  112OSM    H8F11682   3.083   4.997   9.745 -0.4679 -1.4035  0.0283
  112OSM    H8G11683   2.984   5.130   9.670 -4.2695 -0.1031 -1.0325
  112OSM    C9F11684   2.960   4.917   9.588 -0.6377 -0.1153  0.2494
  112OSM    H9F11685   2.895   4.835   9.624  1.0274 -0.7901  1.8878
  112OSM   C10F11686   2.993   4.925   9.456  0.4411 -0.7078  0.3402
  112OSM   H10F11687   2.962   4.849   9.383  3.7738  0.7691 -2.9331
  112OSM   C11F11688   3.065   5.041   9.389  0.3249  0.7428 -0.2087
  112OSM   H11F11689   3.158   5.009   9.337 -0.0519 -1.0224  0.1350
  112OSM   H11G11690   3.089   5.122   9.461 -0.3470  0.5288  0.2651
  112OSM   C12F11691   2.975   5.113   9.288  0.2053  0.0283  0.5868
  112OSM   H12F11692   3.018   5.210   9.253  1.0703 -1.4813 -2.9902
  112OSM   H12G11693   2.881   5.151   9.334 -0.6876  0.0247 -1.1626
  112OSM   C13F11694   2.971   5.026   9.161  0.2185  0.3487  0.3758
  112OSM   H13F11695   2.913   4.933   9.183  1.9673 -1.8094 -3.1246
  112OSM   H13G11696   3.075   4.997   9.136 -0.0758 -0.4536  0.0409
  112OSM   C14F11697   2.914   5.105   9.044 -0.0221 -0.1469  0.1822
  112OSM   H14F11698   2.963   5.202   9.024 -0.6787  0.5114  1.6064
  112OSM   H14G11699   2.810   5.136   9.070  0.0635  0.1919  0.1206
  112OSM   C15F11700   2.907   5.022   8.913  0.4316 -0.3749  0.4027
  112OSM   H15F11701   2.833   4.943   8.940  0.7746 -0.6824  0.4508
  112OSM   H15G11702   3.001   4.965   8.897 -0.1374 -1.4987  0.9526
  112OSM   C16F11703   2.863   5.087   8.785  0.6319 -0.0994  0.3470
  112OSM   H16F11704   2.950   5.136   8.735 -0.9055  0.6407 -1.7460
  112OSM   H16G11705   2.795   5.173   8.805  1.5710  1.0981 -1.3353
  112OSM   C17F11706   2.806   4.983   8.687  0.0272  0.8965 -0.9228
  112OSM   H17F11707   2.719   4.943   8.744 -0.1339  1.1425 -0.9930
  112OSM   H17G11708   2.883   4.903   8.678  0.6561  1.6100 -2.1001
  112OSM   C18F11709   2.765   5.023   8.552  0.1967  0.3068 -0.0642
  112OSM   H18F11710   2.687   5.103   8.556 -0.5623 -0.4826  1.5653
  112OSM   H18G11711   2.707   4.937   8.513  0.0990 -0.2068  1.1703
  112OSM   H18H11712   2.853   5.054   8.492  1.7995 -0.4214  1.8113
  113OSM      N11713   4.804   1.503  11.152  0.5727 -0.4804  0.0926
  113OSM    C1511714   4.936   1.454  11.182 -0.2689  0.1127 -0.1380
  113OSM   H15A11715   4.954   1.436  11.287  2.1614 -0.8480 -0.6543
  113OSM   H15B11716   5.013   1.528  11.163  1.5337 -1.1628  1.7481
  113OSM   H15C11717   4.956   1.359  11.136 -1.8655 -0.4000  0.1430
  113OSM    C1411718   4.703   1.390  11.146 -0.1132 -0.6717 -0.1483
  113OSM   H14A11719   4.604   1.421  11.118 -0.3507 -0.7659  0.5915
  113OSM   H14B11720   4.691   1.333  11.237 -2.3878 -0.5092 -0.3018
  113OSM   H14C11721   4.731   1.314  11.075  0.5461  0.1095 -0.7472
  113OSM    C1311722   4.771   1.597  11.266 -0.7730  0.2734  0.1654
  113OSM   H13A11723   4.753   1.544  11.358 -2.0398  0.4282  0.0246
  113OSM   H13B11724   4.683   1.651  11.235  0.4921  0.9845 -2.5292
  113OSM   H13C11725   4.842   1.676  11.287 -1.9998  1.0960  1.3914
  113OSM    C1211726   4.808   1.568  11.017 -0.7116 -0.0760  0.6268
  113OSM   H12A11727   4.836   1.490  10.948  0.3148  0.3646  0.5259
  113OSM   H12B11728   4.886   1.642  11.008 -0.8628 -0.1108 -1.4341
  113OSM    C1111729   4.676   1.636  10.977  0.5070  0.6113  1.1866
  113OSM   H11A11730   4.592   1.567  11.002  1.0951 -0.0786  1.2882
  113OSM   H11B11731   4.683   1.650  10.868  1.3525  0.5814  1.2302
  113OSM      P11732   4.737   1.885  11.003  0.2267  0.2818  0.3014
  113OSM    O1311733   4.689   2.008  11.076  1.0865  0.3807  0.7098
  113OSM    O1411734   4.883   1.857  11.001  0.1569 -0.4383 -0.5350
  113OSM    O1111735   4.688   1.890  10.855 -0.2822 -0.1101 -0.1277
  113OSM    O1211736   4.660   1.755  11.053  0.5989 -0.7577 -0.5326
  113OSM    C1S11737   4.728   1.990  10.761  0.0973  0.8109  0.2057
  113OSM    H1S11738   4.832   1.969  10.726 -0.1624  1.2679 -0.8931
  113OSM    H1T11739   4.722   2.088  10.813 -1.0876 -0.2932  2.2793
  113OSM     NF11740   4.668   2.091  10.540 -0.1460  0.1659 -0.3637
  113OSM    HNF11741   4.617   2.177  10.549 -2.0332 -0.6782 -2.1270
  113OSM    C2S11742   4.633   1.988  10.633  0.0094  0.3853  0.1466
  113OSM    H2S11743   4.653   1.888  10.589  1.6175  1.6116 -2.1261
  113OSM    C3S11744   4.487   1.999  10.681  0.5574 -0.4815 -0.4179
  113OSM    H3S11745   4.484   2.094  10.738  4.4068 -1.6703  2.1463
  113OSM     O311746   4.453   1.893  10.773  0.2272  0.3301  0.7603
  113OSM    HO311747   4.535   1.869  10.816  1.4029  2.0422 -0.4291
  113OSM    C4S11748   4.382   1.980  10.576 -0.2565 -0.6838 -0.6308
  113OSM    H4S11749   4.355   1.876  10.554 -0.6338 -0.9659  1.0857
  113OSM    C5S11750   4.325   2.077  10.507 -0.6105  0.3564 -0.3504
  113OSM    H5S11751   4.359   2.180  10.526  0.5485  0.3837 -2.2886
  113OSM    C6S11752   4.218   2.053  10.409 -0.5876 -0.2692 -0.4776
  113OSM    H6S11753   4.118   2.075  10.453  0.2401 -0.4068  1.5504
  113OSM    H6T11754   4.215   1.944  10.390  1.3893 -0.4643  0.1602
  113OSM    C7S11755   4.246   2.145  10.290 -0.5511 -0.4396  0.0090
  113OSM    H7S11756   4.349   2.142  10.247 -0.8728 -1.6068 -0.7573
  113OSM    H7T11757   4.227   2.243  10.338 -0.7887  0.4331 -1.7727
  113OSM    C8S11758   4.137   2.141  10.186 -0.0733  0.1228  0.3049
  113OSM    H8S11759   4.042   2.131  10.243  1.3752 -0.7272  2.7600
  113OSM    H8T11760   4.144   2.053  10.119  0.7519  0.2854  0.1649
  113OSM    C9S11761   4.128   2.268  10.087 -0.0847  0.7577 -0.3906
  113OSM    H9S11762   4.231   2.293  10.054  1.6849 -1.3038  2.9843
  113OSM    H9T11763   4.089   2.356  10.143  2.1749  0.1703  2.4135
  113OSM   C10S11764   4.044   2.238   9.959  0.4963 -0.5910 -0.0298
  113OSM   H10S11765   4.028   2.335   9.907 -2.2246 -0.4976  0.8353
  113OSM   H10T11766   3.942   2.200   9.979  0.9173 -3.1322 -2.2264
  113OSM   C11S11767   4.113   2.124   9.885 -0.0013  0.2858  0.9168
  113OSM   H11S11768   4.094   2.027   9.936 -0.0564 -0.9060 -1.2285
  113OSM   H11T11769   4.221   2.149   9.879  0.0706 -0.2433 -0.5314
  113OSM   C12S11770   4.064   2.112   9.739  0.4176  0.1158  0.4166
  113OSM   H12S11771   3.958   2.081   9.742  0.4868 -0.5526 -2.1054
  113OSM   H12T11772   4.117   2.023   9.700  0.1482 -0.2903  0.9626
  113OSM   C13S11773   4.074   2.234   9.657  0.6025  0.5846  0.1020
  113OSM   H13S11774   4.171   2.288   9.673 -0.7486  3.3661 -0.4162
  113OSM   H13T11775   3.991   2.301   9.689  0.5070 -0.0809  1.2937
  113OSM   C14S11776   4.058   2.208   9.505 -0.1291 -0.7073 -0.4112
  113OSM   H14S11777   3.953   2.181   9.481 -0.4194 -1.3781  1.4843
  113OSM   H14T11778   4.132   2.134   9.467  0.7212  1.2726 -2.9000
  113OSM   C15S11779   4.091   2.337   9.432  1.1155  0.1117 -0.1574
  113OSM   H15S11780   4.199   2.363   9.434  0.5969  2.5414  2.4513
  113OSM   H15T11781   4.035   2.420   9.480  1.2773  1.7665 -2.6272
  113OSM   C16S11782   4.040   2.339   9.281 -0.4240 -0.0447 -0.5236
  113OSM   H16S11783   3.931   2.360   9.280 -0.6166 -0.7647  1.3076
  113OSM   H16T11784   4.056   2.239   9.235  1.3563 -0.4986  0.9335
  113OSM   C17S11785   4.119   2.448   9.202  0.3486  0.2690  0.8678
  113OSM   H17S11786   4.230   2.446   9.209  0.3728  2.3578  1.6917
  113OSM   H17T11787   4.087   2.546   9.245  1.0914  0.7161  0.4099
  113OSM   C18S11788   4.092   2.461   9.054 -0.3867  0.1511  0.8345
  113OSM   H18S11789   4.139   2.552   9.011  1.4390 -1.5885 -1.0512
  113OSM   H18T11790   3.985   2.479   9.033  0.1566  2.7639 -0.1142
  113OSM   H18U11791   4.118   2.372   8.994  0.3966  0.7748  0.2208
  113OSM    C1F11792   4.778   2.089  10.468 -0.1958 -0.0631  0.4658
  113OSM     OF11793   4.843   1.988  10.472  0.5419  0.1096 -0.5387
  113OSM    C2F11794   4.812   2.211  10.379  0.1181  0.5094 -0.3820
  113OSM    H2F11795   4.919   2.234  10.396  0.0335  0.0031  1.0154
  113OSM    H2G11796   4.745   2.297  10.399 -0.1987 -0.1680  1.7231
  113OSM    C3F11797   4.803   2.166  10.231  0.3361  0.1719 -0.2893
  113OSM    H3F11798   4.864   2.074  10.218 -1.2504 -0.8539 -0.7607
  113OSM    H3G11799   4.857   2.234  10.162 -0.5358  0.7094 -0.4550
  113OSM    C4F11800   4.663   2.138  10.183  0.8260 -0.1377  0.5050
  113OSM    H4F11801   4.608   2.234  10.190  0.2915 -0.3505 -0.5449
  113OSM    H4G11802   4.600   2.065  10.237  0.6004  1.1129  1.9870
  113OSM    C5F11803   4.654   2.094  10.035 -0.2125 -0.1188  0.1265
  113OSM    H5F11804   4.695   1.991  10.044  0.2227  0.1136  0.9028
  113OSM    H5G11805   4.719   2.159   9.974 -2.5157  0.2170 -2.1425
  113OSM    C6F11806   4.507   2.104   9.984  0.0263  0.0587  0.4992
  113OSM    H6F11807   4.466   2.206  10.001  0.7894  0.2064  1.5241
  113OSM    H6G11808   4.447   2.034  10.046  0.6587  1.3869  2.7210
  113OSM    C7F11809   4.494   2.052   9.840  0.0589  0.1635  0.2917
  113OSM    H7F11810   4.395   2.082   9.800 -0.4434 -0.1639  1.2689
  113OSM    H7G11811   4.513   1.943   9.840  2.3028  0.4576  2.6053
  113OSM    C8F11812   4.597   2.107   9.733 -0.2072  0.6140  0.4322
  113OSM    H8F11813   4.584   2.040   9.646 -0.9923  0.3531  0.7396
  113OSM    H8G11814   4.700   2.088   9.771 -0.5491 -1.5325  0.3802
  113OSM    C9F11815   4.582   2.250   9.705 -0.3572  0.0911  0.2714
  113OSM    H9F11816   4.579   2.320   9.791  1.0929  0.4146  0.0964
  113OSM   C10F11817   4.560   2.306   9.580  0.1614  0.2217  0.9143
  113OSM   H10F11818   4.555   2.415   9.564  0.4363 -0.1181 -2.0355
  113OSM   C11F11819   4.555   2.226   9.458 -0.1751  0.8675  0.8671
  113OSM   H11F11820   4.515   2.125   9.482  1.8407 -0.4372 -0.9732
  113OSM   H11G11821   4.655   2.208   9.415 -1.0019 -1.2341 -0.3309
  113OSM   C12F11822   4.477   2.265   9.333  0.3242 -0.8393 -0.0566
  113OSM   H12F11823   4.510   2.363   9.292 -0.2962 -0.0014  1.3812
  113OSM   H12G11824   4.369   2.272   9.356  0.3347  4.6102 -0.4371
  113OSM   C13F11825   4.503   2.166   9.223  0.0158 -0.4988 -0.1948
  113OSM   H13F11826   4.470   2.062   9.243 -0.1892 -0.3876  0.0456
  113OSM   H13G11827   4.611   2.160   9.197  0.6031  0.8819  1.6395
  113OSM   C14F11828   4.434   2.199   9.088  0.0873 -0.0187  0.1102
  113OSM   H14F11829   4.324   2.208   9.098  0.0305 -1.7093  1.5493
  113OSM   H14G11830   4.450   2.109   9.025  0.9122  0.1822  0.0184
  113OSM   C15F11831   4.494   2.323   9.021  0.1857  0.3863 -0.0140
  113OSM   H15F11832   4.605   2.321   9.019  0.1858 -1.7431 -1.8616
  113OSM   H15G11833   4.459   2.413   9.076  1.4081  0.9472 -0.1120
  113OSM   C16F11834   4.445   2.332   8.875 -0.2524 -0.3467  0.5960
  113OSM   H16F11835   4.337   2.307   8.867 -0.7341  2.1110 -2.1716
  113OSM   H16G11836   4.493   2.257   8.808  0.2692 -0.2876  0.8913
  113OSM   C17F11837   4.477   2.468   8.810 -0.7807 -0.3716  0.1509
  113OSM   H17F11838   4.582   2.498   8.827 -0.7469  0.4312 -1.3394
  113OSM   H17G11839   4.423   2.554   8.855 -2.0801 -0.5220 -1.0584
  113OSM   C18F11840   4.459   2.464   8.658 -0.1547  0.0964 -0.0219
  113OSM   H18F11841   4.496   2.556   8.608 -0.8767  0.3541 -0.1010
  113OSM   H18G11842   4.349   2.461   8.642 -0.5615 -1.4650  2.5305
  113OSM   H18H11843   4.507   2.380   8.604 -0.5423 -0.2897  0.2270
  114OSM      N11844   1.543   4.379  11.330  1.1261 -0.0457  0.3563
  114OSM    C1511845   1.512   4.340  11.471  0.5288  0.2731  0.2794
  114OSM   H15A11846   1.599   4.371  11.526  1.8424  0.1547 -1.6072
  114OSM   H15B11847   1.493   4.234  11.481  1.1652 -0.1988 -2.4775
  114OSM   H15C11848   1.428   4.393  11.513 -0.7631 -0.6129 -1.0715
  114OSM    C1411849   1.573   4.522  11.324  1.0010  0.3831 -0.5102
  114OSM   H14A11850   1.488   4.585  11.347  1.2116  1.8633 -3.3250
  114OSM   H14B11851   1.590   4.541  11.219 -1.3257  0.1282 -0.9996
  114OSM   H14C11852   1.660   4.549  11.382  0.5100 -0.7580  0.8154
  114OSM    C1311853   1.667   4.310  11.291 -0.2950  0.8855 -0.2783
  114OSM   H13A11854   1.753   4.342  11.348  1.3269 -2.3270 -0.7450
  114OSM   H13B11855   1.692   4.312  11.186  0.4496  0.0551 -0.1244
  114OSM   H13C11856   1.653   4.207  11.319  0.4206  0.6604 -0.7387
  114OSM    C1211857   1.428   4.337  11.242  0.1483  0.7116 -0.1967
  114OSM   H12A11858   1.333   4.385  11.265 -0.2307 -0.4892  0.8440
  114OSM   H12B11859   1.396   4.236  11.259 -1.9963  0.9455 -2.2527
  114OSM    C1111860   1.447   4.354  11.081  0.4110 -0.1108  0.7499
  114OSM   H11A11861   1.460   4.461  11.054  1.9854 -0.6175 -0.6823
  114OSM   H11B11862   1.353   4.324  11.030 -0.3494 -0.1789  2.1596
  114OSM      P11863   1.554   4.123  11.013  0.3203 -0.2042 -0.0896
  114OSM    O1311864   1.695   4.073  11.008  0.3569 -0.3458 -0.5063
  114OSM    O1411865   1.452   4.061  11.101 -0.4801  0.2845  0.3508
  114OSM    O1111866   1.490   4.105  10.873  0.2051 -0.9027  0.2731
  114OSM    O1211867   1.556   4.277  11.028 -0.0714 -0.3899 -0.7370
  114OSM    C1S11868   1.572   4.106  10.758  0.2533 -0.0996  0.1706
  114OSM    H1S11869   1.637   4.016  10.751  2.5032  1.4753 -0.3030
  114OSM    H1T11870   1.636   4.197  10.761  0.2988 -0.0607 -1.2144
  114OSM     NF11871   1.566   4.085  10.516 -0.6696  0.5202  0.1769
  114OSM    HNF11872   1.590   4.158  10.453  0.9759  1.1067  1.4030
  114OSM    C2S11873   1.483   4.123  10.628 -0.2893  0.6809 -0.1548
  114OSM    H2S11874   1.397   4.052  10.629  1.3084 -1.3774 -1.3045
  114OSM    C3S11875   1.420   4.271  10.617 -0.0005 -0.0141  0.6839
  114OSM    H3S11876   1.499   4.348  10.632 -0.0014  0.0851  0.2056
  114OSM     O311877   1.328   4.296  10.721  0.0790 -0.3589  0.0446
  114OSM    HO311878   1.366   4.243  10.792 -1.2485 -1.3094  0.0636
  114OSM    C4S11879   1.342   4.286  10.488 -0.6011 -0.8891  0.3389
  114OSM    H4S11880   1.248   4.232  10.471 -1.3299  0.9982 -2.2888
  114OSM    C5S11881   1.380   4.358  10.381 -0.1792  0.2178  0.5202
  114OSM    H5S11882   1.470   4.422  10.381 -0.4497  0.6401  2.3097
  114OSM    C6S11883   1.290   4.365  10.257 -0.4955 -0.0449 -0.8636
  114OSM    H6S11884   1.274   4.471  10.227 -0.6656 -0.1844 -1.2784
  114OSM    H6T11885   1.190   4.322  10.280 -0.9252  1.5929  0.5166
  114OSM    C7S11886   1.347   4.283  10.146 -0.7166  0.0494  0.3499
  114OSM    H7S11887   1.361   4.177  10.175 -0.0537  0.4615  1.5766
  114OSM    H7T11888   1.444   4.326  10.112 -2.0969  2.8999 -0.2820
  114OSM    C8S11889   1.256   4.300  10.020 -0.2706  0.4425  0.4747
  114OSM    H8S11890   1.241   4.409  10.007  1.1509  0.9872  2.7643
  114OSM    H8T11891   1.155   4.265  10.051 -0.9571  2.2182  0.3468
  114OSM    C9S11892   1.314   4.234   9.894  0.0758 -0.1496 -0.1099
  114OSM    H9S11893   1.302   4.124   9.900 -1.2029 -0.0815 -0.9904
  114OSM    H9T11894   1.423   4.246   9.883  0.0208  0.8408  0.2532
  114OSM   C10S11895   1.238   4.284   9.767 -0.4013  0.0145 -0.8574
  114OSM   H10S11896   1.267   4.391   9.768  2.9347 -0.7244  2.2704
  114OSM   H10T11897   1.129   4.267   9.783 -1.2254  3.3000 -2.1080
  114OSM   C11S11898   1.293   4.236   9.635  0.4784 -0.1164 -0.4593
  114OSM   H11S11899   1.258   4.130   9.634  1.1198 -0.4314  2.0514
  114OSM   H11T11900   1.403   4.223   9.623  0.3951 -1.8791  0.3643
  114OSM   C12S11901   1.215   4.308   9.519 -0.4016  0.7895  0.1617
  114OSM   H12S11902   1.296   4.349   9.455  0.3473 -1.6232 -0.5023
  114OSM   H12T11903   1.156   4.397   9.553 -1.1463 -0.1220  1.3350
  114OSM   C13S11904   1.122   4.217   9.431  0.3730  0.3171 -0.3943
  114OSM   H13S11905   1.032   4.186   9.488  0.5656 -0.7200 -0.6413
  114OSM   H13T11906   1.185   4.132   9.397 -0.1266  0.0552 -0.6670
  114OSM   C14S11907   1.074   4.291   9.306  0.0616  0.7999  0.3174
  114OSM   H14S11908   1.168   4.339   9.271  2.0852 -2.2966  1.0677
  114OSM   H14T11909   1.009   4.367   9.354 -0.3699  1.0402 -0.6331
  114OSM   C15S11910   0.990   4.211   9.213  0.0268  0.0829  0.3598
  114OSM   H15S11911   0.892   4.201   9.265  0.4600 -1.5625  0.9169
  114OSM   H15T11912   1.027   4.107   9.206  1.8173  0.4075  3.4646
  114OSM   C16S11913   0.993   4.270   9.067 -0.1273 -0.0763 -0.4176
  114OSM   H16S11914   1.097   4.285   9.032  0.4201 -0.7143  0.8485
  114OSM   H16T11915   0.969   4.378   9.077  0.6953  0.0529  0.2657
  114OSM   C17S11916   0.912   4.204   8.958 -0.0185  0.2988 -0.5627
  114OSM   H17S11917   0.803   4.205   8.981  0.0045 -1.0639 -0.3436
  114OSM   H17T11918   0.938   4.096   8.954  2.0162  0.7386  0.0346
  114OSM   C18S11919   0.924   4.267   8.822 -0.0991  0.1208  0.1169
  114OSM   H18S11920   0.873   4.201   8.748 -1.7175  1.9243 -0.4733
  114OSM   H18T11921   1.034   4.278   8.810  0.0175 -0.6804  0.3871
  114OSM   H18U11922   0.888   4.371   8.809 -1.4208 -0.2314  0.7199
  114OSM    C1F11923   1.604   3.961  10.492  0.0578 -0.3095 -0.0185
  114OSM     OF11924   1.554   3.867  10.558 -0.3300  0.1884 -0.2199
  114OSM    C2F11925   1.700   3.949  10.383 -0.3812  0.0884  0.7711
  114OSM    H2F11926   1.784   4.020  10.397  0.9523 -1.3467  0.2699
  114OSM    H2G11927   1.647   3.971  10.287  1.5522  1.2814 -0.0710
  114OSM    C3F11928   1.756   3.806  10.365  0.0195  0.4775  0.4119
  114OSM    H3F11929   1.678   3.727  10.372  1.1586 -0.8672 -1.3086
  114OSM    H3G11930   1.826   3.781  10.448 -0.1501  3.3972  1.5646
  114OSM    C4F11931   1.832   3.794  10.237 -1.0506  0.2544  1.0084
  114OSM    H4F11932   1.763   3.832  10.159  2.0325  2.1641 -1.0097
  114OSM    H4G11933   1.858   3.689  10.217 -0.7160  0.7486 -1.4192
  114OSM    C5F11934   1.959   3.870  10.238  0.8287  0.6805 -0.7862
  114OSM    H5F11935   2.042   3.821  10.295  1.1303  0.5245 -1.3518
  114OSM    H5G11936   1.927   3.970  10.274 -3.0010 -0.7817  0.3484
  114OSM    C6F11937   2.015   3.883  10.095  0.1052  0.2979  0.6728
  114OSM    H6F11938   1.931   3.913  10.028 -0.5007  0.3720  1.4581
  114OSM    H6G11939   2.050   3.782  10.065 -1.6270  0.1634 -1.1129
  114OSM    C7F11940   2.133   3.967  10.083  0.4803 -0.3221 -0.7435
  114OSM    H7F11941   2.214   3.913  10.137 -1.2113 -2.0476  0.1998
  114OSM    H7G11942   2.105   4.066  10.124 -2.4010 -1.0217 -0.8078
  114OSM    C8F11943   2.175   3.994   9.939 -0.3303  0.1228  0.0328
  114OSM    H8F11944   2.106   4.066   9.890  0.1089 -0.2534 -1.1939
  114OSM    H8G11945   2.163   3.904   9.876 -0.4727  1.2253 -1.5861
  114OSM    C9F11946   2.320   4.037   9.918 -0.4652 -0.3518  0.2982
  114OSM    H9F11947   2.382   4.033  10.008 -1.4514 -0.2676  0.9913
  114OSM   C10F11948   2.367   4.081   9.796  0.3573 -0.5144  0.6329
  114OSM   H10F11949   2.472   4.112   9.783  0.4394 -0.6244  1.0257
  114OSM   C11F11950   2.288   4.080   9.665 -0.2653 -0.2007  0.5096
  114OSM   H11F11951   2.193   4.138   9.678  0.2128  0.6192  0.3890
  114OSM   H11G11952   2.256   3.979   9.632 -1.3881  1.1974 -3.2633
  114OSM   C12F11953   2.352   4.133   9.537  0.0897 -0.2044 -0.1792
  114OSM   H12F11954   2.427   4.210   9.566  1.7463 -2.5002  2.1609
  114OSM   H12G11955   2.272   4.176   9.475 -0.0632 -2.1235 -1.3856
  114OSM   C13F11956   2.430   4.038   9.446  0.1156 -0.2365 -0.1380
  114OSM   H13F11957   2.366   3.949   9.425  2.5348 -2.1125  0.0393
  114OSM   H13G11958   2.511   4.003   9.514  1.0998  2.4303  0.1676
  114OSM   C14F11959   2.465   4.111   9.318  0.3107 -0.7327 -0.3068
  114OSM   H14F11960   2.506   4.213   9.336 -0.9787  0.1706 -2.1615
  114OSM   H14G11961   2.372   4.137   9.263 -0.4485 -2.4965  0.0744
  114OSM   C15F11962   2.563   4.036   9.221 -0.7351 -0.1558 -0.4798
  114OSM   H15F11963   2.530   3.932   9.199 -1.5561 -0.4194  1.6936
  114OSM   H15G11964   2.661   4.039   9.273  0.0357  0.9139 -1.9489
  114OSM   C16F11965   2.576   4.103   9.084  0.2384  0.3715  0.0725
  114OSM   H16F11966   2.580   4.213   9.098 -1.4359  0.5006 -0.2285
  114OSM   H16G11967   2.486   4.085   9.021  0.8302  1.2111 -1.0603
  114OSM   C17F11968   2.702   4.042   9.005  0.5023 -0.2815 -0.5317
  114OSM   H17F11969   2.694   3.931   9.000  1.6890 -0.4413  0.5254
  114OSM   H17G11970   2.793   4.072   9.061  0.8894 -1.7005 -0.3639
  114OSM   C18F11971   2.717   4.095   8.860  0.3215  0.0871  0.3001
  114OSM   H18F11972   2.750   4.201   8.866  0.0559  0.4363 -2.9461
  114OSM   H18G11973   2.622   4.090   8.803  1.2321 -2.2672 -1.1513
  114OSM   H18H11974   2.805   4.047   8.812  0.7656 -0.0847  1.2523
  115OSM      N11975   4.465   5.527  11.423 -0.0963  0.1812 -0.2008
  115OSM    C1511976   4.618   5.531  11.434 -0.0575  0.3201  0.9980
  115OSM   H15A11977   4.650   5.579  11.526  0.4779  0.7313  0.6093
  115OSM   H15B11978   4.661   5.582  11.349 -1.3902  1.1167  0.7773
  115OSM   H15C11979   4.661   5.433  11.419  0.1992  0.4490  0.8828
  115OSM    C1411980   4.404   5.437  11.532  0.1048 -0.1260 -0.1974
  115OSM   H14A11981   4.296   5.442  11.538  0.2040  0.9011  1.2089
  115OSM   H14B11982   4.444   5.468  11.627 -1.1313 -0.1910  0.3677
  115OSM   H14C11983   4.427   5.332  11.526 -1.1672 -0.4727  0.5728
  115OSM    C1311984   4.413   5.661  11.453 -0.8221 -0.0816  0.1846
  115OSM   H13A11985   4.444   5.688  11.553  1.2327  0.5214 -0.5626
  115OSM   H13B11986   4.306   5.679  11.449 -0.5426  1.7727 -0.3226
  115OSM   H13C11987   4.460   5.737  11.392  0.0584 -0.5061  0.3204
  115OSM    C1211988   4.413   5.479  11.294  0.2368  0.0143  0.1067
  115OSM   H12A11989   4.308   5.498  11.281  0.2853 -1.4738 -4.1888
  115OSM   H12B11990   4.420   5.372  11.289 -2.6307 -0.2026 -2.0846
  115OSM    C1111991   4.470   5.544  11.166  0.2292  0.9900  0.0712
  115OSM   H11A11992   4.456   5.490  11.070  2.1342 -0.1091  0.3570
  115OSM   H11B11993   4.581   5.550  11.164  0.3904 -1.0128  0.8280
  115OSM      P11994   4.271   5.704  11.100 -0.0457 -0.4660 -0.9236
  115OSM    O1311995   4.170   5.631  11.180 -0.2581  0.2564 -0.0452
  115OSM    O1411996   4.255   5.850  11.104 -0.5705  0.7375  0.6193
  115OSM    O1111997   4.274   5.642  10.950  0.5354  0.1362 -0.5098
  115OSM    O1211998   4.411   5.672  11.155 -0.5671  0.7437  0.0042
  115OSM    C1S11999   4.180   5.535  10.913 -0.4957 -0.0137  0.5992
  115OSM    H1S12000   4.074   5.568  10.921 -1.0731 -1.6124 -0.0789
  115OSM    H1T12001   4.195   5.446  10.979  1.9741 -0.0144  0.1409
  115OSM     NF12002   4.099   5.404  10.710  0.0325 -0.3676 -0.0163
  115OSM    HNF12003   4.134   5.314  10.683 -0.0896 -0.7839  1.1484
  115OSM    C2S12004   4.195   5.500  10.761 -0.3129  0.2060 -0.8465
  115OSM    H2S12005   4.182   5.595  10.705  1.0870  0.1141 -1.3753
  115OSM    C3S12006   4.347   5.456  10.731  0.6248 -0.1436 -0.6860
  115OSM    H3S12007   4.368   5.354  10.768 -0.7795 -0.1197  0.2419
  115OSM     O312008   4.454   5.540  10.796 -0.1127  0.1300 -0.2521
  115OSM    HO312009   4.403   5.599  10.852 -1.2388 -0.1968 -0.9030
  115OSM    C4S12010   4.378   5.446  10.577  1.1937  0.2854 -0.4779
  115OSM    H4S12011   4.365   5.346  10.532 -0.4344  1.4172 -2.7240
  115OSM    C5S12012   4.411   5.544  10.495  0.6139 -0.9771  0.4326
  115OSM    H5S12013   4.405   5.647  10.530  1.3645 -0.3690 -1.1267
  115OSM    C6S12014   4.440   5.539  10.348 -0.1387  0.2747 -0.1013
  115OSM    H6S12015   4.550   5.545  10.332 -0.0221 -0.6261  0.3545
  115OSM    H6T12016   4.397   5.631  10.301 -0.6011 -0.8873 -2.0908
  115OSM    C7S12017   4.389   5.421  10.258  0.1487 -0.6813 -0.0836
  115OSM    H7S12018   4.281   5.400  10.272  0.3442 -0.5182  2.1892
  115OSM    H7T12019   4.450   5.330  10.281 -1.0336 -1.5788 -0.3682
  115OSM    C8S12020   4.418   5.442  10.109 -0.2841  0.5248  0.1548
  115OSM    H8S12021   4.526   5.460  10.091 -0.3637  1.0292  0.1911
  115OSM    H8T12022   4.363   5.535  10.086 -1.2393 -0.7040 -3.2094
  115OSM    C9S12023   4.369   5.323  10.023 -0.3103  0.1200  0.3305
  115OSM    H9S12024   4.259   5.309  10.030 -0.2547 -1.3275 -0.9935
  115OSM    H9T12025   4.411   5.225  10.056 -0.2045  0.5343  1.4767
  115OSM   C10S12026   4.390   5.343   9.874 -0.2395  0.7117 -0.4659
  115OSM   H10S12027   4.338   5.438   9.850 -1.4321  0.2184  0.1391
  115OSM   H10T12028   4.344   5.255   9.825  0.6372  0.3781 -0.7232
  115OSM   C11S12029   4.539   5.337   9.840  0.9776 -0.1619 -0.7673
  115OSM   H11S12030   4.579   5.240   9.877  0.8330  0.2230  0.4394
  115OSM   H11T12031   4.578   5.421   9.901 -0.6226 -0.5044  0.8206
  115OSM   C12S12032   4.578   5.370   9.699  0.5697 -0.5917 -0.1329
  115OSM   H12S12033   4.689   5.375   9.705  0.7054  0.2125 -2.4174
  115OSM   H12T12034   4.539   5.470   9.669 -0.4534 -0.2764  2.0657
  115OSM   C13S12035   4.534   5.267   9.594 -0.2515 -0.3309 -0.6208
  115OSM   H13S12036   4.424   5.263   9.580 -0.5590 -1.7963  1.7295
  115OSM   H13T12037   4.562   5.171   9.642  0.1239  0.2075  0.2786
  115OSM   C14S12038   4.603   5.296   9.460  0.1138 -0.0742  0.6563
  115OSM   H14S12039   4.712   5.312   9.469  0.1855  0.3328 -0.6823
  115OSM   H14T12040   4.561   5.393   9.425  0.2883  0.7910  2.7314
  115OSM   C15S12041   4.556   5.187   9.369  0.0663 -1.1570  0.3115
  115OSM   H15S12042   4.445   5.189   9.377 -0.0036  0.7769 -0.5546
  115OSM   H15T12043   4.602   5.097   9.414  2.8205  0.5675  1.1556
  115OSM   C16S12044   4.617   5.206   9.228  0.5222  0.3175  0.2279
  115OSM   H16S12045   4.726   5.201   9.243  0.5324 -0.7167 -0.1491
  115OSM   H16T12046   4.584   5.306   9.191 -1.6301  0.7190  2.8760
  115OSM   C17S12047   4.570   5.094   9.138  0.7063  0.0757 -0.4708
  115OSM   H17S12048   4.460   5.094   9.126  0.5085 -0.7816  1.1079
  115OSM   H17T12049   4.590   4.992   9.177  0.0364  0.3670  0.6762
  115OSM   C18S12050   4.633   5.095   8.998 -0.0175 -0.0397  0.1761
  115OSM   H18S12051   4.554   5.052   8.933 -0.1842  0.3838  0.0929
  115OSM   H18T12052   4.740   5.065   9.000  0.4009  1.3021 -0.7067
  115OSM   H18U12053   4.637   5.199   8.961  0.7547 -0.4551 -0.9410
  115OSM    C1F12054   3.965   5.423  10.708  0.2433 -0.4050 -0.4246
  115OSM     OF12055   3.923   5.537  10.699 -0.6442  0.5717  0.3741
  115OSM    C2F12056   3.876   5.305  10.722 -0.4144  0.5917 -0.5748
  115OSM    H2F12057   3.840   5.302  10.828 -1.3053 -1.0534 -0.8841
  115OSM    H2G12058   3.942   5.215  10.719 -0.6604  0.3162  1.0553
  115OSM    C3F12059   3.768   5.303  10.616 -0.5739  0.0102 -0.0106
  115OSM    H3F12060   3.802   5.332  10.514  0.0369 -2.7751 -0.6839
  115OSM    H3G12061   3.690   5.381  10.630 -0.9748  0.1222 -2.4289
  115OSM    C4F12062   3.684   5.171  10.606 -0.5811 -0.7296  0.4057
  115OSM    H4F12063   3.665   5.128  10.706  1.6258  0.1548  1.2605
  115OSM    H4G12064   3.743   5.096  10.549 -0.4614 -0.0240 -0.4255
  115OSM    C5F12065   3.553   5.190  10.525  0.0052 -0.5217  0.4957
  115OSM    H5F12066   3.576   5.206  10.418 -0.9458  0.0964  0.3772
  115OSM    H5G12067   3.504   5.285  10.556  2.5217  1.1411 -0.3042
  115OSM    C6F12068   3.447   5.083  10.542 -0.0235 -0.1833 -0.5745
  115OSM    H6F12069   3.439   5.041  10.645  1.6788 -1.7410 -1.0263
  115OSM    H6G12070   3.486   5.001  10.478  0.2386 -0.5786  0.0809
  115OSM    C7F12071   3.303   5.137  10.518 -0.1424 -0.1345 -0.0681
  115OSM    H7F12072   3.282   5.226  10.581 -0.5359 -0.8640  0.8505
  115OSM    H7G12073   3.236   5.054  10.549  0.7846 -0.2576  1.8002
  115OSM    C8F12074   3.274   5.167  10.366 -0.1636 -0.8010 -0.1326
  115OSM    H8F12075   3.354   5.236  10.330 -0.8306 -0.4349 -0.9342
  115OSM    H8G12076   3.182   5.226  10.353 -0.2330 -0.6993  0.7326
  115OSM    C9F12077   3.276   5.040  10.284  0.8043 -0.0360  0.0217
  115OSM    H9F12078   3.222   4.962  10.340 -2.8253  1.4182 -1.1768
  115OSM   C10F12079   3.309   5.016  10.154  0.1430  0.6187  0.6697
  115OSM   H10F12080   3.301   4.914  10.113 -0.1681  1.8814 -2.7367
  115OSM   C11F12081   3.352   5.118  10.049 -0.5210 -0.0026  0.0522
  115OSM   H11F12082   3.324   5.222  10.075 -1.9253  0.0337 -1.4458
  115OSM   H11G12083   3.299   5.094   9.954 -0.1865 -1.4647  0.1996
  115OSM   C12F12084   3.506   5.105  10.020  0.5330  0.4244 -0.2632
  115OSM   H12F12085   3.523   5.005   9.976 -0.0651  0.1303  0.1530
  115OSM   H12G12086   3.558   5.101  10.119 -1.3916  0.0992  0.7946
  115OSM   C13F12087   3.566   5.220   9.941  0.0172 -0.6729  0.0237
  115OSM   H13F12088   3.526   5.309   9.995  0.0372 -2.7265  3.7450
  115OSM   H13G12089   3.525   5.216   9.838  0.0457  1.3196 -0.1102
  115OSM   C14F12090   3.715   5.213   9.946 -0.5079 -0.3313  0.1967
  115OSM   H14F12091   3.766   5.127   9.898  3.2236  1.6618  0.2053
  115OSM   H14G12092   3.738   5.204  10.054 -3.6167 -0.7623  0.9074
  115OSM   C15F12093   3.779   5.330   9.874 -0.2996  0.5353 -0.5797
  115OSM   H15F12094   3.887   5.332   9.901 -0.3749 -0.7230 -0.1204
  115OSM   H15G12095   3.723   5.419   9.908 -4.2266 -1.4401 -1.3305
  115OSM   C16F12096   3.765   5.335   9.720 -0.0560 -0.3249  0.3722
  115OSM   H16F12097   3.657   5.331   9.692  0.5391  0.4566 -2.4081
  115OSM   H16G12098   3.811   5.244   9.676 -1.9650 -2.5113  2.5972
  115OSM   C17F12099   3.826   5.462   9.662 -0.4233  0.8364  0.4319
  115OSM   H17F12100   3.775   5.557   9.686 -0.9005  0.5080  0.7530
  115OSM   H17G12101   3.809   5.450   9.553 -1.0129  3.0939  0.2363
  115OSM   C18F12102   3.977   5.485   9.668  0.4586 -0.1393  0.5498
  115OSM   H18F12103   4.027   5.470   9.766 -0.6011  0.2730  1.1682
  115OSM   H18G12104   3.987   5.593   9.644 -0.7645 -0.3892 -1.3039
  115OSM   H18H12105   4.031   5.428   9.589  0.4221 -1.5265  1.4972
  116OSM      N12106   0.626   5.416  10.737  0.3465 -0.0608 -0.0049
  116OSM    C1512107   0.548   5.536  10.789 -0.1905  0.1377 -0.2169
  116OSM   H15A12108   0.544   5.626  10.730 -0.7293  2.3804  3.0190
  116OSM   H15B12109   0.601   5.568  10.877 -1.0442 -2.3336  1.3077
  116OSM   H15C12110   0.447   5.507  10.815 -0.6129  1.2106 -0.6051
  116OSM    C1412111   0.605   5.300  10.828  0.3659  0.4314  0.2144
  116OSM   H14A12112   0.628   5.320  10.931  0.0551  6.2480 -0.5351
  116OSM   H14B12113   0.670   5.222  10.790 -0.0267  0.8155 -1.3410
  116OSM   H14C12114   0.500   5.273  10.832  0.5906 -0.5154 -0.0815
  116OSM    C1312115   0.570   5.385  10.600  0.8948 -0.4592  0.5737
  116OSM   H13A12116   0.607   5.450  10.522 -1.9032 -0.4369 -0.8611
  116OSM   H13B12117   0.462   5.388  10.601  0.9077  0.6105  0.2009
  116OSM   H13C12118   0.598   5.284  10.574  0.9475 -0.2079 -0.3950
  116OSM    C1212119   0.766   5.452  10.706 -0.4769  0.4897  0.5128
  116OSM   H12A12120   0.762   5.527  10.629 -0.3412 -1.6214 -1.6864
  116OSM   H12B12121   0.809   5.373  10.645 -3.6693  0.1722 -1.5735
  116OSM    C1112122   0.860   5.492  10.817 -0.5068  0.2455  0.7784
  116OSM   H11A12123   0.857   5.430  10.909 -4.7793 -0.7077  0.1879
  116OSM   H11B12124   0.824   5.589  10.857 -0.0350  0.8017 -0.0929
  116OSM      P12125   1.087   5.380  10.756 -0.1021 -0.0975 -0.0932
  116OSM    O1312126   1.227   5.417  10.789 -0.7056  0.8857  0.3940
  116OSM    O1412127   1.022   5.257  10.821 -0.5963 -0.2528 -0.0336
  116OSM    O1112128   1.074   5.362  10.602 -0.4788  0.7479  0.0430
  116OSM    O1212129   0.992   5.504  10.769 -0.2244  0.2134  0.3469
  116OSM    C1S12130   1.128   5.459  10.513  0.2828 -0.1289  0.4019
  116OSM    H1S12131   1.230   5.488  10.545  0.5611 -1.8730  1.2133
  116OSM    H1T12132   1.071   5.553  10.523  0.8820  0.0672  2.4345
  116OSM     NF12133   1.162   5.533  10.283 -0.6016 -0.3544 -0.1353
  116OSM    HNF12134   1.090   5.594  10.251  0.9315  0.7106 -1.7603
  116OSM    C2S12135   1.112   5.422  10.365  0.1361 -0.5226  0.8669
  116OSM    H2S12136   1.177   5.337  10.335  0.9912 -0.0822  1.4042
  116OSM    C3S12137   0.957   5.401  10.340  0.8107  0.1267 -0.1765
  116OSM    H3S12138   0.890   5.485  10.367 -2.5374 -3.0092  2.3721
  116OSM     O312139   0.891   5.300  10.424 -0.0517  0.0537  0.1014
  116OSM    HO312140   0.955   5.291  10.496 -0.9434 -0.8547  0.8085
  116OSM    C4S12141   0.925   5.376  10.197  0.4468 -0.2462 -0.3973
  116OSM    H4S12142   0.888   5.462  10.139 -0.7546 -0.8752 -0.5776
  116OSM    C5S12143   0.935   5.251  10.143 -0.7343 -0.1275  0.5660
  116OSM    H5S12144   0.959   5.170  10.213 -3.8442 -2.4678 -0.8121
  116OSM    C6S12145   0.894   5.208  10.002  0.4942 -0.0629  0.3863
  116OSM    H6S12146   0.810   5.136  10.010  1.3112 -1.1999 -0.7913
  116OSM    H6T12147   0.978   5.168   9.941  0.9690  2.4115 -0.6792
  116OSM    C7S12148   0.837   5.320   9.915 -0.1217  0.2033  0.1127
  116OSM    H7S12149   0.921   5.385   9.884 -0.0025 -0.7106 -1.6309
  116OSM    H7T12150   0.779   5.393   9.975  3.7308  2.1205  1.8881
  116OSM    C8S12151   0.770   5.268   9.791 -0.0212  0.2412  1.6263
  116OSM    H8S12152   0.706   5.345   9.742  0.7667  1.1079  1.9426
  116OSM    H8T12153   0.697   5.187   9.815  0.6915 -1.2746 -0.9020
  116OSM    C9S12154   0.864   5.216   9.680  0.4255 -0.2918  0.0339
  116OSM    H9S12155   0.941   5.152   9.727  0.1231 -1.0203 -0.4388
  116OSM    H9T12156   0.918   5.300   9.632 -0.0880  1.4838  2.3954
  116OSM   C10S12157   0.797   5.135   9.569  0.2193 -0.3122 -0.3915
  116OSM   H10S12158   0.763   5.038   9.610  0.6342 -0.3984 -0.2398
  116OSM   H10T12159   0.885   5.107   9.506  0.9920 -1.9009  1.3049
  116OSM   C11S12160   0.702   5.219   9.489  0.1983 -0.8586  0.0091
  116OSM   H11S12161   0.742   5.315   9.450  0.9795 -1.0911  0.2307
  116OSM   H11T12162   0.620   5.249   9.558  1.4364 -0.1227  1.2147
  116OSM   C12S12163   0.649   5.142   9.372  0.3499 -0.3807  0.4053
  116OSM   H12S12164   0.587   5.060   9.412 -0.5206  0.1789  0.2417
  116OSM   H12T12165   0.737   5.098   9.320  1.3266  0.5834  1.1890
  116OSM   C13S12166   0.570   5.229   9.275 -0.0794  0.0085 -0.0243
  116OSM   H13S12167   0.640   5.307   9.240  3.0612 -2.1813  0.9013
  116OSM   H13T12168   0.491   5.287   9.328 -0.0647  0.1220 -0.1268
  116OSM   C14S12169   0.517   5.164   9.146  0.2899  0.0961 -0.1330
  116OSM   H14S12170   0.435   5.097   9.179  0.9077 -0.3075  0.6445
  116OSM   H14T12171   0.595   5.105   9.093  0.4639 -1.0951  1.3606
  116OSM   C15S12172   0.462   5.271   9.048  0.0886  0.4674  0.3208
  116OSM   H15S12173   0.539   5.345   9.017  0.2378 -0.0138 -0.4878
  116OSM   H15T12174   0.385   5.331   9.101 -0.6538  0.9312 -1.2279
  116OSM   C16S12175   0.400   5.217   8.921  0.3255  0.3551 -0.0304
  116OSM   H16S12176   0.456   5.134   8.872  0.2961  1.3764 -1.8491
  116OSM   H16T12177   0.375   5.302   8.854 -0.3307 -1.4136 -2.1518
  116OSM   C17S12178   0.263   5.149   8.937  0.0359 -1.1642 -0.0700
  116OSM   H17S12179   0.202   5.221   8.995  0.5991 -0.9827  0.3037
  116OSM   H17T12180   0.273   5.059   9.002  0.4080 -1.0560  0.0272
  116OSM   C18S12181   0.195   5.107   8.800  0.3345  0.2724  0.4581
  116OSM   H18S12182   0.090   5.073   8.810  0.2572 -0.5783 -2.2565
  116OSM   H18T12183   0.246   5.017   8.758 -0.1838 -0.7793  1.9782
  116OSM   H18U12184   0.200   5.193   8.730  1.8394  0.6700  1.0064
  116OSM    C1F12185   1.289   5.561  10.272  0.0554  0.1136 -0.1006
  116OSM     OF12186   1.380   5.510  10.337 -0.0743  0.5144  0.2147
  116OSM    C2F12187   1.321   5.661  10.169  0.9662 -0.4604  1.1259
  116OSM    H2F12188   1.400   5.729  10.209 -1.9310  3.5216  0.6518
  116OSM    H2G12189   1.235   5.730  10.155  2.1519  1.3802  2.4447
  116OSM    C3F12190   1.372   5.600  10.035  0.8717 -0.2086  0.1229
  116OSM    H3F12191   1.454   5.530  10.063  1.1462  0.7120  1.7541
  116OSM    H3G12192   1.404   5.679   9.964  0.0991  0.5304  0.5842
  116OSM    C4F12193   1.260   5.526   9.962  0.0418 -0.2694  0.1495
  116OSM    H4F12194   1.185   5.602   9.931 -0.8694 -1.6530 -1.1648
  116OSM    H4G12195   1.208   5.447  10.020 -0.4237 -1.0642 -1.3003
  116OSM    C5F12196   1.321   5.466   9.823 -0.3985  0.4612 -1.4428
  116OSM    H5F12197   1.384   5.384   9.863 -0.5384  0.5747 -0.9912
  116OSM    H5G12198   1.389   5.547   9.788 -0.7429  0.6356 -1.7164
  116OSM    C6F12199   1.223   5.416   9.724 -0.1759 -0.2779  0.4231
  116OSM    H6F12200   1.159   5.496   9.680  1.1030 -0.0973 -1.1917
  116OSM    H6G12201   1.157   5.344   9.777  0.0066  0.2013  1.3160
  116OSM    C7F12202   1.298   5.347   9.610 -0.2263 -0.2334 -0.0401
  116OSM    H7F12203   1.364   5.268   9.652 -0.3611 -0.2839  0.0792
  116OSM    H7G12204   1.364   5.427   9.569 -1.5573  1.3536  0.8382
  116OSM    C8F12205   1.211   5.299   9.500  0.5979  0.0689 -0.1468
  116OSM    H8F12206   1.132   5.375   9.485  0.9417  0.2879 -0.9231
  116OSM    H8G12207   1.153   5.210   9.535  0.9423 -0.0574  0.1046
  116OSM    C9F12208   1.280   5.267   9.375  0.0141  0.0493  0.4653
  116OSM    H9F12209   1.365   5.199   9.391  0.9346  0.1242 -3.2669
  116OSM   C10F12210   1.249   5.303   9.248  0.0173 -0.2545  1.0795
  116OSM   H10F12211   1.319   5.272   9.169 -1.2750  0.6087 -0.4608
  116OSM   C11F12212   1.127   5.381   9.206 -0.2923 -0.8452 -0.1185
  116OSM   H11F12213   1.148   5.464   9.136 -1.4909 -0.4427 -0.0221
  116OSM   H11G12214   1.094   5.447   9.289  0.4854  3.0693 -2.6318
  116OSM   C12F12215   1.005   5.298   9.154 -0.3918 -0.4717  1.1830
  116OSM   H12F12216   0.909   5.353   9.154 -0.4350 -0.5234  0.2502
  116OSM   H12G12217   1.003   5.207   9.217 -1.0776 -1.1354  0.2438
  116OSM   C13F12218   1.023   5.252   9.010  0.3608  0.1674 -0.2293
  116OSM   H13F12219   0.954   5.165   9.011  1.5819 -0.8350  0.3937
  116OSM   H13G12220   1.130   5.220   9.006  0.4087  0.4519 -2.2322
  116OSM   C14F12221   1.011   5.353   8.898  0.7815 -0.0072 -0.2543
  116OSM   H14F12222   1.093   5.423   8.923  1.4342 -0.2484 -1.6538
  116OSM   H14G12223   0.909   5.398   8.903  0.5313 -0.7085  2.3679
  116OSM   C15F12224   1.044   5.308   8.756 -0.3701  0.0914 -0.5690
  116OSM   H15F12225   0.979   5.227   8.716  0.6157 -0.4256 -1.1660
  116OSM   H15G12226   1.146   5.265   8.752 -0.1036  0.6723 -0.1779
  116OSM   C16F12227   1.051   5.425   8.664  0.0694 -0.3815  0.7993
  116OSM   H16F12228   1.063   5.512   8.732 -0.4013  1.1524 -0.9794
  116OSM   H16G12229   0.953   5.446   8.616 -0.5025 -1.2340  1.5640
  116OSM   C17F12230   1.161   5.407   8.559 -0.0862 -0.1248 -0.4066
  116OSM   H17F12231   1.250   5.359   8.604 -0.6068 -0.9316 -0.2108
  116OSM   H17G12232   1.198   5.506   8.525  1.7381 -0.7393 -0.3226
  116OSM   C18F12233   1.121   5.333   8.431 -0.2141  0.3421  0.4491
  116OSM   H18F12234   1.097   5.228   8.456  3.1197 -0.5822  0.2634
  116OSM   H18G12235   1.212   5.324   8.368  1.1287  0.0587  2.3581
  116OSM   H18H12236   1.048   5.389   8.368 -0.5653 -1.1523 -0.5249
  117OSM      N12237   5.557   1.521  10.697 -0.0992 -0.4048  0.6911
  117OSM    C1512238   5.553   1.626  10.583  0.4751  0.4283  0.1051
  117OSM   H15A12239   5.597   1.581  10.494 -0.4738 -1.1502  0.3935
  117OSM   H15B12240   5.613   1.714  10.596 -0.3212  1.0990 -0.6557
  117OSM   H15C12241   5.454   1.658  10.554  0.0170 -0.3257  0.7935
  117OSM    C1412242   5.698   1.472  10.687 -0.0126 -0.7749 -0.1850
  117OSM   H14A12243   5.759   1.549  10.732 -0.6677 -0.6287  0.4700
  117OSM   H14B12244   5.720   1.444  10.586 -2.2257 -1.3339 -0.5734
  117OSM   H14C12245   5.713   1.389  10.755  2.9454  0.2467  0.5416
  117OSM    C1312246   5.525   1.590  10.823  0.3527  0.1044 -0.6635
  117OSM   H13A12247   5.603   1.662  10.845  0.2990  0.0323 -0.2214
  117OSM   H13B12248   5.513   1.524  10.907  2.5221 -0.5504 -0.8034
  117OSM   H13C12249   5.427   1.635  10.812  0.4290  0.5800  0.4757
  117OSM    C1212250   5.456   1.411  10.662  0.2356 -0.1212  0.3882
  117OSM   H12A12251   5.470   1.337  10.740  0.4204 -1.5381 -0.9489
  117OSM   H12B12252   5.482   1.361  10.570 -0.3127  0.5416 -0.1437
  117OSM    C1112253   5.308   1.456  10.648 -0.3540  0.5261 -0.0042
  117OSM   H11A12254   5.248   1.366  10.626 -0.3552  1.2309 -3.5035
  117OSM   H11B12255   5.291   1.516  10.556 -0.8592  0.6935  0.1921
  117OSM      P12256   5.149   1.492  10.852 -0.1228  0.2405  0.0659
  117OSM    O1312257   5.126   1.348  10.854 -0.6287  0.2516 -0.4654
  117OSM    O1412258   5.173   1.547  10.988 -0.1858  0.1597  0.4525
  117OSM    O1112259   5.027   1.567  10.780  0.3934  0.1332  0.1618
  117OSM    O1212260   5.264   1.532  10.759  0.0054 -0.3799  0.4843
  117OSM    C1S12261   5.052   1.699  10.727  0.0195 -0.1055  0.6825
  117OSM    H1S12262   5.149   1.745  10.757  1.6998 -0.7176 -3.1937
  117OSM    H1T12263   4.976   1.762  10.778 -2.1373 -1.2579 -0.9508
  117OSM     NF12264   5.061   1.830  10.514  0.1255  0.1589  0.6874
  117OSM    HNF12265   4.985   1.894  10.501 -1.8798 -2.0993  0.6149
  117OSM    C2S12266   5.032   1.700  10.569  0.2293 -0.5075  0.0683
  117OSM    H2S12267   5.104   1.626  10.530  0.8682 -1.6711  3.1208
  117OSM    C3S12268   4.895   1.649  10.530 -0.4402 -0.7881  0.2321
  117OSM    H3S12269   4.816   1.721  10.562  1.3575  0.7539  1.4066
  117OSM     O312270   4.859   1.530  10.596 -0.0878  0.7620 -0.0543
  117OSM    HO312271   4.895   1.549  10.683 -1.2827  1.4482  0.3158
  117OSM    C4S12272   4.896   1.626  10.384  0.1223  0.7177  1.4284
  117OSM    H4S12273   4.931   1.524  10.362 -1.4253 -0.0359  2.2447
  117OSM    C5S12274   4.845   1.698  10.291  0.0618  0.7018  0.3565
  117OSM    H5S12275   4.797   1.792  10.321 -3.1388 -0.8619  0.5628
  117OSM    C6S12276   4.857   1.661  10.142  0.1891 -0.6109 -0.2296
  117OSM    H6S12277   4.755   1.646  10.098  0.4046 -1.4146 -0.4793
  117OSM    H6T12278   4.898   1.558  10.128 -2.4081 -1.4834 -2.2169
  117OSM    C7S12279   4.940   1.749  10.060 -0.5656 -0.8775  0.1980
  117OSM    H7S12280   5.047   1.739  10.091 -0.4631 -0.1176  0.1085
  117OSM    H7T12281   4.903   1.854  10.055  0.1560 -0.6192  0.0454
  117OSM    C8S12282   4.953   1.701   9.913  0.1278 -0.0877 -0.0216
  117OSM    H8S12283   4.972   1.591   9.920 -1.4402 -0.3505  0.6465
  117OSM    H8T12284   5.048   1.742   9.873  0.7393 -0.1034  1.3608
  117OSM    C9S12285   4.836   1.738   9.824  0.6772  0.4602 -0.5905
  117OSM    H9S12286   4.782   1.816   9.883  0.3901  0.7751 -1.2671
  117OSM    H9T12287   4.755   1.663   9.815 -1.1156  2.0984  0.9982
  117OSM   C10S12288   4.887   1.802   9.697  0.7786  0.0321  1.0824
  117OSM   H10S12289   4.964   1.877   9.725  0.6172  0.7711 -0.3801
  117OSM   H10T12290   4.808   1.870   9.658 -0.0323 -1.6229 -0.2679
  117OSM   C11S12291   4.936   1.706   9.584 -0.6529 -0.0837 -0.2018
  117OSM   H11S12292   5.011   1.641   9.634 -0.6502  0.9137  1.1339
  117OSM   H11T12293   4.997   1.766   9.513  0.6083 -0.0357  0.8995
  117OSM   C12S12294   4.820   1.634   9.502 -0.2228  0.0537  0.3886
  117OSM   H12S12295   4.744   1.699   9.453 -0.3000 -0.6822 -0.4943
  117OSM   H12T12296   4.762   1.570   9.572 -1.0020  0.9524  0.5779
  117OSM   C13S12297   4.875   1.539   9.389 -0.5840  0.3862  0.5402
  117OSM   H13S12298   4.948   1.467   9.432 -0.2444  0.4795  0.1210
  117OSM   H13T12299   4.934   1.603   9.320 -1.3800  1.3594  0.7409
  117OSM   C14S12300   4.770   1.463   9.305 -0.3694  0.7127  0.0286
  117OSM   H14S12301   4.688   1.422   9.368  0.5768 -1.8615 -0.2665
  117OSM   H14T12302   4.814   1.368   9.267 -0.7433  0.5083  0.1039
  117OSM   C15S12303   4.718   1.540   9.187 -0.3914 -0.4987 -0.1127
  117OSM   H15S12304   4.799   1.591   9.131 -1.4684  0.9752 -0.3746
  117OSM   H15T12305   4.664   1.620   9.241 -0.8869  0.7774 -2.3648
  117OSM   C16S12306   4.624   1.469   9.092 -0.7487  1.2640 -0.1024
  117OSM   H16S12307   4.544   1.413   9.145  0.1935  1.0741  1.1651
  117OSM   H16T12308   4.658   1.394   9.017 -1.3186  0.8033  0.0883
  117OSM   C17S12309   4.549   1.567   8.997  0.0124 -0.2501 -1.3338
  117OSM   H17S12310   4.519   1.655   9.059 -3.0831 -1.9196 -0.2142
  117OSM   H17T12311   4.455   1.520   8.959 -1.1368 -0.0902  1.0735
  117OSM   C18S12312   4.633   1.620   8.886 -0.3475 -0.0670  1.3613
  117OSM   H18S12313   4.597   1.711   8.833  2.0056  1.0766  1.6013
  117OSM   H18T12314   4.636   1.548   8.802 -0.5040  0.8932  0.5181
  117OSM   H18U12315   4.736   1.646   8.919  0.5085  2.1895 -2.4911
  117OSM    C1F12316   5.181   1.880  10.512 -0.3813 -0.5658 -0.1637
  117OSM     OF12317   5.270   1.813  10.561 -0.3828 -0.0300  0.6617
  117OSM    C2F12318   5.194   2.011  10.447  0.8797 -0.1410  0.0225
  117OSM    H2F12319   5.224   2.094  10.515 -0.0237 -0.5784  0.9881
  117OSM    H2G12320   5.096   2.032  10.399  0.7653  0.8924  0.6594
  117OSM    C3F12321   5.302   2.007  10.333  0.1125  0.7259 -0.0052
  117OSM    H3F12322   5.280   1.924  10.263  0.0232  1.0634 -0.3833
  117OSM    H3G12323   5.400   1.985  10.380  0.9813  2.9350 -0.6362
  117OSM    C4F12324   5.317   2.124  10.246 -0.4309 -0.7833  0.0916
  117OSM    H4F12325   5.403   2.114  10.177  0.0534  3.2249 -0.0900
  117OSM    H4G12326   5.344   2.214  10.306 -1.4985 -0.6190  0.3408
  117OSM    C5F12327   5.192   2.153  10.155 -0.5118  0.1675  0.2398
  117OSM    H5F12328   5.117   2.215  10.209 -0.8445 -0.1111  0.1014
  117OSM    H5G12329   5.150   2.055  10.124 -1.4200  0.7922 -0.5577
  117OSM    C6F12330   5.229   2.228  10.028  0.1241  0.2208 -0.0608
  117OSM    H6F12331   5.310   2.182   9.968  0.1775  2.0080 -1.4591
  117OSM    H6G12332   5.267   2.331  10.046 -1.2733  1.0903 -1.7305
  117OSM    C7F12333   5.110   2.260   9.937 -0.5109 -0.6642 -0.3496
  117OSM    H7F12334   5.123   2.347   9.869 -0.3560 -0.7329 -0.4104
  117OSM    H7G12335   5.018   2.275   9.998 -0.2838 -1.1535  0.1247
  117OSM    C8F12336   5.081   2.141   9.841  0.7186 -0.5911 -1.0695
  117OSM    H8F12337   4.984   2.158   9.790 -0.6796 -0.2189  1.5352
  117OSM    H8G12338   5.062   2.054   9.907 -1.0191 -0.1096 -0.9100
  117OSM    C9F12339   5.185   2.113   9.735  0.1126  0.7517  0.7633
  117OSM    H9F12340   5.274   2.056   9.768 -1.1245 -2.3497 -0.8077
  117OSM   C10F12341   5.177   2.142   9.607  0.8237  0.0320  0.6166
  117OSM   H10F12342   5.250   2.097   9.538 -0.2630  0.7821 -1.0892
  117OSM   C11F12343   5.058   2.215   9.549 -0.5855 -0.1699 -0.2164
  117OSM   H11F12344   5.093   2.295   9.480 -1.7225 -0.9485 -1.7870
  117OSM   H11G12345   4.995   2.257   9.631 -1.2030 -0.0267 -0.7485
  117OSM   C12F12346   4.954   2.125   9.474 -0.3092  0.2172  0.7500
  117OSM   H12F12347   4.874   2.183   9.424 -2.1056 -1.4112  1.5875
  117OSM   H12G12348   4.905   2.066   9.554  0.9135  0.9425  2.0709
  117OSM   C13F12349   5.017   2.028   9.369  0.1941 -0.5360 -0.0554
  117OSM   H13F12350   5.092   1.968   9.425  0.0512 -0.9735 -0.3274
  117OSM   H13G12351   5.073   2.089   9.295 -1.6441  0.1696 -0.9158
  117OSM   C14F12352   4.908   1.943   9.297  0.7316 -0.2104 -0.7505
  117OSM   H14F12353   4.819   2.005   9.273  0.3401 -0.4809 -0.0382
  117OSM   H14G12354   4.883   1.872   9.379 -2.1737  1.1546 -0.3379
  117OSM   C15F12355   4.950   1.862   9.173  0.0856 -0.2644 -0.9067
  117OSM   H15F12356   4.855   1.821   9.131 -1.7024  0.1421  2.4265
  117OSM   H15G12357   5.002   1.768   9.202  3.0799  1.4390 -0.3953
  117OSM   C16F12358   5.031   1.932   9.061 -0.0864  0.1653  0.3215
  117OSM   H16F12359   5.139   1.930   9.087 -0.0598 -0.0891  0.1875
  117OSM   H16G12360   5.007   2.040   9.048 -1.0503 -0.1529 -0.6326
  117OSM   C17F12361   5.024   1.859   8.929 -0.6594 -0.2868  0.3483
  117OSM   H17F12362   4.917   1.856   8.897 -0.3788 -1.3188 -0.5488
  117OSM   H17G12363   5.045   1.754   8.958  0.8340  0.3384  1.6220
  117OSM   C18F12364   5.113   1.899   8.814  0.0988 -0.1510 -0.0606
  117OSM   H18F12365   5.212   1.929   8.854  1.2398 -0.4004 -2.5383
  117OSM   H18G12366   5.078   1.994   8.769 -1.2894 -0.1583  0.9164
  117OSM   H18H12367   5.114   1.833   8.725  0.3661  0.6721 -0.6848
  118OSM      N12368   4.791   3.297  10.834  1.3721  0.8467 -0.8063
  118OSM    C1512369   4.921   3.247  10.786 -0.1818 -0.1286 -0.1599
  118OSM   H15A12370   5.009   3.299  10.819  0.4304 -0.8875 -0.5621
  118OSM   H15B12371   4.914   3.232  10.679 -0.5391 -3.3257  0.1860
  118OSM   H15C12372   4.930   3.145  10.821  0.2395 -0.0356  0.0017
  118OSM    C1412373   4.795   3.441  10.800  0.0341 -0.2457  0.9586
  118OSM   H14A12374   4.693   3.476  10.795  0.1642  0.0280  0.0433
  118OSM   H14B12375   4.845   3.469  10.709 -2.2682 -0.0434 -0.3176
  118OSM   H14C12376   4.850   3.494  10.877  0.9524 -0.9802  0.8269
  118OSM    C1312377   4.682   3.233  10.748  0.5166  0.8952 -0.0179
  118OSM   H13A12378   4.584   3.278  10.746 -0.5493 -1.3554 -0.6007
  118OSM   H13B12379   4.665   3.131  10.777  1.0255  0.9798  0.6053
  118OSM   H13C12380   4.706   3.236  10.643  0.5118 -1.1209 -0.1020
  118OSM    C1212381   4.783   3.274  10.985  0.0582  0.1666  0.1145
  118OSM   H12A12382   4.684   3.294  11.025  1.2381 -0.4771  3.7008
  118OSM   H12B12383   4.844   3.344  11.039  2.5383 -1.2670 -0.6817
  118OSM    C1112384   4.830   3.134  11.039 -0.4920  0.3581 -0.5264
  118OSM   H11A12385   4.800   3.131  11.146  1.7839  3.8720  0.3771
  118OSM   H11B12386   4.940   3.118  11.031 -0.6434 -0.1875 -1.8440
  118OSM      P12387   4.814   2.906  10.918 -0.6329  0.3557  0.4096
  118OSM    O1312388   4.835   2.817  11.038  0.2588 -0.2032  0.4183
  118OSM    O1412389   4.718   2.858  10.816  0.9928 -0.2646  0.6480
  118OSM    O1112390   4.956   2.944  10.846  0.0648 -0.1496  0.6118
  118OSM    O1212391   4.757   3.029  10.977  0.2881 -0.1559 -0.4825
  118OSM    C1S12392   5.037   2.843  10.789  0.6821 -0.2047 -0.0540
  118OSM    H1S12393   4.981   2.747  10.783 -1.0904  0.8167 -0.7973
  118OSM    H1T12394   5.131   2.840  10.847  1.2829  2.6150 -0.7474
  118OSM     NF12395   5.112   2.748  10.572 -0.0660  0.6903  0.0528
  118OSM    HNF12396   5.205   2.710  10.578 -0.0200  0.9883  2.5330
  118OSM    C2S12397   5.086   2.874  10.643 -0.0256 -0.0649  0.0576
  118OSM    H2S12398   5.005   2.927  10.589  0.6946  1.1997  0.1902
  118OSM    C3S12399   5.211   2.970  10.648  0.6914 -0.0135 -0.2909
  118OSM    H3S12400   5.302   2.919  10.685  0.1181 -0.2250  0.8766
  118OSM     O312401   5.201   3.070  10.747  0.5210 -0.4033  0.8336
  118OSM    HO312402   5.144   3.020  10.806  1.4541 -1.7900  0.6026
  118OSM    C4S12403   5.239   3.019  10.510  0.2009 -0.2150  0.1850
  118OSM    H4S12404   5.302   2.953  10.449  2.6928  1.9500  0.2230
  118OSM    C5S12405   5.209   3.137  10.457 -0.0763  0.1613  0.7143
  118OSM    H5S12406   5.164   3.209  10.526 -0.5103 -0.8824  1.5562
  118OSM    C6S12407   5.233   3.185  10.318 -0.1940 -0.2725  0.4417
  118OSM    H6S12408   5.296   3.276  10.322 -0.8447  0.1719  0.7230
  118OSM    H6T12409   5.142   3.219  10.265 -0.3383 -0.8111  0.3303
  118OSM    C7S12410   5.311   3.091  10.227  0.6745  0.4763 -0.3341
  118OSM    H7S12411   5.261   2.994  10.205  1.4305 -0.2597  1.0594
  118OSM    H7T12412   5.408   3.062  10.273  0.8075  1.7605  0.2294
  118OSM    C8S12413   5.323   3.150  10.086 -0.4569 -0.1761 -0.1991
  118OSM    H8S12414   5.384   3.243  10.091 -0.7513 -0.0506  2.2746
  118OSM    H8T12415   5.225   3.197  10.065  0.0917  1.4169  0.6576
  118OSM    C9S12416   5.384   3.059   9.975  0.0389  0.4267  0.0728
  118OSM    H9S12417   5.315   2.973   9.963  0.0266  0.1729  1.6891
  118OSM    H9T12418   5.481   3.023  10.015 -0.5235 -1.8981 -0.4981
  118OSM   C10S12419   5.404   3.125   9.838  0.6642  0.2827  0.5704
  118OSM   H10S12420   5.469   3.215   9.841  1.6387 -0.3525 -0.5178
  118OSM   H10T12421   5.303   3.151   9.799  0.9480 -1.0678 -1.2291
  118OSM   C11S12422   5.468   3.036   9.725 -0.5153  0.7675 -0.2362
  118OSM   H11S12423   5.396   2.954   9.701  0.1688  0.9182 -3.0446
  118OSM   H11T12424   5.558   2.986   9.767 -1.9132 -0.7759  1.1116
  118OSM   C12S12425   5.503   3.114   9.600 -0.6669  0.3265 -0.2554
  118OSM   H12S12426   5.599   3.171   9.599 -0.3301  0.0522  3.3575
  118OSM   H12T12427   5.424   3.190   9.583  0.0500  0.8272 -1.4358
  118OSM   C13S12428   5.503   3.017   9.473  0.5357  0.3001  0.2272
  118OSM   H13S12429   5.405   2.967   9.458 -0.2673  1.1244  2.3458
  118OSM   H13T12430   5.582   2.943   9.497  0.9545  0.8296  0.5164
  118OSM   C14S12431   5.536   3.080   9.333 -0.2826  0.3085  0.1604
  118OSM   H14S12432   5.638   3.117   9.352 -1.1011  1.5985  2.4344
  118OSM   H14T12433   5.470   3.165   9.303 -1.0621 -0.0325  0.8508
  118OSM   C15S12434   5.553   2.970   9.218  0.3114  0.9287  0.1973
  118OSM   H15S12435   5.597   2.878   9.263  0.2087  0.6837 -0.2051
  118OSM   H15T12436   5.622   3.005   9.138 -0.3269 -0.8864 -1.2170
  118OSM   C16S12437   5.419   2.947   9.155 -0.0061  0.5440  0.5411
  118OSM   H16S12438   5.375   3.048   9.143  0.4332  0.8927  1.7463
  118OSM   H16T12439   5.354   2.896   9.229 -1.2498 -0.8918 -1.4359
  118OSM   C17S12440   5.427   2.867   9.021 -0.2358  0.0078 -0.0857
  118OSM   H17S12441   5.446   2.759   9.034 -3.2001 -0.6045 -0.1816
  118OSM   H17T12442   5.501   2.913   8.952  0.9477  0.7104  1.5976
  118OSM   C18S12443   5.295   2.884   8.955  0.9115 -0.0272  0.4600
  118OSM   H18S12444   5.299   2.845   8.851 -2.8905  0.2864  0.0414
  118OSM   H18T12445   5.252   2.987   8.953 -3.6228 -1.6354 -2.5330
  118OSM   H18U12446   5.220   2.808   8.983  1.5904 -1.0674 -0.4530
  118OSM    C1F12447   5.009   2.671  10.529 -0.1932 -0.0223 -0.5963
  118OSM     OF12448   4.894   2.706  10.549  0.5364 -0.1823  0.0154
  118OSM    C2F12449   5.045   2.541  10.469 -0.0183 -0.0340  0.0296
  118OSM    H2F12450   4.959   2.474  10.445  1.2484 -1.5261 -0.4708
  118OSM    H2G12451   5.116   2.486  10.534 -0.9672 -0.9473  0.3364
  118OSM    C3F12452   5.112   2.575  10.331  0.2494  0.0694  0.0052
  118OSM    H3F12453   5.150   2.479  10.291  1.5716  0.5835 -0.0190
  118OSM    H3G12454   5.197   2.645  10.343  0.1281  1.0214 -3.5123
  118OSM    C4F12455   5.018   2.646  10.237  0.0675  0.0521  0.0630
  118OSM    H4F12456   4.975   2.742  10.275 -1.8941 -1.1413  1.0320
  118OSM    H4G12457   4.931   2.577  10.233 -0.3812  0.5569 -4.8116
  118OSM    C5F12458   5.067   2.654  10.088  0.4676 -0.4918 -0.6479
  118OSM    H5F12459   5.108   2.554  10.064  0.1810 -1.2730  1.7912
  118OSM    H5G12460   5.145   2.731  10.070  1.9364 -2.3522 -2.6664
  118OSM    C6F12461   4.953   2.689   9.994  0.3170  0.2453  0.7942
  118OSM    H6F12462   4.923   2.791  10.025 -0.2499  1.1723 -2.4303
  118OSM    H6G12463   4.870   2.630  10.037 -0.1379 -0.7949 -1.3938
  118OSM    C7F12464   4.994   2.658   9.853 -0.2044  0.3450  1.0288
  118OSM    H7F12465   5.018   2.549   9.854  2.1413  0.8173  0.4175
  118OSM    H7G12466   5.084   2.722   9.847 -1.3546  1.9061 -1.5995
  118OSM    C8F12467   4.893   2.689   9.742  0.2506 -0.5934 -0.5208
  118OSM    H8F12468   4.801   2.640   9.782 -0.3681 -0.2287 -1.4599
  118OSM    H8G12469   4.913   2.640   9.645 -2.6343 -1.5754 -0.7321
  118OSM    C9F12470   4.873   2.840   9.728 -0.0316 -0.3972  0.2295
  118OSM    H9F12471   4.785   2.873   9.787 -0.2829  1.5459 -1.1270
  118OSM   C10F12472   4.954   2.933   9.671 -0.0094  0.2141 -0.0851
  118OSM   H10F12473   4.934   3.040   9.679 -1.6781  0.0070 -1.1351
  118OSM   C11F12474   5.083   2.898   9.607 -0.2911  0.6286 -0.5505
  118OSM   H11F12475   5.109   2.790   9.611  1.4544  0.8489 -3.6000
  118OSM   H11G12476   5.164   2.950   9.662  0.0575  0.2890 -0.7424
  118OSM   C12F12477   5.088   2.948   9.463  0.0507 -0.9346  0.0487
  118OSM   H12F12478   5.193   2.944   9.428  0.2754 -1.7576  0.7985
  118OSM   H12G12479   5.054   3.054   9.454 -0.9286 -1.3819 -2.2180
  118OSM   C13F12480   5.006   2.860   9.368  0.2113  0.3106  0.7709
  118OSM   H13F12481   4.904   2.905   9.367  1.0396  2.3302 -0.4835
  118OSM   H13G12482   5.002   2.756   9.406  1.3144  0.2096  0.6347
  118OSM   C14F12483   5.047   2.851   9.216 -0.4106  0.1271 -0.0602
  118OSM   H14F12484   5.153   2.816   9.216 -0.6674 -0.6783  0.9509
  118OSM   H14G12485   5.047   2.949   9.163 -0.7410  0.2154  0.1046
  118OSM   C15F12486   4.961   2.747   9.133  0.1970 -0.1881 -0.7708
  118OSM   H15F12487   4.995   2.759   9.028  0.1498 -0.0505 -0.7706
  118OSM   H15G12488   4.856   2.783   9.139  0.2285  0.0869 -1.6946
  118OSM   C16F12489   4.978   2.610   9.192  0.1292  0.5624  0.1377
  118OSM   H16F12490   4.940   2.601   9.296  0.6273  0.6585  0.3328
  118OSM   H16G12491   5.085   2.583   9.179  0.5337  1.4973  1.3062
  118OSM   C17F12492   4.883   2.524   9.110  0.6691 -0.0077 -0.5605
  118OSM   H17F12493   4.901   2.548   9.004  0.0763 -2.5364 -1.2939
  118OSM   H17G12494   4.776   2.544   9.134  0.6928  2.8193 -2.3308
  118OSM   C18F12495   4.913   2.378   9.130  0.4320 -0.2761  0.4954
  118OSM   H18F12496   4.890   2.324   9.036  2.7820 -0.9413  0.2508
  118OSM   H18G12497   4.854   2.341   9.217  0.9579 -1.5695  0.3192
  118OSM   H18H12498   5.023   2.365   9.138  0.1681 -3.6901  0.0111
  119OSM      N12499   6.005   1.389  11.061  0.2726 -0.3325 -0.1256
  119OSM    C1512500   6.008   1.337  10.928  0.0105 -0.0352  0.3047
  119OSM   H15A12501   6.090   1.270  10.911 -2.0209 -3.0184  1.3911
  119OSM   H15B12502   6.016   1.421  10.860 -0.0770  1.6225  2.2461
  119OSM   H15C12503   5.915   1.294  10.893 -0.2053  2.1400 -2.0480
  119OSM    C1412504   5.971   1.274  11.155  0.0491  0.1216 -0.5120
  119OSM   H14A12505   5.875   1.227  11.137 -0.1445  0.3396 -0.0732
  119OSM   H14B12506   5.983   1.302  11.258 -0.1296 -0.3667 -0.3550
  119OSM   H14C12507   6.040   1.192  11.141 -0.3740 -0.3532  0.1536
  119OSM    C1312508   6.142   1.432  11.108  0.0185 -0.0149  0.4133
  119OSM   H13A12509   6.216   1.353  11.108  0.0541  0.0178  0.2973
  119OSM   H13B12510   6.133   1.474  11.208 -0.1275  0.2319  0.2977
  119OSM   H13C12511   6.179   1.514  11.048  0.8390 -0.7000 -0.0430
  119OSM    C1212512   5.904   1.498  11.079  0.6212 -0.8864  0.4016
  119OSM   H12A12513   5.884   1.536  11.178  0.6287  2.7165 -0.7995
  119OSM   H12B12514   5.807   1.456  11.060 -0.7458  1.8235  0.8090
  119OSM    C1112515   5.908   1.624  10.981  0.0669 -0.0110 -0.9058
  119OSM   H11A12516   5.804   1.662  10.976  0.0412 -0.2629 -2.7741
  119OSM   H11B12517   5.924   1.584  10.879  1.3778  1.9480 -1.5145
  119OSM      P12518   6.122   1.773  10.939 -0.0303  0.0200  0.0195
  119OSM    O1312519   6.206   1.856  11.025  0.3455 -0.4139 -0.3150
  119OSM    O1412520   6.193   1.667  10.867  0.1033  0.2280  0.3822
  119OSM    O1112521   6.052   1.867  10.836  0.3662  0.0615  0.4800
  119OSM    O1212522   6.007   1.717  11.028  0.1881  0.2594  0.1544
  119OSM    C1S12523   6.104   1.910  10.707  0.2803 -0.2697 -0.3877
  119OSM    H1S12524   6.213   1.895  10.692  0.5693  2.8895 -2.3952
  119OSM    H1T12525   6.075   2.015  10.682  0.8112 -0.2986 -1.1757
  119OSM     NF12526   6.089   1.888  10.458  0.2354 -0.2452  0.1194
  119OSM    HNF12527   6.049   1.969  10.415 -1.1128 -1.0659 -0.2379
  119OSM    C2S12528   6.029   1.843  10.587 -0.2397  0.2272 -0.3466
  119OSM    H2S12529   6.041   1.733  10.596  1.4483  0.4441  0.5354
  119OSM    C3S12530   5.871   1.862  10.602  0.5332 -0.3276 -0.6320
  119OSM    H3S12531   5.850   1.970  10.616  2.0260 -0.2406  1.3245
  119OSM     O312532   5.814   1.791  10.715 -0.1963 -0.3290  0.6103
  119OSM    HO312533   5.893   1.769  10.765  0.9561  0.4426 -0.8041
  119OSM    C4S12534   5.792   1.803  10.485 -0.2402 -0.1948 -0.4142
  119OSM    H4S12535   5.802   1.695  10.473  0.0939  0.0519 -2.6437
  119OSM    C5S12536   5.732   1.875  10.398  0.4500 -0.3710  0.1261
  119OSM    H5S12537   5.728   1.983  10.421  0.7392 -0.1059 -1.0099
  119OSM    C6S12538   5.660   1.833  10.275 -0.2116  0.1286  0.6117
  119OSM    H6S12539   5.553   1.862  10.287  0.3314  2.0837  1.1016
  119OSM    H6T12540   5.665   1.723  10.261  0.8184  0.1723  0.5713
  119OSM    C7S12541   5.712   1.899  10.141 -0.0754  0.4316 -0.3821
  119OSM    H7S12542   5.818   1.867  10.130  0.9414  2.9348  1.1368
  119OSM    H7T12543   5.737   2.007  10.148  0.4556  0.2664  0.4778
  119OSM    C8S12544   5.624   1.875  10.013 -0.5612  0.5921 -0.8610
  119OSM    H8S12545   5.534   1.935  10.035 -1.2626 -0.4991 -0.6422
  119OSM    H8T12546   5.594   1.768  10.005  2.3080 -0.2868 -1.0204
  119OSM    C9S12547   5.686   1.919   9.878  0.1889  0.4660  0.3248
  119OSM    H9S12548   5.707   2.028   9.880  0.7689  0.4629 -2.2455
  119OSM    H9T12549   5.613   1.904   9.795  0.2400 -0.9802  0.5218
  119OSM   C10S12550   5.811   1.840   9.835  0.4983 -0.2757 -0.0484
  119OSM   H10S12551   5.789   1.736   9.865 -0.7052  0.2020  0.8048
  119OSM   H10T12552   5.889   1.880   9.903 -0.5749  1.8429  0.0193
  119OSM   C11S12553   5.846   1.843   9.682 -0.3203 -0.2456 -0.3788
  119OSM   H11S12554   5.754   1.838   9.620 -0.8785 -0.1609  0.4295
  119OSM   H11T12555   5.910   1.754   9.666 -0.4465 -0.5214  0.6010
  119OSM   C12S12556   5.923   1.972   9.643  0.0831  0.4194  0.8935
  119OSM   H12S12557   6.020   1.976   9.695 -0.1477  1.2946  1.2698
  119OSM   H12T12558   5.856   2.052   9.681 -2.0673 -0.7953 -0.0812
  119OSM   C13S12559   5.935   1.984   9.490 -0.3879 -0.1021 -0.4023
  119OSM   H13S12560   5.962   1.892   9.434  0.9575 -0.2348  0.4192
  119OSM   H13T12561   6.027   2.044   9.477 -0.7067  0.2718 -0.9416
  119OSM   C14S12562   5.822   2.055   9.411 -0.5856 -0.7764 -0.2175
  119OSM   H14S12563   5.822   2.162   9.440 -2.0634 -1.0621  0.9723
  119OSM   H14T12564   5.723   2.028   9.454 -1.4013  1.6231 -0.4521
  119OSM   C15S12565   5.832   2.045   9.253  0.5702  0.7629 -0.2891
  119OSM   H15S12566   5.786   1.950   9.218  2.2283  0.0330 -0.5750
  119OSM   H15T12567   5.939   2.042   9.225  0.3870  2.1432 -1.2123
  119OSM   C16S12568   5.758   2.150   9.171  0.6047  0.0125 -0.2399
  119OSM   H16S12569   5.666   2.178   9.226  1.3025  0.3694  0.7727
  119OSM   H16T12570   5.736   2.097   9.075 -1.6536  0.8485 -0.2521
  119OSM   C17S12571   5.839   2.282   9.145 -0.6861 -0.5738 -0.0396
  119OSM   H17S12572   5.852   2.329   9.245  1.4095  2.0223 -1.4217
  119OSM   H17T12573   5.779   2.356   9.089  2.5278  2.6708  0.4243
  119OSM   C18S12574   5.980   2.261   9.082 -0.0129 -0.3142 -0.5687
  119OSM   H18S12575   6.038   2.356   9.076 -3.3795  1.9031 -0.3307
  119OSM   H18T12576   5.978   2.218   8.980 -0.4658  1.1011 -1.1773
  119OSM   H18U12577   6.040   2.196   9.151 -1.3325 -0.0547  0.8657
  119OSM    C1F12578   6.209   1.844  10.423  0.1811 -0.3591 -0.7704
  119OSM     OF12579   6.260   1.750  10.480 -0.1908 -0.1101  0.1266
  119OSM    C2F12580   6.279   1.917  10.302  0.1807 -0.2608  0.1787
  119OSM    H2F12581   6.384   1.936  10.332 -0.1660 -0.9348  1.9151
  119OSM    H2G12582   6.236   2.018  10.291 -0.4245 -0.3908  1.2253
  119OSM    C3F12583   6.287   1.845  10.171  0.5870 -0.1909 -0.3430
  119OSM    H3F12584   6.345   1.750  10.171  0.9208  0.0016  0.7424
  119OSM    H3G12585   6.347   1.908  10.101  3.1491 -1.7544  0.3028
  119OSM    C4F12586   6.145   1.824  10.115 -0.2657  0.3519  0.1710
  119OSM    H4F12587   6.084   1.916  10.126  1.5597  1.6290 -0.0397
  119OSM    H4G12588   6.098   1.745  10.177  2.2843 -0.6516  0.9519
  119OSM    C5F12589   6.155   1.767   9.971  0.0817  1.3137  0.1930
  119OSM    H5F12590   6.171   1.847   9.895 -0.0507 -0.2226 -1.5117
  119OSM    H5G12591   6.049   1.737   9.954  0.7302  0.0428 -1.8945
  119OSM    C6F12592   6.247   1.645   9.957  0.3874 -0.9220 -0.4651
  119OSM    H6F12593   6.207   1.581  10.039  1.2351 -0.7273  0.1119
  119OSM    H6G12594   6.355   1.662   9.976  0.5081 -0.4571 -1.4986
  119OSM    C7F12595   6.232   1.567   9.827 -0.5437  0.5021  0.5612
  119OSM    H7F12596   6.125   1.552   9.800 -0.3154 -0.7406  0.2821
  119OSM    H7G12597   6.269   1.462   9.836 -0.4179  0.6780  2.5226
  119OSM    C8F12598   6.307   1.630   9.708  0.6438 -0.2461 -0.1684
  119OSM    H8F12599   6.409   1.657   9.742  0.0704  0.5316  0.9729
  119OSM    H8G12600   6.248   1.721   9.686 -1.2767 -1.1257  1.0964
  119OSM    C9F12601   6.299   1.537   9.592 -0.1468 -0.7300  0.2461
  119OSM    H9F12602   6.359   1.446   9.604 -0.7691 -1.0538  0.9646
  119OSM   C10F12603   6.219   1.552   9.488 -0.3867  0.3461  1.3640
  119OSM   H10F12604   6.219   1.468   9.417 -1.7047  0.9022  0.6707
  119OSM   C11F12605   6.124   1.669   9.458  0.3813 -0.4557  0.3196
  119OSM   H11F12606   6.139   1.750   9.532  0.6610 -0.3861  0.1900
  119OSM   H11G12607   6.016   1.643   9.463 -0.2288  1.5457 -1.0039
  119OSM   C12F12608   6.158   1.739   9.328  0.4400 -0.3761 -0.5464
  119OSM   H12F12609   6.266   1.725   9.303  0.3099 -2.5067 -0.1489
  119OSM   H12G12610   6.135   1.847   9.328 -1.2628 -0.5992 -3.7683
  119OSM   C13F12611   6.066   1.703   9.209  0.3043  0.0166  0.0425
  119OSM   H13F12612   5.961   1.725   9.239  0.6344  2.2230 -0.3068
  119OSM   H13G12613   6.085   1.595   9.189  0.5913 -0.0236  0.5074
  119OSM   C14F12614   6.102   1.789   9.088  0.1088  0.4725 -0.3338
  119OSM   H14F12615   6.209   1.769   9.064 -0.1826 -1.3868 -0.2817
  119OSM   H14G12616   6.100   1.895   9.119  2.0006  0.3916  0.1924
  119OSM   C15F12617   6.017   1.765   8.962  0.4078 -0.6887 -0.1494
  119OSM   H15F12618   6.045   1.837   8.882 -1.0498 -0.6274 -0.6352
  119OSM   H15G12619   5.911   1.772   8.993  0.7133 -0.5305  0.8956
  119OSM   C16F12620   6.025   1.623   8.896  0.3183 -0.5714  0.4155
  119OSM   H16F12621   5.944   1.623   8.820 -0.0743  1.8643  0.7569
  119OSM   H16G12622   5.997   1.563   8.985 -0.1696  0.4755  0.9924
  119OSM   C17F12623   6.162   1.585   8.842  0.1106 -0.5803  0.1701
  119OSM   H17F12624   6.157   1.477   8.818 -1.0437 -0.8948  1.6822
  119OSM   H17G12625   6.243   1.600   8.917  0.9031  0.1906 -0.8176
  119OSM   C18F12626   6.209   1.669   8.715  0.1423  0.0331 -0.9556
  119OSM   H18F12627   6.134   1.660   8.633  1.3112  0.8162 -2.1530
  119OSM   H18G12628   6.301   1.623   8.673 -0.2935 -0.1985 -1.6898
  119OSM   H18H12629   6.227   1.778   8.731  3.0343 -0.3238 -1.2515
  120OSM      N12630   1.003   3.029  11.002 -0.3945 -0.2956  0.2221
  120OSM    C1512631   1.075   3.123  11.095 -0.1603 -0.7160 -1.0626
  120OSM   H15A12632   1.178   3.129  11.062 -0.3361 -1.0827 -1.6913
  120OSM   H15B12633   1.071   3.082  11.195 -3.7245 -0.3936 -0.9311
  120OSM   H15C12634   1.031   3.222  11.100 -2.0190 -1.5536  0.9854
  120OSM    C1412635   1.020   3.079  10.859 -0.7319 -0.2566 -0.2973
  120OSM   H14A12636   0.973   3.016  10.785  1.2230 -1.0624 -0.9163
  120OSM   H14B12637   1.125   3.071  10.835 -0.0261 -0.8534  2.6008
  120OSM   H14C12638   1.002   3.185  10.846  0.3242  0.0046  0.2714
  120OSM    C1312639   1.078   2.905  11.025 -0.6793  0.8552  0.3246
  120OSM   H13A12640   1.066   2.875  11.128  0.6190 -1.8579 -0.2195
  120OSM   H13B12641   1.181   2.936  11.019 -0.3440  0.0949  1.7207
  120OSM   H13C12642   1.047   2.825  10.960 -0.8442  0.5152  0.8126
  120OSM    C1212643   0.856   3.016  11.029 -0.0703 -0.9172 -0.0302
  120OSM   H12A12644   0.807   3.112  11.031  1.5556  0.0054 -1.1834
  120OSM   H12B12645   0.837   2.990  11.131  0.3141  1.2249  0.6337
  120OSM    C1112646   0.786   2.916  10.938  0.0200  0.3475  0.1866
  120OSM   H11A12647   0.691   2.885  10.987  1.0750  0.5573  2.4738
  120OSM   H11B12648   0.842   2.820  10.939 -1.9434 -0.8503  0.8924
  120OSM      P12649   0.731   2.854  10.692  0.0553  0.6064 -0.5742
  120OSM    O1312650   0.804   2.732  10.705 -0.0648 -0.2009  0.0402
  120OSM    O1412651   0.582   2.835  10.704  0.7997  0.0675 -0.0424
  120OSM    O1112652   0.772   2.921  10.557 -0.0179  0.5132  0.4555
  120OSM    O1212653   0.771   2.955  10.804 -0.1789 -0.3888  0.3776
  120OSM    C1S12654   0.815   3.053  10.531  0.2093  0.3143 -1.0672
  120OSM    H1S12655   0.900   3.077  10.600 -0.1089  1.0479 -0.9220
  120OSM    H1T12656   0.737   3.128  10.553  0.1149  0.0924 -0.6388
  120OSM     NF12657   0.934   3.198  10.370 -0.1038 -0.2495  0.3728
  120OSM    HNF12658   0.873   3.265  10.330  0.8810  1.3526  1.4351
  120OSM    C2S12659   0.863   3.065  10.389 -0.2610 -0.4036  0.2222
  120OSM    H2S12660   0.939   2.985  10.377  0.0500  0.2273 -2.7461
  120OSM    C3S12661   0.752   3.031  10.286  0.0596  0.1479 -0.4649
  120OSM    H3S12662   0.676   3.112  10.287  0.6299  0.6836 -0.2954
  120OSM     O312663   0.684   2.911  10.313 -0.3269  0.0947 -0.4281
  120OSM    HO312664   0.707   2.888  10.403  1.2729 -1.8401 -1.2581
  120OSM    C4S12665   0.810   3.017  10.156  0.1041  0.3067 -0.5645
  120OSM    H4S12666   0.873   2.928  10.147 -0.7623 -0.6262  1.8284
  120OSM    C5S12667   0.784   3.096  10.054 -0.2170 -0.0208  0.5592
  120OSM    H5S12668   0.721   3.185  10.072 -3.1109 -2.0950  1.3606
  120OSM    C6S12669   0.846   3.078   9.911  0.4437 -0.5211 -0.3988
  120OSM    H6S12670   0.901   3.171   9.887 -0.3921 -0.0109 -0.3588
  120OSM    H6T12671   0.760   3.072   9.842 -0.9821  2.5973  0.9151
  120OSM    C7S12672   0.943   2.955   9.884  0.7468  0.1485  0.0701
  120OSM    H7S12673   0.886   2.861   9.885 -2.2885  1.8493 -0.9665
  120OSM    H7T12674   1.024   2.949   9.960  1.2658  0.5821 -0.4340
  120OSM    C8S12675   0.998   2.962   9.742  0.1470  0.2311  0.0807
  120OSM    H8S12676   1.060   2.872   9.722 -1.3627 -0.7815 -0.1826
  120OSM    H8T12677   1.064   3.050   9.723 -0.9436  0.7920 -1.2918
  120OSM    C9S12678   0.892   2.972   9.638  0.0881 -0.1394 -0.3002
  120OSM    H9S12679   0.843   3.071   9.654  0.6361  0.1741 -0.5618
  120OSM    H9T12680   0.827   2.883   9.652 -1.4456  1.1973  1.8418
  120OSM   C10S12681   0.953   2.965   9.500 -0.7262  0.1146  0.0414
  120OSM   H10S12682   0.985   2.859   9.491 -0.9885 -0.0093  0.5299
  120OSM   H10T12683   1.047   3.023   9.487 -0.4026 -0.7400 -1.7845
  120OSM   C11S12684   0.848   2.994   9.389  0.1029 -0.5484  0.1942
  120OSM   H11S12685   0.810   3.097   9.402  2.9108  0.6966 -0.6144
  120OSM   H11T12686   0.774   2.912   9.406  0.0708 -0.0360  2.9840
  120OSM   C12S12687   0.916   2.978   9.251  0.3993  0.0412  0.5229
  120OSM   H12S12688   0.916   2.869   9.231  2.6786  0.1990 -0.7197
  120OSM   H12T12689   1.022   3.011   9.260  0.9911 -1.3762 -0.8480
  120OSM   C13S12690   0.828   3.052   9.154  0.2691 -0.0800 -0.0611
  120OSM   H13S12691   0.809   3.156   9.187 -1.0930 -0.1993 -0.4057
  120OSM   H13T12692   0.734   2.994   9.139 -0.1428  0.6844 -0.5255
  120OSM   C14S12693   0.897   3.054   9.020  0.4499  0.2249  0.0991
  120OSM   H14S12694   0.996   3.104   9.024  0.2489  0.8199 -1.3455
  120OSM   H14T12695   0.831   3.114   8.952 -1.0085 -0.1676  1.1139
  120OSM   C15S12696   0.908   2.909   8.958  0.5492  0.1709  0.5096
  120OSM   H15S12697   0.808   2.862   8.947  0.8379 -0.1719 -0.9801
  120OSM   H15T12698   0.961   2.844   9.032 -0.7507  1.1369  2.3354
  120OSM   C16S12699   0.968   2.902   8.813  0.0631  0.1714  0.3541
  120OSM   H16S12700   1.072   2.942   8.816 -0.1113  0.7193 -0.5070
  120OSM   H16T12701   0.897   2.963   8.753 -1.4705 -1.2523  0.6554
  120OSM   C17S12702   0.977   2.754   8.757  0.2980 -1.0018 -0.2955
  120OSM   H17S12703   0.872   2.716   8.751 -0.5545  0.6134  2.4898
  120OSM   H17T12704   1.029   2.698   8.838 -0.5539 -0.2477  0.7965
  120OSM   C18S12705   1.043   2.741   8.618 -0.3333  0.6487 -0.5413
  120OSM   H18S12706   0.982   2.785   8.537  1.5810  3.4009 -0.6253
  120OSM   H18T12707   1.064   2.632   8.612 -1.7435  0.3316  0.0543
  120OSM   H18U12708   1.143   2.790   8.624  0.1531 -0.4468  1.4278
  120OSM    C1F12709   1.054   3.228  10.426  0.2627  0.5090  0.0649
  120OSM     OF12710   1.115   3.143  10.493  0.2880 -0.0240  0.2741
  120OSM    C2F12711   1.108   3.368  10.405  0.4578  1.0179  0.1151
  120OSM    H2F12712   1.131   3.407  10.507 -3.8122  1.3153  1.1388
  120OSM    H2G12713   1.032   3.438  10.365  1.9453  2.1844 -0.7734
  120OSM    C3F12714   1.216   3.379  10.302  0.7671  0.4205  0.4304
  120OSM    H3F12715   1.298   3.305  10.312 -0.1769 -0.7232 -0.0645
  120OSM    H3G12716   1.257   3.482  10.306 -1.7243  1.4495  1.7086
  120OSM    C4F12717   1.151   3.387  10.164 -0.5285 -0.0036  0.4665
  120OSM    H4F12718   1.070   3.462  10.152  0.7701  1.2259 -1.3094
  120OSM    H4G12719   1.097   3.295  10.135  1.0393 -0.1618 -2.3474
  120OSM    C5F12720   1.253   3.410  10.054 -0.3237  1.1376  0.3390
  120OSM    H5F12721   1.323   3.324  10.047 -1.0072  0.2575  3.1687
  120OSM    H5G12722   1.329   3.489  10.072  0.6732  1.0924 -3.0376
  120OSM    C6F12723   1.187   3.440   9.916  0.4298 -0.2808  0.3436
  120OSM    H6F12724   1.142   3.541   9.912 -0.7677 -0.8059  0.2636
  120OSM    H6G12725   1.100   3.373   9.900  0.8871 -1.0061  0.7712
  120OSM    C7F12726   1.280   3.427   9.793 -0.1841 -0.2333  0.4510
  120OSM    H7F12727   1.324   3.325   9.795  1.3250  0.3935  0.6146
  120OSM    H7G12728   1.363   3.500   9.808 -1.0987  1.5004 -2.2120
  120OSM    C8F12729   1.205   3.459   9.663 -0.3257  0.2055  0.1795
  120OSM    H8F12730   1.275   3.479   9.579  0.9652  1.6320  1.5339
  120OSM    H8G12731   1.154   3.554   9.687  1.2752  0.7785  1.4806
  120OSM    C9F12732   1.109   3.344   9.631 -0.7069  0.0819 -0.0644
  120OSM    H9F12733   1.112   3.255   9.695 -1.3548 -0.8647 -1.3119
  120OSM   C10F12734   1.025   3.338   9.525  0.3561 -0.0858  0.7693
  120OSM   H10F12735   0.981   3.240   9.502  1.6798 -0.7713  1.0259
  120OSM   C11F12736   0.997   3.449   9.422 -0.3376  0.1131 -0.2722
  120OSM   H11F12737   1.070   3.532   9.412  1.1603 -0.7462  2.4170
  120OSM   H11G12738   0.895   3.489   9.443  0.2847  1.3705  0.4647
  120OSM   C12F12739   0.986   3.383   9.283 -0.4660  0.4247  0.6898
  120OSM   H12F12740   0.904   3.309   9.282  0.1481 -0.3035  1.9632
  120OSM   H12G12741   1.072   3.315   9.264  1.2804  2.3354  1.3731
  120OSM   C13F12742   0.971   3.483   9.171  0.3856 -0.0327  0.1026
  120OSM   H13F12743   1.067   3.532   9.144 -0.1515  0.3373 -1.1735
  120OSM   H13G12744   0.892   3.554   9.202 -1.9366 -2.1582 -0.6707
  120OSM   C14F12745   0.926   3.413   9.045  0.2561  0.0428  0.5681
  120OSM   H14F12746   0.826   3.366   9.059  1.3675 -2.2057  1.5369
  120OSM   H14G12747   0.998   3.332   9.024 -0.9909 -1.5651  2.1403
  120OSM   C15F12748   0.926   3.508   8.929  0.8385 -0.0621  0.5742
  120OSM   H15F12749   0.903   3.449   8.838  0.3997 -0.1876  0.7650
  120OSM   H15G12750   1.027   3.546   8.904  0.6275  0.0691 -0.0894
  120OSM   C16F12751   0.839   3.632   8.972 -0.0191  0.5429  0.1896
  120OSM   H16F12752   0.884   3.693   9.054 -1.4840  0.4747  1.0697
  120OSM   H16G12753   0.743   3.603   9.020  0.3317  0.2580  0.7320
  120OSM   C17F12754   0.806   3.729   8.859 -0.8177 -0.3462  0.3814
  120OSM   H17F12755   0.746   3.817   8.891 -2.5776 -1.4187  0.1995
  120OSM   H17G12756   0.749   3.673   8.781  0.6350 -1.5894  0.1561
  120OSM   C18F12757   0.931   3.786   8.787  0.2471 -0.2737 -0.1461
  120OSM   H18F12758   0.975   3.870   8.845 -0.5035  0.2648 -0.3357
  120OSM   H18G12759   0.906   3.834   8.690  2.1197  1.3017  0.0986
  120OSM   H18H12760   1.006   3.708   8.764 -0.3162 -0.8404 -0.0990
  121OSM      N12761   4.439   0.675  11.007  0.2584  0.8863  0.2829
  121OSM    C1512762   4.395   0.636  10.866  0.0384 -0.3583  0.2149
  121OSM   H15A12763   4.299   0.679  10.844  1.2635  2.1145 -0.6414
  121OSM   H15B12764   4.402   0.530  10.846  0.6915 -0.8507  2.6531
  121OSM   H15C12765   4.451   0.691  10.792  0.5172 -1.7361 -0.4835
  121OSM    C1412766   4.357   0.611  11.117  0.1369  0.4794 -0.2238
  121OSM   H14A12767   4.403   0.625  11.214 -0.0868  1.5394 -0.2662
  121OSM   H14B12768   4.341   0.505  11.100 -0.3679  0.9005 -2.6986
  121OSM   H14C12769   4.264   0.667  11.118 -0.4850 -0.4323 -2.4288
  121OSM    C1312770   4.578   0.628  11.038  0.1134 -0.7402 -0.0094
  121OSM   H13A12771   4.612   0.662  11.134  0.0974  1.4115 -0.7090
  121OSM   H13B12772   4.643   0.673  10.965 -0.7839  0.3755 -0.1391
  121OSM   H13C12773   4.598   0.522  11.026  1.9152 -0.5413  1.0519
  121OSM    C1212774   4.431   0.829  11.026  0.3192 -0.0466 -0.4089
  121OSM   H12A12775   4.474   0.853  11.122  0.0305 -1.5432  0.1239
  121OSM   H12B12776   4.328   0.857  11.044  0.2209 -0.9336  0.5184
  121OSM    C1112777   4.492   0.923  10.921 -0.4111  0.3475 -0.4601
  121OSM   H11A12778   4.454   1.027  10.930 -2.8397 -0.4908 -0.2229
  121OSM   H11B12779   4.458   0.895  10.819  0.6931 -0.6414 -0.5710
  121OSM      P12780   4.713   0.993  11.020 -0.2889 -0.3434 -0.2704
  121OSM    O1312781   4.645   0.991  11.148 -0.5505 -0.0742  0.3663
  121OSM    O1412782   4.857   0.953  11.023  0.0148  0.0528 -0.2074
  121OSM    O1112783   4.710   1.137  10.962  0.2939  0.0973 -0.5462
  121OSM    O1212784   4.629   0.914  10.915 -0.2163  0.4680 -0.0733
  121OSM    C1S12785   4.778   1.166  10.840 -0.1203 -0.3343  0.1489
  121OSM    H1S12786   4.838   1.085  10.793  0.5804  0.1213  0.2386
  121OSM    H1T12787   4.842   1.254  10.863  0.6082 -0.2085 -2.1351
  121OSM     NF12788   4.765   1.252  10.609  0.6217 -0.2327 -0.0247
  121OSM    HNF12789   4.798   1.345  10.600  0.7297 -0.3042 -0.3786
  121OSM    C2S12790   4.686   1.214  10.718  0.6350 -0.0451 -0.2381
  121OSM    H2S12791   4.621   1.130  10.686  0.4760  0.0682 -0.2182
  121OSM    C3S12792   4.594   1.329  10.770 -0.3431 -0.1938 -0.3608
  121OSM    H3S12793   4.663   1.407  10.807 -0.5947  0.5778 -1.4456
  121OSM     O312794   4.513   1.301  10.885 -0.1698  0.4338 -0.3766
  121OSM    HO312795   4.555   1.223  10.920 -0.5415 -0.0902 -1.0763
  121OSM    C4S12796   4.500   1.394  10.672  0.0173 -0.2143  0.0660
  121OSM    H4S12797   4.436   1.325  10.616 -2.4555  1.7969  0.2143
  121OSM    C5S12798   4.500   1.524  10.634  0.0628 -0.2007 -0.0417
  121OSM    H5S12799   4.580   1.593  10.661  1.2751 -1.2212 -0.9299
  121OSM    C6S12800   4.407   1.578  10.529 -0.4277 -0.2809 -0.2617
  121OSM    H6S12801   4.335   1.655  10.562 -0.3260 -0.4103  0.2667
  121OSM    H6T12802   4.344   1.492  10.501 -1.1569  0.3408 -0.5765
  121OSM    C7S12803   4.481   1.639  10.410  0.2038  0.3079 -0.5806
  121OSM    H7S12804   4.554   1.563  10.377 -0.8784 -1.6932  1.3039
  121OSM    H7T12805   4.537   1.734  10.421 -1.9665  1.6344 -0.2450
  121OSM    C8S12806   4.383   1.676  10.294 -0.5274  0.0229  0.1177
  121OSM    H8S12807   4.336   1.774  10.317  0.8869  0.4046  1.5454
  121OSM    H8T12808   4.303   1.599  10.298 -1.0181  0.5582  0.8847
  121OSM    C9S12809   4.459   1.666  10.156  0.0753 -0.3010  0.0419
  121OSM    H9S12810   4.488   1.559  10.144  0.4303  0.0753 -3.7342
  121OSM    H9T12811   4.545   1.734  10.175  0.2722 -1.0261  1.9093
  121OSM   C10S12812   4.377   1.699  10.029 -0.0045  0.0673 -0.5600
  121OSM   H10S12813   4.349   1.807  10.031  1.7519  0.6163 -2.3387
  121OSM   H10T12814   4.285   1.637  10.019  1.1914 -1.8471 -0.1707
  121OSM   C11S12815   4.453   1.662   9.903 -0.5315 -0.6301 -0.4127
  121OSM   H11S12816   4.470   1.553   9.897  0.3963 -0.4433 -1.5090
  121OSM   H11T12817   4.546   1.722   9.899 -1.3986  0.7512 -0.5526
  121OSM   C12S12818   4.375   1.706   9.781  0.3662  0.8366 -0.2076
  121OSM   H12S12819   4.345   1.813   9.783  2.1860  1.3935 -0.5714
  121OSM   H12T12820   4.288   1.638   9.791  1.5658 -0.9613 -1.3591
  121OSM   C13S12821   4.436   1.679   9.648 -0.0598  0.4735 -0.4140
  121OSM   H13S12822   4.467   1.573   9.647  1.4246  0.8627  0.5902
  121OSM   H13T12823   4.526   1.743   9.634  0.6305  0.0545  1.7043
  121OSM   C14S12824   4.357   1.718   9.526  0.3608  0.7025  0.7999
  121OSM   H14S12825   4.333   1.825   9.544  1.4304  1.0142  0.4538
  121OSM   H14T12826   4.258   1.669   9.528  0.4926  0.4060  0.1268
  121OSM   C15S12827   4.422   1.699   9.386  0.2154  0.2081 -0.4038
  121OSM   H15S12828   4.465   1.597   9.384 -0.0085  0.1002  0.2130
  121OSM   H15T12829   4.508   1.769   9.375 -0.6481  1.0414 -2.3980
  121OSM   C16S12830   4.326   1.703   9.270  0.2826  0.6906  0.0369
  121OSM   H16S12831   4.372   1.703   9.169 -0.3259 -0.2101 -0.2504
  121OSM   H16T12832   4.271   1.798   9.288  3.0085  2.4614 -0.3229
  121OSM   C17S12833   4.232   1.576   9.258  0.6564 -0.9049  0.5705
  121OSM   H17S12834   4.183   1.545   9.353 -1.3847 -0.0773 -0.1505
  121OSM   H17T12835   4.296   1.488   9.235  1.1711 -0.7623  1.4036
  121OSM   C18S12836   4.119   1.594   9.155  0.5297 -0.0114 -0.0936
  121OSM   H18S12837   4.149   1.621   9.052 -1.1708  2.1160 -0.0883
  121OSM   H18T12838   4.063   1.682   9.192 -0.0934 -0.4575  0.0423
  121OSM   H18U12839   4.057   1.501   9.152  0.4040  0.0533  0.3272
  121OSM    C1F12840   4.823   1.154  10.536  0.7342  0.0121  0.0283
  121OSM     OF12841   4.799   1.040  10.560 -0.0378  0.7950 -0.5931
  121OSM    C2F12842   4.912   1.195  10.423  0.0705  0.4155 -0.6814
  121OSM    H2F12843   5.020   1.179  10.447  1.2418  3.7323 -3.0611
  121OSM    H2G12844   4.916   1.306  10.419  1.1686  0.4686  0.8304
  121OSM    C3F12845   4.868   1.129  10.293  0.3637  1.1213  0.3764
  121OSM    H3F12846   4.761   1.154  10.273  0.3079  0.5631 -0.0653
  121OSM    H3G12847   4.887   1.020  10.292  0.3178  1.0866 -1.4686
  121OSM    C4F12848   4.946   1.185  10.166 -0.6248 -0.8065 -0.0438
  121OSM    H4F12849   5.054   1.171  10.190 -0.5121 -2.1472 -1.1765
  121OSM    H4G12850   4.928   1.294  10.157  2.0845 -0.2309  0.5037
  121OSM    C5F12851   4.916   1.106  10.040  0.1818  0.2070 -0.5910
  121OSM    H5F12852   4.809   1.102  10.012  0.3934 -0.7324 -1.3082
  121OSM    H5G12853   4.939   0.998  10.055 -0.2205  0.2229  0.1838
  121OSM    C6F12854   5.003   1.166   9.921  1.1548  0.5709 -0.3379
  121OSM    H6F12855   5.023   1.090   9.842  0.8668  1.0201 -0.8517
  121OSM    H6G12856   5.103   1.198   9.955  1.5234 -1.6273  0.8236
  121OSM    C7F12857   4.930   1.286   9.855  0.2258 -0.1420 -0.5142
  121OSM    H7F12858   4.925   1.365   9.933 -0.2210  1.9956 -2.5876
  121OSM    H7G12859   4.833   1.247   9.818 -0.3399  0.6085  0.1487
  121OSM    C8F12860   4.993   1.334   9.718 -0.2891 -0.0329 -0.4298
  121OSM    H8F12861   5.103   1.340   9.734 -0.2209 -1.2710 -0.3363
  121OSM    H8G12862   4.950   1.434   9.696  1.3973  0.7403 -0.4350
  121OSM    C9F12863   4.957   1.243   9.604  0.6646  0.4558 -0.7542
  121OSM    H9F12864   4.852   1.210   9.602  0.5418  0.8727 -1.3227
  121OSM   C10F12865   5.042   1.201   9.508  0.7542 -0.6899  0.0184
  121OSM   H10F12866   5.005   1.128   9.434  1.0386 -0.7621 -0.0524
  121OSM   C11F12867   5.185   1.239   9.489 -0.7443 -0.3373  0.4745
  121OSM   H11F12868   5.235   1.144   9.460  1.0596  1.8686 -4.7423
  121OSM   H11G12869   5.237   1.268   9.584  0.4772 -0.4923 -0.1248
  121OSM   C12F12870   5.218   1.354   9.394  0.2363  1.0255  0.9054
  121OSM   H12F12871   5.329   1.363   9.393  0.5041 -1.4148  1.9250
  121OSM   H12G12872   5.192   1.456   9.428  1.1383  1.2740  0.8830
  121OSM   C13F12873   5.175   1.322   9.248  0.2625 -0.8413 -0.2417
  121OSM   H13F12874   5.065   1.337   9.241  0.2467 -0.8109  0.0554
  121OSM   H13G12875   5.201   1.219   9.216  0.2839 -0.2232 -2.3505
  121OSM   C14F12876   5.245   1.415   9.146  0.2790 -0.0716  0.4665
  121OSM   H14F12877   5.352   1.388   9.135  0.1273 -0.2139 -0.7290
  121OSM   H14G12878   5.218   1.520   9.169  1.5350  0.7876 -1.7337
  121OSM   C15F12879   5.190   1.395   9.008 -0.6041 -0.6711  0.0408
  121OSM   H15F12880   5.088   1.438   8.994 -0.6548 -0.9901 -0.6307
  121OSM   H15G12881   5.172   1.288   8.982  0.6584 -1.4616  2.1916
  121OSM   C16F12882   5.271   1.453   8.888  1.0586  0.4681  0.6791
  121OSM   H16F12883   5.370   1.405   8.904 -0.2471 -2.2307  1.4383
  121OSM   H16G12884   5.278   1.563   8.893 -0.4193  0.6181  0.1914
  121OSM   C17F12885   5.212   1.424   8.751  0.6829 -0.0583  0.1968
  121OSM   H17F12886   5.232   1.317   8.728  0.9523 -0.1530  0.8624
  121OSM   H17G12887   5.261   1.487   8.674  0.5213 -0.2240 -0.0453
  121OSM   C18F12888   5.059   1.453   8.734  0.0796  0.2180  0.3629
  121OSM   H18F12889   5.030   1.455   8.627  1.1440  1.3720  0.0625
  121OSM   H18G12890   5.026   1.548   8.781 -0.8123 -0.6795  1.6211
  121OSM   H18H12891   5.003   1.370   8.783  1.0677 -1.3563 -1.0731
  122OSM      N12892   6.414   5.014  10.940  0.8686  0.3284 -0.0033
  122OSM    C1512893   6.271   4.963  10.945  0.3426 -0.1704  0.7886
  122OSM   H15A12894   6.256   4.871  10.891  0.9616  0.9322 -1.3459
  122OSM   H15B12895   6.202   5.030  10.898  1.7433  0.8816  0.1474
  122OSM   H15C12896   6.240   4.969  11.049 -2.1543  1.5613  0.0171
  122OSM    C1412897   6.411   5.159  10.966 -0.7035  0.8381  0.2680
  122OSM   H14A12898   6.342   5.213  10.903 -2.5967 -1.7718 -0.0814
  122OSM   H14B12899   6.507   5.204  10.946  0.3310 -0.8854  1.0970
  122OSM   H14C12900   6.380   5.174  11.068  1.9988  0.3530  1.2330
  122OSM    C1312901   6.498   4.953  11.052  0.2236  0.5383  0.6903
  122OSM   H13A12902   6.595   5.000  11.050  0.2508  0.7091  2.8906
  122OSM   H13B12903   6.507   4.846  11.036 -0.1844  0.5442  0.4135
  122OSM   H13C12904   6.458   4.980  11.149  0.8512  1.8483  0.6007
  122OSM    C1212905   6.476   4.991  10.801  0.1586 -0.1894 -0.7340
  122OSM   H12A12906   6.570   5.043  10.792 -0.4637  1.1114  0.0082
  122OSM   H12B12907   6.416   5.048  10.732  0.1344  1.0896  0.2951
  122OSM    C1112908   6.484   4.848  10.757 -0.1863 -0.3067  0.5871
  122OSM   H11A12909   6.525   4.849  10.654 -1.2876 -0.1315  0.1428
  122OSM   H11B12910   6.380   4.810  10.745 -0.6586  1.6651 -2.4000
  122OSM      P12911   6.634   4.640  10.808 -0.3771  0.1217 -0.1615
  122OSM    O1312912   6.770   4.645  10.862  0.2852  0.3031 -0.3399
  122OSM    O1412913   6.559   4.532  10.869  0.0937 -0.5800 -0.5577
  122OSM    O1112914   6.628   4.635  10.650 -0.4459 -0.0740 -0.5661
  122OSM    O1212915   6.564   4.775  10.849 -0.6933  0.1899 -0.0450
  122OSM    C1S12916   6.724   4.556  10.577  0.3200 -0.1918 -0.4895
  122OSM    H1S12917   6.789   4.496  10.644 -1.3637 -1.6663 -0.1055
  122OSM    H1T12918   6.789   4.626  10.520  0.1068 -0.5844 -1.2231
  122OSM     NF12919   6.765   4.407  10.404  0.1594 -0.5283  0.0896
  122OSM    HNF12920   6.815   4.457  10.332 -0.7141  2.6335  1.5176
  122OSM    C2S12921   6.653   4.477  10.466  0.8350  0.2214 -0.1826
  122OSM    H2S12922   6.589   4.400  10.514  1.8343  1.0298  2.5959
  122OSM    C3S12923   6.577   4.568  10.365  0.1548  0.0280 -0.5202
  122OSM    H3S12924   6.656   4.635  10.324  0.9001 -0.1603  0.5771
  122OSM     O312925   6.483   4.666  10.416  0.4257  0.0568  0.2476
  122OSM    HO312926   6.490   4.667  10.511  0.3671  0.4150  0.2491
  122OSM    C4S12927   6.506   4.488  10.263 -0.0307  0.4876 -0.5217
  122OSM    H4S12928   6.413   4.437  10.291 -0.5271  0.9996 -1.2090
  122OSM    C5S12929   6.538   4.474  10.132  0.4730 -0.6478  0.0615
  122OSM    H5S12930   6.639   4.505  10.100 -0.4931  2.9792  0.0974
  122OSM    C6S12931   6.458   4.399  10.029  0.2383 -0.2437  0.3851
  122OSM    H6S12932   6.369   4.459   9.999  2.0886  2.1560 -0.7366
  122OSM    H6T12933   6.432   4.300  10.072  1.1343 -0.5159  0.3165
  122OSM    C7S12934   6.548   4.381   9.908  0.0044  0.3040  0.0211
  122OSM    H7S12935   6.623   4.300   9.919 -0.9006 -0.3211  2.2162
  122OSM    H7T12936   6.598   4.474   9.874 -0.6495  0.6906  0.1008
  122OSM    C8S12937   6.455   4.330   9.794 -0.2141  0.1283 -0.1578
  122OSM    H8S12938   6.359   4.386   9.782  1.6107  3.5974  0.0514
  122OSM    H8T12939   6.427   4.227   9.823 -0.5219  0.5839  1.2708
  122OSM    C9S12940   6.521   4.339   9.658  0.7901 -0.1440 -0.0459
  122OSM    H9S12941   6.617   4.283   9.660  1.0263  0.1012 -2.0679
  122OSM    H9T12942   6.553   4.442   9.630 -1.1397  0.4255 -0.3087
  122OSM   C10S12943   6.439   4.270   9.546 -0.4837 -0.5623 -0.6071
  122OSM   H10S12944   6.340   4.322   9.539 -0.1723  0.2660  0.7305
  122OSM   H10T12945   6.409   4.169   9.582  1.0564 -0.7523  0.2108
  122OSM   C11S12946   6.506   4.261   9.415  0.1964 -0.3654 -0.0136
  122OSM   H11S12947   6.450   4.183   9.360  0.3115 -0.1726 -0.4097
  122OSM   H11T12948   6.615   4.239   9.426  0.5458  0.7256 -1.0010
  122OSM   C12S12949   6.494   4.390   9.328 -0.3766  0.2001 -0.3314
  122OSM   H12S12950   6.558   4.469   9.372  1.7978 -0.4398 -2.1616
  122OSM   H12T12951   6.386   4.417   9.321 -0.0331  1.5454 -0.5663
  122OSM   C13S12952   6.520   4.373   9.178  0.2064 -0.2381  0.3932
  122OSM   H13S12953   6.499   4.472   9.133  0.2994  0.4512  1.8188
  122OSM   H13T12954   6.449   4.298   9.136  0.8906 -0.6442 -0.0495
  122OSM   C14S12955   6.663   4.328   9.142 -0.5103  0.6551 -0.2410
  122OSM   H14S12956   6.678   4.238   9.205  1.2796  0.3223 -1.0905
  122OSM   H14T12957   6.736   4.406   9.173 -3.0870  2.8345  0.7346
  122OSM   C15S12958   6.698   4.283   9.001  0.4917 -0.8141  0.2828
  122OSM   H15S12959   6.631   4.197   8.980 -2.1091  0.6670  2.0221
  122OSM   H15T12960   6.807   4.261   9.003  0.7589  0.4524  0.9926
  122OSM   C16S12961   6.672   4.398   8.895 -0.5378  0.8191  0.5146
  122OSM   H16S12962   6.724   4.490   8.929  0.3577  0.5315 -0.0484
  122OSM   H16T12963   6.563   4.413   8.911 -0.7389 -0.1715  0.1797
  122OSM   C17S12964   6.709   4.356   8.750  0.8937  0.5217 -0.0426
  122OSM   H17S12965   6.683   4.249   8.733  1.2508  0.6258 -1.3847
  122OSM   H17T12966   6.819   4.355   8.737  1.0431 -0.8030  1.1495
  122OSM   C18S12967   6.649   4.427   8.626  0.2568  0.1292  0.6446
  122OSM   H18S12968   6.650   4.358   8.539 -1.4955 -0.7210  1.2571
  122OSM   H18T12969   6.705   4.523   8.619 -0.9600  0.7829 -0.4508
  122OSM   H18U12970   6.546   4.466   8.642 -0.8191 -2.3690  0.2673
  122OSM    C1F12971   6.841   4.311  10.460  0.3440  0.1749 -0.2864
  122OSM     OF12972   6.825   4.274  10.579 -0.0078 -0.1483  0.1789
  122OSM    C2F12973   6.939   4.255  10.371  0.3713  0.4290  0.0780
  122OSM    H2F12974   6.986   4.166  10.420 -0.2914  0.3192  0.5305
  122OSM    H2G12975   7.019   4.325  10.340  0.7968  0.3947  1.0460
  122OSM    C3F12976   6.867   4.206  10.242  0.4213  0.4293  0.7531
  122OSM    H3F12977   6.816   4.288  10.187 -1.0000 -1.6921 -1.2382
  122OSM    H3G12978   6.792   4.127  10.262  0.9668 -0.5823 -1.0379
  122OSM    C4F12979   6.962   4.138  10.142 -0.3850  0.4517  0.0618
  122OSM    H4F12980   6.989   4.041  10.191 -1.3806 -0.2184 -0.6788
  122OSM    H4G12981   7.056   4.194  10.124  0.7802 -0.2659  3.1287
  122OSM    C5F12982   6.919   4.123   9.999 -0.9421 -0.4456 -0.0168
  122OSM    H5F12983   6.884   4.224   9.970  0.9451  0.6445  1.2761
  122OSM    H5G12984   6.836   4.050   9.988  0.3196 -1.5745 -3.0767
  122OSM    C6F12985   7.029   4.075   9.902  0.2591  0.4888  0.0106
  122OSM    H6F12986   7.069   3.984   9.951 -2.1024  0.1432  1.4657
  122OSM    H6G12987   7.118   4.141   9.908 -0.9323  2.0004  2.8054
  122OSM    C7F12988   6.991   4.040   9.756 -0.2683 -0.0022 -0.8364
  122OSM    H7F12989   6.947   4.130   9.708  0.2514  1.2990  0.9766
  122OSM    H7G12990   6.911   3.966   9.736 -0.8041  0.4023 -0.2822
  122OSM    C8F12991   7.126   4.016   9.683  0.6889  0.8726 -0.6410
  122OSM    H8F12992   7.200   4.096   9.700 -0.4460  1.2641  3.4091
  122OSM    H8G12993   7.102   4.012   9.575  1.3111 -0.9123 -0.7527
  122OSM    C9F12994   7.193   3.890   9.726  0.0327 -0.2668 -0.2347
  122OSM    H9F12995   7.228   3.891   9.831 -0.5478  0.8495 -0.0403
  122OSM   C10F12996   7.229   3.777   9.651  0.4751  0.3280 -0.6183
  122OSM   H10F12997   7.279   3.691   9.698 -1.7240 -0.7266 -0.0620
  122OSM   C11F12998   7.197   3.774   9.507  0.3391  0.9940  0.1333
  122OSM   H11F12999   7.176   3.876   9.466 -0.2123  1.5879  1.8313
  122OSM   H11G13000   7.096   3.727   9.507  0.6113  0.4096  0.8454
  122OSM   C12F13001   7.297   3.690   9.424 -0.5449 -0.6386  0.2635
  122OSM   H12F13002   7.388   3.752   9.438 -1.3328  0.2365  1.8937
  122OSM   H12G13003   7.273   3.685   9.316  2.3415 -3.5970 -0.3861
  122OSM   C13F13004   7.328   3.546   9.464 -0.3338  0.0096 -0.1633
  122OSM   H13F13005   7.233   3.493   9.487 -1.3383  1.5392 -0.6385
  122OSM   H13G13006   7.380   3.542   9.562 -3.2222 -0.0273  1.4920
  122OSM   C14F13007   7.383   3.463   9.354  0.7329  0.7583  0.6983
  122OSM   H14F13008   7.428   3.369   9.393 -1.0706 -0.8168 -0.8583
  122OSM   H14G13009   7.467   3.519   9.307  0.3106  0.7978 -0.0253
  122OSM   C15F13010   7.267   3.415   9.261 -0.0613 -0.0987 -0.6415
  122OSM   H15F13011   7.197   3.495   9.227 -1.0297 -1.3780 -1.7954
  122OSM   H15G13012   7.213   3.339   9.322  0.1603  1.3940  1.5322
  122OSM   C16F13013   7.330   3.358   9.137 -0.0910 -0.5065 -0.3756
  122OSM   H16F13014   7.371   3.257   9.162 -1.5104 -1.0858 -0.2932
  122OSM   H16G13015   7.409   3.427   9.102 -0.1116  0.6394  1.6919
  122OSM   C17F13016   7.229   3.346   9.019  0.0279 -0.0155  0.1337
  122OSM   H17F13017   7.191   3.449   9.001  2.5483  0.9618 -0.0061
  122OSM   H17G13018   7.148   3.287   9.066 -0.4052  1.9711  2.0378
  122OSM   C18F13019   7.292   3.280   8.901  0.2130 -0.0920  0.4653
  122OSM   H18F13020   7.369   3.345   8.854 -0.0586 -0.9011 -1.1934
  122OSM   H18G13021   7.214   3.261   8.824  0.5582 -0.0812  0.1060
  122OSM   H18H13022   7.332   3.177   8.909  1.2133  0.3521  1.6306
  123OSM      N13023   0.707   0.663   5.559  0.3463  0.4234 -0.2326
  123OSM    C1513024   0.715   0.715   5.416  0.2385 -0.1298 -0.4583
  123OSM   H15A13025   0.745   0.634   5.352  0.2511 -0.3898 -0.1283
  123OSM   H15B13026   0.774   0.805   5.415  1.8692 -1.1297  0.4963
  123OSM   H15C13027   0.615   0.744   5.390  0.1235 -0.3126 -0.2232
  123OSM    C1413028   0.614   0.546   5.557  0.3024 -0.3778  0.2974
  123OSM   H14A13029   0.653   0.467   5.494 -0.2654  0.4105 -1.0997
  123OSM   H14B13030   0.512   0.571   5.533 -0.9408 -2.5113  2.8645
  123OSM   H14C13031   0.613   0.515   5.660 -0.6884 -2.2130 -0.2156
  123OSM    C1313032   0.846   0.616   5.602  0.1197 -0.0872 -0.0103
  123OSM   H13A13033   0.840   0.591   5.707 -1.5766 -1.5109 -0.3978
  123OSM   H13B13034   0.928   0.685   5.594  2.1950 -2.1590  2.0213
  123OSM   H13C13035   0.874   0.525   5.551 -1.4111 -1.4978  1.5504
  123OSM    C1213036   0.656   0.775   5.650  0.1080  0.4285  0.3395
  123OSM   H12A13037   0.551   0.791   5.633  0.1156  0.4145  0.2781
  123OSM   H12B13038   0.713   0.866   5.646 -1.1609  1.2642  0.7422
  123OSM    C1113039   0.654   0.744   5.809  0.7581 -0.5013  0.4091
  123OSM   H11A13040   0.629   0.840   5.859 -0.9887 -1.7023  1.9692
  123OSM   H11B13041   0.761   0.728   5.833  1.7934  3.2806 -0.8974
  123OSM      P13042   0.413   0.673   5.871 -0.0995  0.1403  0.2458
  123OSM    O1313043   0.368   0.745   5.747  0.4683  0.4949  0.2067
  123OSM    O1413044   0.345   0.540   5.889 -0.7804  0.0254 -0.3644
  123OSM    O1113045   0.409   0.766   6.002  0.4229  0.3110  0.0115
  123OSM    O1213046   0.563   0.638   5.842  0.1007  0.2687  0.0011
  123OSM    C1S13047   0.428   0.708   6.129  0.1456  0.0555  0.0008
  123OSM    H1S13048   0.519   0.644   6.135  0.7598  0.9724  0.7204
  123OSM    H1T13049   0.330   0.670   6.166 -0.2247  1.4632  0.5074
  123OSM     NF13050   0.524   0.769   6.346  0.1594 -0.0925  0.2934
  123OSM    HNF13051   0.459   0.793   6.418  1.3479  2.8121  0.5214
  123OSM    C2S13052   0.469   0.824   6.229  0.4729 -0.2866 -0.2305
  123OSM    H2S13053   0.554   0.880   6.185 -0.6994  0.0116 -2.2580
  123OSM    C3S13054   0.344   0.922   6.247 -0.2815 -1.5098 -0.0783
  123OSM    H3S13055   0.276   0.860   6.309  0.7463 -1.7001  0.8890
  123OSM     O313056   0.268   0.959   6.130 -1.2768  0.5165  0.5565
  123OSM    HO313057   0.308   0.897   6.069 -2.3038  0.1825  0.2070
  123OSM    C4S13058   0.386   1.039   6.327 -1.2435  0.0717 -0.4594
  123OSM    H4S13059   0.486   1.079   6.304 -0.4150  0.5962  3.3613
  123OSM    C5S13060   0.311   1.096   6.423 -0.2891 -0.0050 -0.4235
  123OSM    H5S13061   0.210   1.060   6.448  0.1317 -0.8029  0.1778
  123OSM    C6S13062   0.361   1.219   6.494  0.1509 -0.0409 -0.1214
  123OSM    H6S13063   0.314   1.222   6.595 -3.6262 -0.7838 -1.6755
  123OSM    H6T13064   0.323   1.309   6.441 -0.6304 -0.3570 -0.1155
  123OSM    C7S13065   0.515   1.239   6.502  0.6522 -0.1389  0.7188
  123OSM    H7S13066   0.558   1.260   6.402  0.0091 -1.2272  0.1918
  123OSM    H7T13067   0.549   1.144   6.550 -1.4806 -2.3878 -1.8381
  123OSM    C8S13068   0.552   1.355   6.602 -0.0093  0.7530 -0.4100
  123OSM    H8S13069   0.518   1.457   6.573  0.5721  1.8699  2.4530
  123OSM    H8T13070   0.663   1.366   6.597  0.0512 -0.3159 -2.2202
  123OSM    C9S13071   0.502   1.330   6.745 -0.8180  0.1673 -0.3344
  123OSM    H9S13072   0.502   1.227   6.785 -2.0657  0.2651 -0.0624
  123OSM    H9T13073   0.399   1.367   6.760 -1.9762 -3.0677  0.5061
  123OSM   C10S13074   0.584   1.409   6.855  0.1519  0.5188 -0.2272
  123OSM   H10S13075   0.541   1.510   6.846 -0.9777  0.1464  0.7707
  123OSM   H10T13076   0.692   1.414   6.829  0.3233 -1.8092 -0.2212
  123OSM   C11S13077   0.565   1.361   6.997 -0.4469 -0.0357 -0.1809
  123OSM   H11S13078   0.577   1.252   7.017  0.6737  0.2565  0.8649
  123OSM   H11T13079   0.460   1.383   7.025 -0.5763  1.4375 -1.6931
  123OSM   C12S13080   0.659   1.432   7.094  0.6291 -0.0780  0.0568
  123OSM   H12S13081   0.645   1.541   7.083  0.4364 -0.1965 -0.9684
  123OSM   H12T13082   0.765   1.410   7.067  0.9650 -0.2885  1.4568
  123OSM   C13S13083   0.635   1.384   7.235  0.2751  0.2118  0.0839
  123OSM   H13S13084   0.654   1.275   7.234 -0.0705  0.1474 -0.6995
  123OSM   H13T13085   0.537   1.427   7.266  0.6089  0.8388  0.2948
  123OSM   C14S13086   0.727   1.457   7.337  0.2156  0.3625 -0.0963
  123OSM   H14S13087   0.738   1.567   7.328  0.1306  0.4431  0.7309
  123OSM   H14T13088   0.836   1.457   7.319 -0.0345  2.0331 -2.0036
  123OSM   C15S13089   0.683   1.438   7.486 -0.1431 -0.0924 -0.2121
  123OSM   H15S13090   0.763   1.483   7.548  0.6943 -0.9436 -0.6481
  123OSM   H15T13091   0.687   1.332   7.520 -0.7859  0.1531  0.6698
  123OSM   C16S13092   0.551   1.519   7.531 -0.6130 -0.2559 -0.2825
  123OSM   H16S13093   0.466   1.486   7.468 -0.1104 -3.1199  0.3849
  123OSM   H16T13094   0.573   1.624   7.505 -3.0085  0.4076  0.0907
  123OSM   C17S13095   0.513   1.511   7.674  0.3422 -0.0561 -0.7004
  123OSM   H17S13096   0.479   1.408   7.698 -0.0106  0.6832  2.4486
  123OSM   H17T13097   0.430   1.583   7.690  0.7338  0.3957 -0.6700
  123OSM   C18S13098   0.625   1.558   7.763  0.1230  0.2353 -0.0851
  123OSM   H18S13099   0.652   1.662   7.736  2.0421  0.0604  0.9841
  123OSM   H18T13100   0.708   1.485   7.778 -0.2191  0.1998  1.8354
  123OSM   H18U13101   0.588   1.569   7.867  2.5212 -0.7468  0.9476
  123OSM    C1F13102   0.631   0.692   6.362 -0.1907 -0.6157  0.0638
  123OSM     OF13103   0.710   0.665   6.271  0.3091  0.4526  0.1513
  123OSM    C2F13104   0.654   0.642   6.497 -0.8721  0.0481  0.0633
  123OSM    H2F13105   0.583   0.558   6.508 -0.8272 -0.5894 -3.4953
  123OSM    H2G13106   0.632   0.725   6.568 -0.0204  0.2794  0.0763
  123OSM    C3F13107   0.799   0.588   6.514  0.0584 -0.0853 -0.2362
  123OSM    H3F13108   0.868   0.654   6.458 -1.0852  1.3145 -0.0383
  123OSM    H3G13109   0.811   0.489   6.465  1.3306 -0.4909  0.8440
  123OSM    C4F13110   0.842   0.577   6.666  0.5071  0.0297  0.2120
  123OSM    H4F13111   0.907   0.487   6.668 -0.5141 -0.7601 -0.7933
  123OSM    H4G13112   0.747   0.554   6.719  1.5454  0.5087  2.3892
  123OSM    C5F13113   0.911   0.700   6.730  0.1536 -0.1245 -1.1798
  123OSM    H5F13114   0.844   0.783   6.760 -0.5352 -0.1016 -2.6920
  123OSM    H5G13115   0.990   0.738   6.662 -0.1895 -2.7200 -3.1720
  123OSM    C6F13116   0.956   0.665   6.874  0.5809  0.0600  1.2882
  123OSM    H6F13117   1.031   0.584   6.870 -0.1695 -0.5793 -0.8748
  123OSM    H6G13118   0.863   0.621   6.915 -1.7584  1.9179 -1.6260
  123OSM    C7F13119   0.988   0.793   6.952 -0.9527 -0.1086  0.1817
  123OSM    H7F13120   0.904   0.865   6.959 -1.2716 -0.1633 -2.3851
  123OSM    H7G13121   1.080   0.841   6.911 -0.5277 -0.8064  0.3003
  123OSM    C8F13122   1.035   0.771   7.095 -0.0230 -0.1244 -0.0304
  123OSM    H8F13123   1.079   0.864   7.137 -0.4784 -0.1716  0.5798
  123OSM    H8G13124   1.113   0.692   7.098  0.8305  0.6341 -1.4111
  123OSM    C9F13125   0.925   0.722   7.190 -0.2422 -0.7526  0.4184
  123OSM    H9F13126   0.845   0.660   7.147 -2.7788  2.7445 -0.3953
  123OSM   C10F13127   0.912   0.762   7.318 -0.2272  1.0939 -0.3860
  123OSM   H10F13128   0.829   0.713   7.372 -1.3044  2.4602 -0.7275
  123OSM   C11F13129   0.995   0.856   7.401 -0.4996 -0.0730  1.0058
  123OSM   H11F13130   0.965   0.961   7.376 -2.3135 -0.5145  1.2082
  123OSM   H11G13131   1.103   0.846   7.377 -0.4971 -0.0522  1.0078
  123OSM   C12F13132   0.992   0.839   7.552  0.6691 -0.7570 -0.3696
  123OSM   H12F13133   1.006   0.731   7.574 -1.2578 -0.6179  1.9087
  123OSM   H12G13134   0.890   0.863   7.588 -0.3990 -2.9241 -1.7857
  123OSM   C13F13135   1.107   0.910   7.626 -0.7921  0.2044 -0.8065
  123OSM   H13F13136   1.103   1.020   7.612  1.9615  0.4052 -0.5459
  123OSM   H13G13137   1.203   0.880   7.579 -0.1692  1.1856 -0.1782
  123OSM   C14F13138   1.110   0.879   7.780 -0.1851 -0.4682 -0.7446
  123OSM   H14F13139   1.208   0.916   7.818  0.6101 -1.3790 -1.8473
  123OSM   H14G13140   1.110   0.767   7.780  0.4589 -0.4781 -1.8427
  123OSM   C15F13141   0.990   0.933   7.860  0.7046 -1.1042 -0.9382
  123OSM   H15F13142   0.895   0.895   7.817 -0.6013 -1.8701  2.2940
  123OSM   H15G13143   1.002   1.043   7.857  3.6378 -1.2612  0.8639
  123OSM   C16F13144   0.994   0.912   8.004  0.2379  0.2653 -0.3157
  123OSM   H16F13145   0.909   0.962   8.056  1.7694  1.1654  1.4372
  123OSM   H16G13146   1.085   0.957   8.049 -0.0126  0.4047  0.0555
  123OSM   C17F13147   0.986   0.764   8.043 -0.1640 -0.3905 -0.9925
  123OSM   H17F13148   1.072   0.702   8.010  0.1233 -0.1897 -0.6309
  123OSM   H17G13149   0.891   0.727   8.000 -0.7442 -1.5476  1.1658
  123OSM   C18F13150   0.963   0.738   8.197  0.2377  0.3928  0.5853
  123OSM   H18F13151   0.927   0.634   8.204 -1.7579  0.9302 -0.7770
  123OSM   H18G13152   0.876   0.802   8.223  0.1838  0.3193  0.5832
  123OSM   H18H13153   1.052   0.772   8.254  0.3253  1.0966  0.0485
  124OSM      N13154   3.393   3.373   6.195  0.6220 -0.2177 -0.3230
  124OSM    C1513155   3.271   3.396   6.273  0.0029 -0.2433 -0.2254
  124OSM   H15A13156   3.290   3.458   6.359  2.3897  2.1659 -2.3040
  124OSM   H15B13157   3.228   3.304   6.311 -0.9726  1.3893  3.0265
  124OSM   H15C13158   3.186   3.433   6.217 -1.4067 -1.9813  0.6651
  124OSM    C1413159   3.366   3.286   6.072 -0.5632  0.1569  0.2491
  124OSM   H14A13160   3.449   3.279   6.002 -0.4867 -3.4974  0.5209
  124OSM   H14B13161   3.281   3.318   6.015 -0.9183 -2.6588 -0.9519
  124OSM   H14C13162   3.333   3.192   6.113 -0.4924 -0.8017 -1.7803
  124OSM    C1313163   3.436   3.503   6.139 -0.1843 -0.7195  0.0442
  124OSM   H13A13164   3.525   3.495   6.078 -0.8272 -0.3166 -0.9792
  124OSM   H13B13165   3.450   3.586   6.206  0.1153  2.2113 -3.3543
  124OSM   H13C13166   3.354   3.534   6.076 -1.4292 -0.2223  1.8200
  124OSM    C1213167   3.498   3.298   6.277  0.6547 -0.3733 -0.1009
  124OSM   H12A13168   3.572   3.256   6.210 -0.3679 -1.0885 -0.8083
  124OSM   H12B13169   3.442   3.221   6.329 -0.7957 -0.9480 -2.3689
  124OSM    C1113170   3.573   3.369   6.391 -0.3304  0.1336  0.1502
  124OSM   H11A13171   3.606   3.300   6.471 -1.7022 -0.2595  0.4024
  124OSM   H11B13172   3.494   3.429   6.440  0.6051 -0.0066  1.8972
  124OSM      P13173   3.805   3.391   6.308  0.3444 -0.2067 -0.0713
  124OSM    O1313174   3.776   3.276   6.212  0.3012 -0.5993  0.6706
  124OSM    O1413175   3.913   3.483   6.280  0.1804 -0.6394 -0.2825
  124OSM    O1113176   3.848   3.321   6.439 -0.3400 -0.9848  0.5489
  124OSM    O1213177   3.666   3.461   6.343 -0.3823 -0.8917 -0.4059
  124OSM    C1S13178   3.881   3.383   6.560 -0.1685  0.8335  0.0252
  124OSM    H1S13179   3.790   3.438   6.593 -0.7604 -0.3277  0.3930
  124OSM    H1T13180   3.972   3.447   6.550  0.9836 -0.5645  1.0981
  124OSM     NF13181   3.993   3.352   6.773  0.2491 -0.2368  0.1053
  124OSM    HNF13182   4.093   3.352   6.768  0.3380  2.3816  0.4955
  124OSM    C2S13183   3.920   3.277   6.672  0.3692  0.4549  0.3389
  124OSM    H2S13184   3.822   3.243   6.713  0.3432  0.4542  0.2770
  124OSM    C3S13185   4.007   3.160   6.631 -0.2225  0.5494 -0.7395
  124OSM    H3S13186   4.106   3.197   6.595 -0.0425 -0.4493 -1.3055
  124OSM     O313187   3.947   3.081   6.527  0.0767 -0.4208  0.3388
  124OSM    HO313188   3.870   3.132   6.502  0.0698  0.7635  2.5014
  124OSM    C4S13189   4.032   3.078   6.758 -0.3532 -0.7556 -0.0913
  124OSM    H4S13190   4.127   3.101   6.809 -0.1936  0.5262 -0.9308
  124OSM    C5S13191   3.968   2.980   6.810 -0.4356  0.8924  0.0496
  124OSM    H5S13192   3.883   2.937   6.755  0.1371 -1.0280  0.6099
  124OSM    C6S13193   3.994   2.914   6.941 -0.2402 -0.2378  0.7957
  124OSM    H6S13194   4.074   2.840   6.920  0.8886  0.3659  2.6963
  124OSM    H6T13195   3.900   2.865   6.977  0.0607 -0.7245  0.9318
  124OSM    C7S13196   4.044   3.007   7.048 -0.3071  0.7877  0.0736
  124OSM    H7S13197   3.979   3.091   7.079 -0.7250  1.0370 -1.4083
  124OSM    H7T13198   4.142   3.050   7.016 -0.1975 -0.3023 -1.1355
  124OSM    C8S13199   4.068   2.930   7.174  0.1927 -0.2101 -0.0214
  124OSM    H8S13200   4.129   2.840   7.153 -0.5642 -0.4102 -1.4214
  124OSM    H8T13201   3.973   2.885   7.211  1.7184 -2.7069  1.1106
  124OSM    C9S13202   4.119   3.005   7.293  0.4169  0.2360  0.2514
  124OSM    H9S13203   4.056   3.095   7.312 -1.4163 -0.6593 -1.2211
  124OSM    H9T13204   4.223   3.040   7.281  0.3989  0.6475  1.1916
  124OSM   C10S13205   4.111   2.923   7.421  0.2033  0.2855  0.3920
  124OSM   H10S13206   4.160   2.825   7.400  0.6561  0.2979  1.3808
  124OSM   H10T13207   4.003   2.902   7.438 -0.0847  0.5042 -1.0165
  124OSM   C11S13208   4.177   2.991   7.537 -0.3735 -0.3365  0.0475
  124OSM   H11S13209   4.125   3.088   7.553  0.7922  0.5680 -1.4068
  124OSM   H11T13210   4.279   3.022   7.505 -0.5576  0.4969  0.2434
  124OSM   C12S13211   4.168   2.903   7.660  0.0584 -0.5474 -0.1838
  124OSM   H12S13212   4.237   2.817   7.648  1.4387 -0.0213  3.0545
  124OSM   H12T13213   4.064   2.863   7.668 -0.8568  2.0263  2.6620
  124OSM   C13S13214   4.191   2.973   7.790  0.0868 -0.4791 -0.0972
  124OSM   H13S13215   4.114   3.049   7.817 -2.4697 -3.2914  1.0780
  124OSM   H13T13216   4.287   3.027   7.777  1.6152 -2.6026  1.6065
  124OSM   C14S13217   4.219   2.878   7.906  0.6255  0.4350 -0.1568
  124OSM   H14S13218   4.310   2.819   7.885 -0.2133 -0.5654 -1.0825
  124OSM   H14T13219   4.132   2.809   7.912  1.1837 -0.1746  1.5891
  124OSM   C15S13220   4.234   2.947   8.036  0.0127 -0.3095  0.2546
  124OSM   H15S13221   4.144   3.005   8.066 -0.1709 -0.7908  0.6348
  124OSM   H15T13222   4.319   3.018   8.024 -0.6848  0.6068  0.5329
  124OSM   C16S13223   4.269   2.851   8.153  0.2418 -0.7665 -0.7467
  124OSM   H16S13224   4.300   2.921   8.234  0.4050 -0.7694 -0.8040
  124OSM   H16T13225   4.358   2.788   8.129  0.1439 -1.6234  0.9254
  124OSM   C17S13226   4.142   2.771   8.202 -0.3758  0.9479  0.3043
  124OSM   H17S13227   4.124   2.692   8.126  0.1680  0.1754  0.9656
  124OSM   H17T13228   4.053   2.835   8.221 -2.2363 -1.1857 -0.7957
  124OSM   C18S13229   4.173   2.687   8.325 -0.3608 -0.5553 -0.0887
  124OSM   H18S13230   4.232   2.596   8.300 -1.5148 -0.7335 -2.4766
  124OSM   H18T13231   4.083   2.651   8.379  0.3799 -0.9409  0.9290
  124OSM   H18U13232   4.231   2.755   8.391 -2.0709 -1.8975  2.9953
  124OSM    C1F13233   3.928   3.436   6.856  0.0241 -0.1770  0.1083
  124OSM     OF13234   3.812   3.467   6.844  0.2152  0.2529 -0.1769
  124OSM    C2F13235   3.999   3.479   6.977  0.1206  0.0091 -0.1868
  124OSM    H2F13236   3.928   3.475   7.062  0.9055  2.7697  0.7170
  124OSM    H2G13237   4.045   3.579   6.958  1.4199 -0.1938  1.6714
  124OSM    C3F13238   4.118   3.393   7.025  0.5598  0.7852  0.5633
  124OSM    H3F13239   4.202   3.403   6.953 -0.4111  2.1078 -0.4272
  124OSM    H3G13240   4.095   3.285   7.034  3.3739  0.1148  0.8799
  124OSM    C4F13241   4.175   3.433   7.163  0.3070 -0.3750  0.2405
  124OSM    H4F13242   4.212   3.537   7.150 -0.1258 -0.1041  1.0906
  124OSM    H4G13243   4.265   3.373   7.186  1.1171  1.2982  1.7545
  124OSM    C5F13244   4.086   3.424   7.290  0.3830  0.1983 -1.0636
  124OSM    H5F13245   4.020   3.336   7.274  2.6098 -1.8076  0.1454
  124OSM    H5G13246   4.022   3.515   7.285  1.0161  0.6716 -0.7414
  124OSM    C6F13247   4.157   3.392   7.429  0.4744  0.3381  0.5239
  124OSM    H6F13248   4.229   3.308   7.421  1.2240  0.9625  0.5422
  124OSM    H6G13249   4.086   3.346   7.501 -0.7813 -1.3838 -1.6767
  124OSM    C7F13250   4.223   3.507   7.507  0.1406 -0.6079 -0.4319
  124OSM    H7F13251   4.279   3.568   7.433 -0.7950  0.0956 -0.5646
  124OSM    H7G13252   4.290   3.459   7.582 -1.6146  0.2371  1.7968
  124OSM    C8F13253   4.117   3.603   7.565  0.1030  0.2839 -0.2555
  124OSM    H8F13254   4.026   3.542   7.586 -1.1840  1.3504 -2.4294
  124OSM    H8G13255   4.101   3.682   7.488  0.2004  1.0018  0.4498
  124OSM    C9F13256   4.170   3.651   7.697 -0.1236 -0.2842  0.0717
  124OSM    H9F13257   4.174   3.761   7.702  0.8154 -0.3588  1.3751
  124OSM   C10F13258   4.183   3.589   7.816 -1.0394 -0.0029 -0.2832
  124OSM   H10F13259   4.216   3.647   7.904  0.4529 -1.5543  0.2513
  124OSM   C11F13260   4.160   3.442   7.843 -0.2582  0.1015  0.4512
  124OSM   H11F13261   4.162   3.374   7.756 -1.3832 -0.4097  0.8034
  124OSM   H11G13262   4.053   3.435   7.873 -0.3235 -0.3132  0.1321
  124OSM   C12F13263   4.250   3.378   7.951  0.3392 -0.1436  0.1088
  124OSM   H12F13264   4.347   3.433   7.946 -0.4226  1.1755 -0.4837
  124OSM   H12G13265   4.261   3.268   7.940  3.2742 -0.1088  1.6021
  124OSM   C13F13266   4.201   3.389   8.094 -0.3056  0.3379  0.8771
  124OSM   H13F13267   4.127   3.309   8.114 -1.2917  1.4934  2.0080
  124OSM   H13G13268   4.147   3.486   8.105 -0.4936  0.1539  1.6605
  124OSM   C14F13269   4.319   3.376   8.196  0.1298 -0.0985 -0.2248
  124OSM   H14F13270   4.389   3.458   8.168  0.2636  0.4526  1.6021
  124OSM   H14G13271   4.373   3.281   8.179 -0.0434 -0.1109 -0.7307
  124OSM   C15F13272   4.275   3.366   8.343 -0.6609 -0.3091  0.4415
  124OSM   H15F13273   4.181   3.306   8.349  0.0391 -1.5935 -1.0198
  124OSM   H15G13274   4.255   3.472   8.372  0.7626  0.8060 -2.3700
  124OSM   C16F13275   4.391   3.313   8.432 -0.1294 -0.1691  0.2516
  124OSM   H16F13276   4.371   3.361   8.531  0.1421 -0.8547  0.6456
  124OSM   H16G13277   4.491   3.351   8.401 -0.2610  0.7361  0.8795
  124OSM   C17F13278   4.405   3.158   8.462  0.5137  0.2845 -0.2755
  124OSM   H17F13279   4.422   3.114   8.361 -0.3220 -0.6451 -0.0280
  124OSM   H17G13280   4.311   3.121   8.508 -0.8682 -0.4932 -3.4702
  124OSM   C18F13281   4.524   3.122   8.552  0.2049  0.5836  0.6178
  124OSM   H18F13282   4.530   3.188   8.641  1.4071  0.3779  0.6962
  124OSM   H18G13283   4.619   3.131   8.495 -0.3146 -0.2004 -0.4030
  124OSM   H18H13284   4.500   3.018   8.583 -1.7566  0.5849 -0.7165
  125OSM      N13285   1.573   3.959   6.171 -0.0570  0.2198 -0.2429
  125OSM    C1513286   1.656   3.958   6.293  0.3127 -0.3039 -0.5268
  125OSM   H15A13287   1.615   4.026   6.366 -0.3528 -1.8038  0.5477
  125OSM   H15B13288   1.755   3.985   6.258  0.0526  0.0188 -1.0128
  125OSM   H15C13289   1.674   3.867   6.348  3.1763  1.6444  2.0980
  125OSM    C1413290   1.586   4.088   6.106 -0.0377 -0.5617  0.0122
  125OSM   H14A13291   1.688   4.089   6.070  0.6478 -0.3608  1.8442
  125OSM   H14B13292   1.570   4.166   6.179  2.2197 -0.1446  0.1503
  125OSM   H14C13293   1.519   4.111   6.025  1.2783  3.1463 -0.2355
  125OSM    C1313294   1.621   3.848   6.085 -0.1454 -0.3412 -0.3651
  125OSM   H13A13295   1.661   3.760   6.132 -0.6620  0.8052  2.3742
  125OSM   H13B13296   1.692   3.883   6.012  1.4904 -2.9630 -0.1651
  125OSM   H13C13297   1.539   3.805   6.029 -0.0931  0.4500 -1.0651
  125OSM    C1213298   1.422   3.933   6.209 -0.6018 -1.0685 -0.6287
  125OSM   H12A13299   1.409   3.840   6.263 -1.6995  0.2759  1.5504
  125OSM   H12B13300   1.357   3.941   6.123 -0.4872  2.3420 -0.5230
  125OSM    C1113301   1.367   4.034   6.310  0.5925  0.4012  0.0228
  125OSM   H11A13302   1.432   4.016   6.398  0.1994  1.1128  0.4727
  125OSM   H11B13303   1.266   3.998   6.338  1.8148 -3.7431 -0.2043
  125OSM      P13304   1.239   4.235   6.195 -0.1189 -0.2971  0.0951
  125OSM    O1313305   1.277   4.355   6.114  0.0887  0.3257  0.7675
  125OSM    O1413306   1.171   4.127   6.118  0.1314  0.6868 -0.2187
  125OSM    O1113307   1.145   4.285   6.302  0.3798  0.9418  0.2914
  125OSM    O1213308   1.364   4.171   6.265 -0.4465 -0.4077  0.2776
  125OSM    C1S13309   1.068   4.186   6.379  0.1463 -0.4924  0.2122
  125OSM    H1S13310   1.072   4.083   6.340 -1.9171 -0.3712 -0.4677
  125OSM    H1T13311   0.964   4.224   6.366  0.7975  0.6525 -2.2884
  125OSM     NF13312   1.012   4.100   6.612 -0.4721  0.5145  0.4906
  125OSM    HNF13313   0.936   4.140   6.663  0.2485  1.7899  0.6078
  125OSM    C2S13314   1.100   4.196   6.537  0.4437 -0.0586 -0.2779
  125OSM    H2S13315   1.208   4.168   6.544  1.5215  3.4973 -0.6531
  125OSM    C3S13316   1.080   4.342   6.581 -0.6785  0.4739  0.0142
  125OSM    H3S13317   0.972   4.369   6.578 -1.0067 -0.2505  2.7382
  125OSM     O313318   1.143   4.443   6.498 -0.0285  0.8297 -0.3695
  125OSM    HO313319   1.175   4.391   6.424  0.5666 -1.4458  1.4097
  125OSM    C4S13320   1.117   4.344   6.726  0.3323  0.2207  0.7429
  125OSM    H4S13321   1.034   4.345   6.798  1.6188  0.8247  2.2965
  125OSM    C5S13322   1.239   4.363   6.777  0.8260 -0.0917  0.1276
  125OSM    H5S13323   1.323   4.368   6.705  0.4157 -2.0245 -0.5285
  125OSM    C6S13324   1.278   4.384   6.920 -0.1224  0.0716  0.7914
  125OSM    H6S13325   1.377   4.431   6.936 -0.1329  0.2707  0.2662
  125OSM    H6T13326   1.284   4.278   6.955  0.6617 -0.7934 -1.7680
  125OSM    C7S13327   1.171   4.459   6.995 -0.0672  0.0906  0.1379
  125OSM    H7S13328   1.070   4.415   6.983  0.2151 -0.2504 -1.2336
  125OSM    H7T13329   1.162   4.567   6.968  0.9758  0.9221  2.8215
  125OSM    C8S13330   1.205   4.479   7.146  0.1762 -0.7245 -0.1611
  125OSM    H8S13331   1.121   4.544   7.178  1.5494  1.4518 -0.7635
  125OSM    H8T13332   1.297   4.540   7.160  1.4399 -2.4116 -0.7068
  125OSM    C9S13333   1.213   4.346   7.218  0.0405 -0.2683 -0.7189
  125OSM    H9S13334   1.313   4.300   7.211 -0.2868 -1.1139 -0.0657
  125OSM    H9T13335   1.131   4.286   7.173 -0.6592  1.8427 -2.4160
  125OSM   C10S13336   1.205   4.354   7.368  0.8930  0.0982 -0.4572
  125OSM   H10S13337   1.218   4.257   7.422  1.2301  0.9234  0.9900
  125OSM   H10T13338   1.107   4.393   7.403  0.4254 -1.7815  0.5018
  125OSM   C11S13339   1.316   4.452   7.419 -0.4102 -0.2617  0.4011
  125OSM   H11S13340   1.288   4.555   7.388  0.4778  0.2802  1.3467
  125OSM   H11T13341   1.405   4.423   7.360 -0.5525  0.5093 -0.2049
  125OSM   C12S13342   1.343   4.448   7.569  0.7657  0.5152 -0.0456
  125OSM   H12S13343   1.333   4.341   7.595 -1.2334  0.5783 -0.3328
  125OSM   H12T13344   1.262   4.498   7.626 -0.0905 -0.8839 -0.0030
  125OSM   C13S13345   1.479   4.511   7.612 -0.0622  0.0227 -0.4360
  125OSM   H13S13346   1.461   4.620   7.624  1.1026  0.1391  0.3154
  125OSM   H13T13347   1.557   4.479   7.540  1.5225 -1.3570  1.7729
  125OSM   C14S13348   1.544   4.454   7.740 -0.4225  0.2764  0.1879
  125OSM   H14S13349   1.645   4.495   7.762  0.1658 -0.9443 -0.2094
  125OSM   H14T13350   1.556   4.344   7.730 -0.7007  0.2222  0.4483
  125OSM   C15S13351   1.448   4.469   7.856  0.1387  0.3951 -0.0505
  125OSM   H15S13352   1.350   4.428   7.824  0.1000  0.3500  0.1273
  125OSM   H15T13353   1.436   4.577   7.879  1.3772  1.3227 -3.2641
  125OSM   C16S13354   1.508   4.405   7.983  0.4760  0.6770 -0.1285
  125OSM   H16S13355   1.604   4.450   8.016 -0.0466  0.7181  1.3868
  125OSM   H16T13356   1.536   4.300   7.960  0.3607  0.1538  1.9630
  125OSM   C17S13357   1.415   4.426   8.106 -1.1826 -0.9699  0.3906
  125OSM   H17S13358   1.313   4.382   8.103 -2.0940  0.9251  1.5331
  125OSM   H17T13359   1.394   4.536   8.107  1.1366 -0.4307  3.5902
  125OSM   C18S13360   1.493   4.397   8.231  0.2106 -0.0632 -0.2150
  125OSM   H18S13361   1.529   4.292   8.236  2.8383  0.7776 -0.1036
  125OSM   H18T13362   1.440   4.417   8.326  0.0270  0.0301 -0.3342
  125OSM   H18U13363   1.578   4.466   8.245 -1.1261  1.1835  2.4120
  125OSM    C1F13364   1.028   3.969   6.606  0.1453  0.1118 -0.6245
  125OSM     OF13365   1.111   3.920   6.535  0.3085 -0.6221  0.6706
  125OSM    C2F13366   0.937   3.888   6.694  0.3297  0.2055 -0.4049
  125OSM    H2F13367   0.909   3.806   6.625  1.0198 -0.3108 -0.0864
  125OSM    H2G13368   0.844   3.939   6.727  0.3230 -0.2256  0.2359
  125OSM    C3F13369   1.014   3.834   6.819 -0.6006 -0.5269  0.5904
  125OSM    H3F13370   1.104   3.776   6.793 -0.4280 -1.0739  2.3318
  125OSM    H3G13371   0.949   3.765   6.877  0.4333 -0.9187  1.3006
  125OSM    C4F13372   1.065   3.947   6.914 -0.5391  0.4867 -0.0943
  125OSM    H4F13373   0.973   3.999   6.949  0.5741  1.5229  1.3883
  125OSM    H4G13374   1.137   4.016   6.864  2.0841 -1.1199  1.2503
  125OSM    C5F13375   1.142   3.892   7.041 -0.8526 -0.3826 -0.6583
  125OSM    H5F13376   1.094   3.804   7.092 -0.4887  0.0378  0.4423
  125OSM    H5G13377   1.149   3.968   7.121 -1.8372  0.2268 -1.1296
  125OSM    C6F13378   1.287   3.863   6.999  0.0723 -0.3751  0.0819
  125OSM    H6F13379   1.326   3.961   6.967 -1.7104  0.9849  1.8494
  125OSM    H6G13380   1.282   3.796   6.911 -0.8443  0.1562 -0.2776
  125OSM    C7F13381   1.369   3.804   7.110  0.5404  0.1647 -0.2115
  125OSM    H7F13382   1.446   3.740   7.062  0.5299  0.0247 -0.0414
  125OSM    H7G13383   1.299   3.741   7.169  1.0300 -0.3359 -0.1549
  125OSM    C8F13384   1.430   3.905   7.199  0.0440  0.1347 -0.0683
  125OSM    H8F13385   1.348   3.959   7.251 -1.1087 -1.3906 -0.2223
  125OSM    H8G13386   1.484   3.973   7.130 -1.5449  0.3434 -1.1726
  125OSM    C9F13387   1.525   3.847   7.303 -0.0782 -0.1487  0.6748
  125OSM    H9F13388   1.609   3.789   7.262  0.4790  0.4228  0.9890
  125OSM   C10F13389   1.509   3.858   7.432  0.1725  0.8129 -0.4850
  125OSM   H10F13390   1.597   3.834   7.494  0.1678 -2.3089 -1.5430
  125OSM   C11F13391   1.394   3.928   7.506  0.2042  0.4046 -0.1128
  125OSM   H11F13392   1.329   3.847   7.548 -0.7950  0.5071 -1.3917
  125OSM   H11G13393   1.328   3.997   7.449 -0.2745  1.5953  1.7986
  125OSM   C12F13394   1.461   4.025   7.606 -1.0145  0.8650  0.3598
  125OSM   H12F13395   1.377   4.091   7.637 -0.7121  2.0424 -1.2502
  125OSM   H12G13396   1.540   4.078   7.549 -1.5179 -1.5497 -2.8559
  125OSM   C13F13397   1.527   3.949   7.731  0.3452 -0.4796 -0.3094
  125OSM   H13F13398   1.618   3.900   7.691  0.9389  0.1858  0.1950
  125OSM   H13G13399   1.457   3.868   7.758  0.8793 -0.8557 -0.0348
  125OSM   C14F13400   1.545   4.045   7.847  0.2959 -0.2577  0.1425
  125OSM   H14F13401   1.448   4.081   7.886 -0.2305 -0.1982 -1.1645
  125OSM   H14G13402   1.598   4.136   7.812 -1.9068  0.6944 -0.8837
  125OSM   C15F13403   1.622   3.977   7.964 -0.3537  0.4668 -0.1802
  125OSM   H15F13404   1.560   3.909   8.027  0.8388  0.3617  0.9177
  125OSM   H15G13405   1.640   4.052   8.043  1.1679 -0.8155  0.7493
  125OSM   C16F13406   1.764   3.910   7.922  0.3920 -0.4777  0.3091
  125OSM   H16F13407   1.826   3.990   7.877  0.1203 -0.0971  0.6055
  125OSM   H16G13408   1.752   3.834   7.841  1.8990 -0.0320 -0.3784
  125OSM   C17F13409   1.834   3.846   8.041 -0.4733  0.2394 -0.0649
  125OSM   H17F13410   1.912   3.778   8.002 -0.9028 -0.4839  0.3163
  125OSM   H17G13411   1.753   3.786   8.087 -2.3972  1.8934 -1.1110
  125OSM   C18F13412   1.894   3.936   8.146  0.6757 -1.2551  0.0237
  125OSM   H18F13413   1.808   3.980   8.201  2.4584  2.9475 -0.1189
  125OSM   H18G13414   1.947   4.021   8.098 -1.0051 -0.3797 -0.3752
  125OSM   H18H13415   1.958   3.885   8.221  1.0304  2.3244  2.4153
  126OSM      N13416   6.186   5.886   6.134  0.1076 -0.0459  0.4912
  126OSM    C1513417   6.038   5.853   6.134  0.5207 -0.6642  0.2942
  126OSM   H15A13418   6.018   5.782   6.213  1.6879 -0.1464  1.0931
  126OSM   H15B13419   6.016   5.806   6.040  4.0368  0.6684 -1.3693
  126OSM   H15C13420   5.979   5.941   6.157 -0.4827 -1.2720  0.0707
  126OSM    C1413421   6.265   5.757   6.149 -0.3115  0.2048 -0.5361
  126OSM   H14A13422   6.371   5.775   6.150 -0.1391 -0.6610 -1.7236
  126OSM   H14B13423   6.240   5.687   6.071 -3.2516  3.7654 -3.1240
  126OSM   H14C13424   6.236   5.716   6.245 -0.0903  0.5490 -0.3231
  126OSM    C1313425   6.219   5.948   6.004 -0.4088  0.5215  0.2732
  126OSM   H13A13426   6.314   5.999   6.006 -0.1717  0.2165 -1.3750
  126OSM   H13B13427   6.147   6.020   5.968  0.2442  1.0537  0.0134
  126OSM   H13C13428   6.242   5.869   5.933 -1.0834 -0.5427  1.1944
  126OSM    C1213429   6.237   5.984   6.237 -0.3385  1.4158 -0.0300
  126OSM   H12A13430   6.188   6.078   6.218 -2.3560  0.9635  2.3638
  126OSM   H12B13431   6.344   5.979   6.225 -0.6283 -1.5643 -2.8246
  126OSM    C1113432   6.213   5.951   6.394  0.5231 -0.2133  0.0653
  126OSM   H11A13433   6.103   5.945   6.412  0.8249 -1.5143  1.6501
  126OSM   H11B13434   6.255   6.037   6.449  1.5714  0.0570 -1.1267
  126OSM      P13435   6.415   5.830   6.489  0.2031  0.0514  0.2040
  126OSM    O1313436   6.461   5.695   6.530  0.3304  0.0926 -0.0327
  126OSM    O1413437   6.487   5.898   6.375 -0.2715 -0.1374  0.0829
  126OSM    O1113438   6.426   5.926   6.616  0.0500  0.0229 -0.2237
  126OSM    O1213439   6.259   5.829   6.449  0.0724  0.3452 -0.3061
  126OSM    C1S13440   6.325   5.919   6.717  0.3787  0.4911  0.9837
  126OSM    H1S13441   6.264   5.827   6.705 -0.8205  1.1535  1.8609
  126OSM    H1T13442   6.259   6.005   6.695  0.4803  1.2201  3.2710
  126OSM     NF13443   6.278   5.902   6.956  0.2729 -1.0016  0.2356
  126OSM    HNF13444   6.246   5.974   7.017  1.6188  0.6548 -0.9218
  126OSM    C2S13445   6.379   5.934   6.862  0.2125  0.0837  0.6303
  126OSM    H2S13446   6.463   5.863   6.874  0.0801 -0.2672 -0.3910
  126OSM    C3S13447   6.437   6.077   6.874  0.0814  0.5195 -0.1989
  126OSM    H3S13448   6.360   6.157   6.866  1.4607  1.7735 -1.5353
  126OSM     O313449   6.534   6.101   6.775 -0.0396 -0.2686 -0.2440
  126OSM    HO313450   6.525   6.039   6.703 -1.1841  0.9715 -1.2371
  126OSM    C4S13451   6.512   6.093   7.005 -0.6718  0.2710  0.3924
  126OSM    H4S13452   6.461   6.132   7.095  0.0503  0.3048  0.7905
  126OSM    C5S13453   6.645   6.080   7.020  0.2620 -0.4912  0.1304
  126OSM    H5S13454   6.699   6.049   6.929 -0.0442  1.6732 -0.8587
  126OSM    C6S13455   6.730   6.102   7.146  0.3084 -0.7072 -0.3126
  126OSM    H6S13456   6.813   6.170   7.118 -0.1672  0.3352  0.7152
  126OSM    H6T13457   6.768   6.002   7.173 -0.7794 -0.7559  1.1682
  126OSM    C7S13458   6.658   6.160   7.274 -0.0774 -0.1845  0.1954
  126OSM    H7S13459   6.576   6.086   7.284  1.1578 -2.0059 -2.1482
  126OSM    H7T13460   6.616   6.262   7.266  1.0532  0.2581 -0.2677
  126OSM    C8S13461   6.756   6.167   7.391  0.6520 -0.1980 -0.5678
  126OSM    H8S13462   6.830   6.243   7.360 -0.9741  0.4511 -3.1372
  126OSM    H8T13463   6.815   6.075   7.412  0.5511  0.0482  0.9106
  126OSM    C9S13464   6.687   6.217   7.517 -0.1688 -0.0573  0.3263
  126OSM    H9S13465   6.611   6.141   7.544  1.1183 -0.4495  3.2760
  126OSM    H9T13466   6.640   6.316   7.502  0.8795  0.3084 -0.6584
  126OSM   C10S13467   6.762   6.223   7.644 -0.1863 -0.4585 -0.4633
  126OSM   H10S13468   6.821   6.131   7.666 -1.9228 -1.4606  0.2184
  126OSM   H10T13469   6.699   6.239   7.734  2.3491 -2.8108  1.9437
  126OSM   C11S13470   6.859   6.350   7.634  0.4736 -0.1633  0.4034
  126OSM   H11S13471   6.807   6.437   7.588 -0.1594 -0.5955  0.2866
  126OSM   H11T13472   6.930   6.316   7.556  0.8100 -2.1298  1.5184
  126OSM   C12S13473   6.925   6.399   7.765  0.4029 -0.4657  0.1562
  126OSM   H12S13474   7.012   6.333   7.782  2.2510  1.5115 -1.0561
  126OSM   H12T13475   6.851   6.390   7.848  1.0717 -2.2244  0.5998
  126OSM   C13S13476   6.989   6.546   7.753  0.0121  0.1101  0.5148
  126OSM   H13S13477   6.920   6.619   7.707  0.2696 -0.1998 -0.3873
  126OSM   H13T13478   7.070   6.551   7.676  0.3818  0.4874  0.9225
  126OSM   C14S13479   7.040   6.599   7.887  1.0988  0.0472  0.4515
  126OSM   H14S13480   7.136   6.557   7.924  0.5321 -1.3063  0.4070
  126OSM   H14T13481   6.964   6.587   7.967 -0.8422  0.7997 -1.1989
  126OSM   C15S13482   7.067   6.752   7.887 -0.2870 -0.8840 -0.8795
  126OSM   H15S13483   6.996   6.798   7.816  0.9164  1.1311 -0.8741
  126OSM   H15T13484   7.170   6.765   7.848 -0.1280  1.5436  0.1550
  126OSM   C16S13485   7.051   6.831   8.025 -0.4530  0.8230  0.2903
  126OSM   H16S13486   6.949   6.808   8.063 -0.7689  1.1658 -0.3273
  126OSM   H16T13487   7.057   6.936   7.988 -0.2802  0.0632 -1.9664
  126OSM   C17S13488   7.151   6.794   8.134 -0.0002 -0.5430 -0.3609
  126OSM   H17S13489   7.247   6.832   8.095  0.4101 -1.6644 -0.4889
  126OSM   H17T13490   7.158   6.684   8.148  1.2042 -0.2901  1.3394
  126OSM   C18S13491   7.131   6.865   8.269 -0.1803  0.2345 -0.4692
  126OSM   H18S13492   7.219   6.848   8.335 -0.0865 -1.0693 -0.9052
  126OSM   H18T13493   7.046   6.830   8.332  0.9663 -2.0233 -0.0724
  126OSM   H18U13494   7.128   6.976   8.261 -1.0993  0.5705  2.8332
  126OSM    C1F13495   6.221   5.779   6.965 -0.3674 -0.1370  0.6695
  126OSM     OF13496   6.257   5.687   6.887 -0.1218  0.4591 -0.3283
  126OSM    C2F13497   6.101   5.758   7.064  0.2931 -0.2906 -0.0465
  126OSM    H2F13498   6.003   5.780   7.017 -1.4788  0.3165  3.5882
  126OSM    H2G13499   6.111   5.839   7.140  0.0925 -0.7543  0.4858
  126OSM    C3F13500   6.105   5.623   7.133 -0.0908  0.1397  0.2602
  126OSM    H3F13501   6.186   5.632   7.209 -0.1659 -1.5082  0.5686
  126OSM    H3G13502   6.132   5.534   7.072  0.2422  0.9242 -0.7709
  126OSM    C4F13503   5.971   5.604   7.209 -0.4802 -0.2686  0.7037
  126OSM    H4F13504   5.974   5.506   7.260  3.0817 -1.2108 -1.0418
  126OSM    H4G13505   5.885   5.600   7.138  1.6954  1.7292 -2.3036
  126OSM    C5F13506   5.938   5.717   7.315 -0.7248  0.0788  0.2520
  126OSM    H5F13507   5.892   5.799   7.256 -0.9361 -0.9353 -1.0391
  126OSM    H5G13508   6.028   5.753   7.369  0.7108  1.7821 -3.0212
  126OSM    C6F13509   5.839   5.675   7.429  0.5612 -0.3181  0.5101
  126OSM    H6F13510   5.760   5.615   7.379  1.1429 -0.2885 -0.4641
  126OSM    H6G13511   5.798   5.769   7.473  2.8615 -0.0768  2.3456
  126OSM    C7F13512   5.909   5.592   7.545 -0.1715 -0.4013 -0.2716
  126OSM    H7F13513   6.011   5.564   7.512  0.1062  0.3099 -0.0367
  126OSM    H7G13514   5.847   5.502   7.567 -1.5981 -0.1327 -2.7803
  126OSM    C8F13515   5.920   5.675   7.676  0.1569 -0.2086 -0.3765
  126OSM    H8F13516   5.815   5.705   7.696 -0.0414 -1.5773  0.8083
  126OSM    H8G13517   5.968   5.772   7.652 -2.2807  0.9257 -1.0080
  126OSM    C9F13518   5.992   5.598   7.777 -0.2201  0.1470  0.0182
  126OSM    H9F13519   6.063   5.526   7.734 -1.4876 -1.4584  0.5318
  126OSM   C10F13520   5.971   5.608   7.912  0.0310  0.1110  0.2862
  126OSM   H10F13521   6.018   5.540   7.984  0.2192 -0.4146 -0.3185
  126OSM   C11F13522   5.876   5.701   7.983 -0.5298 -0.0909  0.6408
  126OSM   H11F13523   5.780   5.646   7.990 -0.4868 -0.6604 -2.1224
  126OSM   H11G13524   5.860   5.793   7.923  2.4981  2.1135  2.8904
  126OSM   C12F13525   5.914   5.731   8.132  0.2686 -0.3915  0.6121
  126OSM   H12F13526   5.954   5.641   8.184 -2.7892 -1.0368  2.1127
  126OSM   H12G13527   5.820   5.739   8.192  0.2810 -4.4303  1.4457
  126OSM   C13F13528   6.007   5.848   8.150 -0.6940  0.3293 -0.7491
  126OSM   H13F13529   5.977   5.931   8.081  0.8362 -0.0873 -1.9920
  126OSM   H13G13530   6.110   5.818   8.121 -0.8007 -2.6822  1.5648
  126OSM   C14F13531   6.013   5.912   8.286  0.2240  0.4575 -0.1727
  126OSM   H14F13532   6.056   5.834   8.353  0.5854  0.5719 -0.2659
  126OSM   H14G13533   5.911   5.929   8.326  0.7289  0.0847  1.3817
  126OSM   C15F13534   6.121   6.017   8.299 -0.0063 -0.6374  0.5470
  126OSM   H15F13535   6.106   6.101   8.228 -0.0383 -0.4305  0.7937
  126OSM   H15G13536   6.217   5.971   8.266 -0.3223 -0.6856 -0.3219
  126OSM   C16F13537   6.130   6.076   8.444  0.4703  0.1469 -0.9228
  126OSM   H16F13538   6.094   5.994   8.509  1.8867  0.0261 -0.2480
  126OSM   H16G13539   6.061   6.163   8.447  1.1181  0.6318  0.7767
  126OSM   C17F13540   6.272   6.118   8.483  0.2282  0.9295 -0.0801
  126OSM   H17F13541   6.261   6.208   8.547 -2.8536  0.7654 -0.2345
  126OSM   H17G13542   6.328   6.133   8.388  1.2430  1.0415  0.5182
  126OSM   C18F13543   6.355   6.011   8.555  0.0102 -0.4741 -0.2606
  126OSM   H18F13544   6.415   5.948   8.486 -0.5109 -2.1888  0.8081
  126OSM   H18G13545   6.297   5.935   8.611  2.1344  0.2479  3.1964
  126OSM   H18H13546   6.421   6.061   8.628 -1.6654  0.6555  0.5515
  127OSM      N13547   3.071   2.158   5.961 -0.1106 -0.3576 -0.3187
  127OSM    C1513548   2.994   2.264   5.879 -0.3411  0.0784  0.8897
  127OSM   H15A13549   3.041   2.359   5.901 -0.9590  0.1724  1.8626
  127OSM   H15B13550   2.892   2.275   5.912 -0.6482  0.0136 -0.0215
  127OSM   H15C13551   3.003   2.251   5.772 -1.9287  4.0387  0.1127
  127OSM    C1413552   3.007   2.027   5.933 -0.1631 -0.1521 -0.3186
  127OSM   H14A13553   3.045   1.951   5.999  0.9456  0.0648 -0.6782
  127OSM   H14B13554   3.045   1.992   5.838 -1.8210 -0.4626 -0.8962
  127OSM   H14C13555   2.901   2.045   5.932 -0.1568  0.1958  1.7566
  127OSM    C1313556   3.208   2.154   5.909 -0.5437  0.3162  0.3305
  127OSM   H13A13557   3.278   2.090   5.960  0.5329  1.7183  0.6905
  127OSM   H13B13558   3.260   2.247   5.924 -0.2296  0.2432 -0.2606
  127OSM   H13C13559   3.202   2.132   5.803 -2.9298 -0.8687  0.6558
  127OSM    C1213560   3.070   2.193   6.108 -0.3560  0.1806  0.0746
  127OSM   H12A13561   2.967   2.195   6.137  0.1435 -0.3028  2.0451
  127OSM   H12B13562   3.094   2.298   6.120 -0.0506  0.0457  0.6693
  127OSM    C1113563   3.158   2.099   6.199 -0.8715 -0.3676 -0.0326
  127OSM   H11A13564   3.150   2.142   6.301 -0.7651 -0.3514 -0.0310
  127OSM   H11B13565   3.265   2.104   6.169 -0.5281 -1.1580  1.0020
  127OSM      P13566   3.014   1.888   6.312 -0.0093 -0.0077  0.2069
  127OSM    O1313567   2.870   1.931   6.312  0.1307 -0.4781 -0.5109
  127OSM    O1413568   3.030   1.746   6.283  0.0553  0.3792  0.4617
  127OSM    O1113569   3.067   1.921   6.454 -0.2991 -0.3761  0.0061
  127OSM    O1213570   3.105   1.966   6.208  0.1737 -0.3424  0.5148
  127OSM    C1S13571   3.202   1.940   6.487 -0.0926  0.0772 -0.3461
  127OSM    H1S13572   3.236   2.043   6.460  0.6032  0.0511  0.3871
  127OSM    H1T13573   3.271   1.868   6.437  0.9248  0.9051 -0.1866
  127OSM     NF13574   3.357   1.982   6.675 -0.0225  0.5373 -0.3592
  127OSM    HNF13575   3.428   1.911   6.678 -0.7307 -0.1579  0.3884
  127OSM    C2S13576   3.225   1.923   6.640 -0.7175  0.3385 -0.3718
  127OSM    H2S13577   3.149   1.983   6.694 -0.7824  1.4587 -1.6670
  127OSM    C3S13578   3.210   1.774   6.679  0.6167 -0.0553 -0.0620
  127OSM    H3S13579   3.291   1.719   6.628  0.1377 -1.1064  0.2688
  127OSM     O313580   3.087   1.719   6.625  0.2364  0.0718  0.1479
  127OSM    HO313581   3.055   1.791   6.570  1.4797 -0.0620 -0.7993
  127OSM    C4S13582   3.232   1.759   6.823  0.1812  0.3750  0.0341
  127OSM    H4S13583   3.336   1.771   6.855 -0.2507  0.4061  1.5218
  127OSM    C5S13584   3.151   1.727   6.922  0.6032 -0.8548  0.2055
  127OSM    H5S13585   3.044   1.710   6.906  0.0397  2.1035  0.2581
  127OSM    C6S13586   3.189   1.704   7.069 -0.1439 -0.6223 -0.2035
  127OSM    H6S13587   3.211   1.597   7.085  2.1021 -0.1819  0.0305
  127OSM    H6T13588   3.108   1.731   7.139  0.4812 -0.1797  0.3585
  127OSM    C7S13589   3.317   1.783   7.121  0.4012 -0.2768 -0.0881
  127OSM    H7S13590   3.297   1.892   7.110 -0.9513 -0.4383  0.6527
  127OSM    H7T13591   3.396   1.763   7.045  1.1647  0.9719  0.3417
  127OSM    C8S13592   3.370   1.734   7.252 -0.8657 -0.4034 -0.0309
  127OSM    H8S13593   3.478   1.761   7.246 -1.0290  0.3175  0.1985
  127OSM    H8T13594   3.365   1.623   7.257  1.5179 -0.5597  0.0423
  127OSM    C9S13595   3.316   1.799   7.376  0.3979 -0.0003  0.8912
  127OSM    H9S13596   3.209   1.767   7.380  0.2133  0.2666 -0.9751
  127OSM    H9T13597   3.325   1.909   7.371  1.2401 -0.1173 -1.0974
  127OSM   C10S13598   3.377   1.747   7.505 -0.2214  0.0365 -0.0960
  127OSM   H10S13599   3.401   1.639   7.496 -0.2361  0.0355 -0.1231
  127OSM   H10T13600   3.299   1.757   7.582 -0.3295 -1.3504  0.0021
  127OSM   C11S13601   3.513   1.808   7.542 -0.2651  0.1795 -0.1526
  127OSM   H11S13602   3.499   1.918   7.552 -2.5377  0.2221 -2.6997
  127OSM   H11T13603   3.585   1.792   7.459  2.1644  0.9153  1.6913
  127OSM   C12S13604   3.572   1.736   7.670  0.5930  0.3378  0.2586
  127OSM   H12S13605   3.680   1.751   7.646  0.4476 -0.0534 -0.7142
  127OSM   H12T13606   3.551   1.627   7.663  2.2951  0.0140 -0.3444
  127OSM   C13S13607   3.532   1.798   7.805 -0.4149  0.3519  0.3913
  127OSM   H13S13608   3.422   1.786   7.816 -0.4473  0.3288  0.0538
  127OSM   H13T13609   3.542   1.908   7.792  0.4147  0.1195 -1.1713
  127OSM   C14S13610   3.603   1.751   7.926  0.0227 -0.4943 -0.7082
  127OSM   H14S13611   3.713   1.760   7.918  0.1384 -0.9861  0.1741
  127OSM   H14T13612   3.588   1.641   7.929 -1.2335 -0.3488  2.1037
  127OSM   C15S13613   3.551   1.811   8.064 -0.2192 -0.5647 -0.3353
  127OSM   H15S13614   3.441   1.820   8.072 -0.1736 -0.9271  0.8442
  127OSM   H15T13615   3.594   1.913   8.073 -1.3166 -0.0550 -0.6901
  127OSM   C16S13616   3.608   1.747   8.196 -0.4918 -0.9083  0.6019
  127OSM   H16S13617   3.714   1.725   8.172 -0.6566  0.6051 -1.9356
  127OSM   H16T13618   3.570   1.645   8.217 -0.3284 -1.0320  0.3028
  127OSM   C17S13619   3.599   1.846   8.328  0.1661  0.0803  0.8881
  127OSM   H17S13620   3.491   1.862   8.348  0.3369  0.1199  1.8219
  127OSM   H17T13621   3.641   1.945   8.301 -0.0088 -0.1301 -0.2125
  127OSM   C18S13622   3.671   1.794   8.451 -0.0070  0.2304 -0.6040
  127OSM   H18S13623   3.697   1.880   8.515 -2.1649  1.2920 -1.0668
  127OSM   H18T13624   3.767   1.754   8.409  0.4050  2.6419 -2.1518
  127OSM   H18U13625   3.625   1.715   8.513  1.7623 -0.8270 -0.5596
  127OSM    C1F13626   3.385   2.113   6.694 -0.0049 -0.1448 -0.9165
  127OSM     OF13627   3.290   2.190   6.676  0.0968 -0.4488  0.3028
  127OSM    C2F13628   3.528   2.152   6.742 -0.1184 -0.0911  0.5109
  127OSM    H2F13629   3.573   2.218   6.665  0.9910 -0.1909  1.0532
  127OSM    H2G13630   3.597   2.067   6.761  1.6536  0.8386 -1.3552
  127OSM    C3F13631   3.517   2.236   6.871  0.0462 -0.3459  0.5105
  127OSM    H3F13632   3.469   2.335   6.854  1.3656  0.0995 -0.9050
  127OSM    H3G13633   3.621   2.269   6.896  0.7696  0.3993 -2.9828
  127OSM    C4F13634   3.448   2.167   6.985  0.2249 -0.2607 -0.6790
  127OSM    H4F13635   3.493   2.066   6.997  0.0970 -0.2463 -0.0304
  127OSM    H4G13636   3.342   2.147   6.957 -0.6179  2.9691 -0.1086
  127OSM    C5F13637   3.462   2.253   7.116 -0.7345  0.1924  0.3365
  127OSM    H5F13638   3.419   2.354   7.098 -2.7526 -0.6169  0.3911
  127OSM    H5G13639   3.569   2.274   7.138 -0.1970  0.3278 -2.0851
  127OSM    C6F13640   3.387   2.185   7.225  0.0667  0.8854  0.5308
  127OSM    H6F13641   3.424   2.081   7.243 -0.0923  0.6576 -0.4325
  127OSM    H6G13642   3.285   2.180   7.183 -0.6883  3.5220  1.8509
  127OSM    C7F13643   3.394   2.261   7.361 -0.4236 -0.0463  0.2597
  127OSM    H7F13644   3.308   2.247   7.430  1.4313  1.2765  3.0034
  127OSM    H7G13645   3.395   2.371   7.345 -0.9031  0.0018  0.5295
  127OSM    C8F13646   3.524   2.230   7.444  0.1499  0.6545  0.2517
  127OSM    H8F13647   3.611   2.262   7.382 -0.0225  2.5790  0.9366
  127OSM    H8G13648   3.529   2.121   7.465 -2.4433  0.0771 -1.6137
  127OSM    C9F13649   3.541   2.307   7.569  0.0045 -0.4268 -0.6503
  127OSM    H9F13650   3.619   2.384   7.566  0.7514 -1.0316  1.5086
  127OSM   C10F13651   3.468   2.288   7.684  1.0564 -0.4869  0.7165
  127OSM   H10F13652   3.487   2.357   7.768 -0.4313 -0.8711  1.4010
  127OSM   C11F13653   3.353   2.198   7.710 -0.0862  0.1955  0.3489
  127OSM   H11F13654   3.394   2.112   7.766 -0.2399 -0.4631 -0.5391
  127OSM   H11G13655   3.321   2.144   7.618  0.4909  0.8014 -0.2209
  127OSM   C12F13656   3.230   2.257   7.772 -0.0913 -0.3999  0.5882
  127OSM   H12F13657   3.158   2.173   7.780 -0.0817 -0.4876 -0.1322
  127OSM   H12G13658   3.186   2.324   7.695 -1.0765 -0.7736  0.8046
  127OSM   C13F13659   3.258   2.326   7.911 -0.2044  0.5639  0.1037
  127OSM   H13F13660   3.162   2.358   7.956 -0.0231 -0.0842  0.9829
  127OSM   H13G13661   3.315   2.421   7.914  0.7650  0.0023  3.1076
  127OSM   C14F13662   3.332   2.233   8.007  0.1187 -0.8739  0.1619
  127OSM   H14F13663   3.437   2.219   7.973  0.0593 -0.9087 -0.0109
  127OSM   H14G13664   3.285   2.133   7.998  2.2501 -1.9194  0.0267
  127OSM   C15F13665   3.336   2.264   8.157  0.0136 -0.0311  0.3295
  127OSM   H15F13666   3.231   2.268   8.194 -0.3969  0.8543 -0.8820
  127OSM   H15G13667   3.362   2.372   8.163 -0.3257  0.0747 -0.0376
  127OSM   C16F13668   3.431   2.190   8.258  0.6821  0.2699 -0.2878
  127OSM   H16F13669   3.538   2.199   8.229  0.7165 -0.4459 -0.3982
  127OSM   H16G13670   3.408   2.082   8.255  0.1460  0.3032  1.5724
  127OSM   C17F13671   3.401   2.241   8.401 -0.2155 -0.0281 -0.2855
  127OSM   H17F13672   3.290   2.233   8.410 -0.4324  2.4288 -0.0148
  127OSM   H17G13673   3.422   2.349   8.414 -0.6778  0.4668 -3.1780
  127OSM   C18F13674   3.470   2.172   8.518  0.2484  0.1634 -0.0158
  127OSM   H18F13675   3.446   2.064   8.525  0.0444  0.1431 -0.9378
  127OSM   H18G13676   3.448   2.222   8.615 -1.1799  0.3973 -0.4498
  127OSM   H18H13677   3.579   2.176   8.497 -0.2270  0.4704 -2.7775
  128OSM      N13678   5.475   1.097   6.021  0.7696 -1.1880 -0.1039
  128OSM    C1513679   5.581   1.082   5.919  0.1512  0.0708  0.0812
  128OSM   H15A13680   5.623   0.983   5.930  1.3906  0.8134  3.1680
  128OSM   H15B13681   5.658   1.157   5.920  0.1961  0.0225  0.4317
  128OSM   H15C13682   5.535   1.080   5.822  2.1800  3.0354 -1.0480
  128OSM    C1413683   5.422   1.235   6.006 -0.2648  0.0345 -0.3783
  128OSM   H14A13684   5.425   1.269   5.904  1.4106  0.4997 -0.2143
  128OSM   H14B13685   5.472   1.308   6.068  1.1274 -0.3005 -1.0689
  128OSM   H14C13686   5.320   1.238   6.039  0.3449  0.2038  1.6569
  128OSM    C1313687   5.368   1.001   5.995  0.0826  0.4482 -0.6778
  128OSM   H13A13688   5.402   0.900   6.011 -0.9761  0.1952  0.0108
  128OSM   H13B13689   5.335   1.003   5.892  2.0479  2.0106 -1.3621
  128OSM   H13C13690   5.280   1.008   6.056  0.3881 -2.1138  0.1520
  128OSM    C1213691   5.538   1.076   6.165 -0.0170 -0.2509 -0.0563
  128OSM   H12A13692   5.581   0.976   6.171  1.6417  0.4450  0.2496
  128OSM   H12B13693   5.455   1.072   6.234  1.6295 -1.7843  1.9809
  128OSM    C1113694   5.639   1.184   6.215 -0.1656 -0.7132  0.7694
  128OSM   H11A13695   5.638   1.182   6.326  2.0841 -2.0569  0.8235
  128OSM   H11B13696   5.614   1.291   6.203 -0.0927 -0.8883 -1.2610
  128OSM      P13697   5.868   1.065   6.249 -0.4706 -0.1792  0.1779
  128OSM    O1313698   5.892   0.942   6.170 -0.0987 -0.0405  0.4005
  128OSM    O1413699   5.993   1.135   6.290 -0.3502  0.0856 -0.1963
  128OSM    O1113700   5.787   1.014   6.373 -0.1859  0.2081  0.2274
  128OSM    O1213701   5.768   1.161   6.168  0.1790 -0.6040  0.3350
  128OSM    C1S13702   5.809   0.882   6.429  0.2450 -0.7481 -0.6134
  128OSM    H1S13703   5.917   0.886   6.457 -0.1634 -0.6423  1.0226
  128OSM    H1T13704   5.793   0.796   6.360 -2.9749 -1.2403  0.5705
  128OSM     NF13705   5.745   0.738   6.623  0.0281 -0.5501 -0.2492
  128OSM    HNF13706   5.675   0.669   6.602  0.2690 -0.5696 -1.0335
  128OSM    C2S13707   5.724   0.867   6.559 -0.1510 -0.2145  0.3290
  128OSM    H2S13708   5.756   0.943   6.634 -2.4228  1.1341  0.0437
  128OSM    C3S13709   5.571   0.893   6.529  0.2799 -0.4678  0.0388
  128OSM    H3S13710   5.537   0.811   6.462 -0.0067 -0.5329  0.2584
  128OSM     O313711   5.546   1.014   6.459  0.5713 -0.4338 -0.4116
  128OSM    HO313712   5.637   1.031   6.437  0.6710 -0.7298 -0.2361
  128OSM    C4S13713   5.488   0.890   6.655  0.3621  0.3729 -0.4051
  128OSM    H4S13714   5.515   0.951   6.743  1.1753  0.9438 -1.0359
  128OSM    C5S13715   5.371   0.821   6.660  0.1322 -0.1116 -1.1705
  128OSM    H5S13716   5.316   0.779   6.575 -0.9079 -1.1535 -0.0147
  128OSM    C6S13717   5.282   0.819   6.777 -0.1609  0.2189 -0.2035
  128OSM    H6S13718   5.197   0.754   6.748  0.5624 -2.5950  3.2345
  128OSM    H6T13719   5.252   0.923   6.801  0.8006  1.0590 -2.4434
  128OSM    C7S13720   5.362   0.762   6.901 -0.1847  0.4085  0.3295
  128OSM    H7S13721   5.426   0.848   6.928  0.5192  0.2642 -0.7881
  128OSM    H7T13722   5.415   0.674   6.857 -1.1756 -0.0705  0.0734
  128OSM    C8S13723   5.264   0.702   7.007  0.5073 -0.1039 -0.0854
  128OSM    H8S13724   5.324   0.657   7.089  1.6483  1.1227 -0.2081
  128OSM    H8T13725   5.204   0.623   6.957  1.8187 -1.4454  0.4015
  128OSM    C9S13726   5.167   0.802   7.065  0.3921  0.3519  0.3296
  128OSM    H9S13727   5.091   0.738   7.115  0.4061  1.0047  1.2105
  128OSM    H9T13728   5.131   0.868   6.983  0.7850 -0.1035 -0.2127
  128OSM   C10S13729   5.214   0.891   7.180 -0.0442  0.5896  0.0544
  128OSM   H10S13730   5.292   0.962   7.145 -1.3878  1.4691 -1.2730
  128OSM   H10T13731   5.263   0.818   7.248 -1.0214 -3.5025 -3.2382
  128OSM   C11S13732   5.106   0.970   7.251 -1.4987 -0.3652 -0.3425
  128OSM   H11S13733   5.026   0.905   7.290 -1.7510  0.2500  0.1855
  128OSM   H11T13734   5.063   1.039   7.176  2.1658  2.3346 -0.2366
  128OSM   C12S13735   5.164   1.055   7.366  1.2927  0.5857 -0.0711
  128OSM   H12S13736   5.239   1.125   7.322  1.0481  2.6557  2.5478
  128OSM   H12T13737   5.202   0.992   7.450  0.1620  2.3917  1.8865
  128OSM   C13S13738   5.047   1.124   7.427  0.4841  0.2469  0.7941
  128OSM   H13S13739   4.985   1.044   7.473 -0.8718  1.4887  1.2031
  128OSM   H13T13740   4.986   1.166   7.345  0.5765 -0.3103  0.4339
  128OSM   C14S13741   5.078   1.235   7.529  1.0224 -0.7798 -0.1989
  128OSM   H14S13742   4.980   1.253   7.577 -0.4048  0.5102 -3.3063
  128OSM   H14T13743   5.106   1.322   7.466 -3.0172  2.2696  1.7845
  128OSM   C15S13744   5.176   1.201   7.632 -0.3100 -0.5321  0.0387
  128OSM   H15S13745   5.274   1.190   7.582 -0.3688  0.2828 -0.2617
  128OSM   H15T13746   5.157   1.112   7.697 -0.9762 -1.1695 -0.9983
  128OSM   C16S13747   5.193   1.319   7.724 -0.2248 -0.4800  0.5225
  128OSM   H16S13748   5.101   1.381   7.732  0.6433  1.0316 -0.7336
  128OSM   H16T13749   5.272   1.383   7.680 -0.2408  2.5409  4.2811
  128OSM   C17S13750   5.234   1.290   7.868 -0.1344  0.2151 -0.1863
  128OSM   H17S13751   5.144   1.254   7.921  0.5561  0.8105  1.4526
  128OSM   H17T13752   5.257   1.385   7.921 -1.4566  0.9477 -0.8812
  128OSM   C18S13753   5.345   1.190   7.902 -0.4668  0.0391  0.1838
  128OSM   H18S13754   5.318   1.087   7.873 -0.2392 -0.3170  1.1962
  128OSM   H18T13755   5.374   1.181   8.009  3.1602 -1.0540 -0.7764
  128OSM   H18U13756   5.434   1.222   7.844 -0.4911  0.6650  0.4794
  128OSM    C1F13757   5.865   0.707   6.674  0.0621 -0.3458 -0.0787
  128OSM     OF13758   5.959   0.781   6.673 -0.3032  0.3103 -0.4266
  128OSM    C2F13759   5.865   0.571   6.743 -0.1792 -0.2054  0.2697
  128OSM    H2F13760   5.845   0.494   6.666  0.8319 -0.0126 -0.2095
  128OSM    H2G13761   5.781   0.568   6.815  0.6405  0.9708  1.3101
  128OSM    C3F13762   5.987   0.532   6.823  0.1390 -0.4222 -0.9234
  128OSM    H3F13763   6.075   0.570   6.766 -1.7673  2.5457 -2.1315
  128OSM    H3G13764   5.985   0.423   6.843 -2.7418  0.0989  2.7243
  128OSM    C4F13765   5.988   0.599   6.967 -0.5286 -0.2085 -0.0325
  128OSM    H4F13766   6.004   0.709   6.955  0.3643 -0.3796 -0.4607
  128OSM    H4G13767   6.073   0.559   7.026 -0.3417  1.2267  0.7353
  128OSM    C5F13768   5.873   0.587   7.067 -0.2574  0.3749  0.6589
  128OSM    H5F13769   5.868   0.483   7.106  1.4838 -0.5735 -1.4323
  128OSM    H5G13770   5.785   0.613   7.005  0.3717 -0.2966 -0.5554
  128OSM    C6F13771   5.885   0.702   7.169  0.2939  0.0908 -0.4723
  128OSM    H6F13772   5.920   0.797   7.124 -1.1522  0.6527 -0.4425
  128OSM    H6G13773   5.970   0.677   7.236  0.8549 -0.0465 -1.2119
  128OSM    C7F13774   5.757   0.727   7.245  0.8296 -0.9548 -0.1123
  128OSM    H7F13775   5.741   0.633   7.302  3.9384 -0.4109  1.8567
  128OSM    H7G13776   5.671   0.746   7.177  0.8109 -2.5390 -0.5803
  128OSM    C8F13777   5.764   0.844   7.350 -0.7709 -0.1162 -0.5073
  128OSM    H8F13778   5.747   0.947   7.312  0.0264  0.3627  0.3917
  128OSM    H8G13779   5.865   0.863   7.393 -0.8418  2.7963 -1.4297
  128OSM    C9F13780   5.661   0.820   7.455 -0.5928  0.1117  0.2988
  128OSM    H9F13781   5.671   0.724   7.509 -4.5574 -0.7520 -0.2198
  128OSM   C10F13782   5.567   0.903   7.491  0.3103  0.2020 -0.2326
  128OSM   H10F13783   5.504   0.866   7.574 -0.5168  0.5965 -0.6711
  128OSM   C11F13784   5.529   1.037   7.439 -0.1651  0.2030  0.8339
  128OSM   H11F13785   5.421   1.030   7.414 -0.6567 -3.4773  3.2625
  128OSM   H11G13786   5.582   1.058   7.344 -0.0061 -2.9290  0.1290
  128OSM   C12F13787   5.554   1.140   7.551 -0.5854  0.3440  0.8381
  128OSM   H12F13788   5.488   1.105   7.634  0.7198 -2.5736  0.7624
  128OSM   H12G13789   5.515   1.238   7.517 -1.0580 -0.5562 -1.3669
  128OSM   C13F13790   5.691   1.145   7.618 -0.6005 -0.6957 -0.2302
  128OSM   H13F13791   5.770   1.150   7.540  0.8491  1.4049  1.2432
  128OSM   H13G13792   5.703   1.049   7.671 -0.6754 -0.6013 -0.0416
  128OSM   C14F13793   5.709   1.245   7.728  0.4661 -0.1097  0.9320
  128OSM   H14F13794   5.631   1.237   7.807  0.4605  0.1735  0.9549
  128OSM   H14G13795   5.704   1.344   7.679  1.2842 -0.7876 -0.5798
  128OSM   C15F13796   5.838   1.240   7.812  0.7884  0.7749 -0.4272
  128OSM   H15F13797   5.921   1.299   7.768  0.3357  1.7780  0.0299
  128OSM   H15G13798   5.871   1.134   7.811 -0.0625  0.4824  0.4416
  128OSM   C16F13799   5.810   1.300   7.946  0.0005 -0.1563  0.0641
  128OSM   H16F13800   5.710   1.270   7.982  0.0416 -0.5578 -0.1501
  128OSM   H16G13801   5.803   1.409   7.926 -1.8827 -0.2485  0.1137
  128OSM   C17F13802   5.919   1.265   8.047 -0.4557 -0.5281 -0.1279
  128OSM   H17F13803   5.906   1.333   8.134  0.1519 -0.6111  0.0308
  128OSM   H17G13804   6.019   1.297   8.013  0.0409 -2.4384 -0.5552
  128OSM   C18F13805   5.923   1.123   8.112 -0.4095  0.8479  0.0339
  128OSM   H18F13806   5.934   1.043   8.036 -3.1600 -0.9991  1.3974
  128OSM   H18G13807   5.835   1.112   8.179 -0.4900 -0.7116 -0.2987
  128OSM   H18H13808   6.008   1.125   8.183  1.4855  2.1502 -2.1497
  129OSM      N13809   1.445   2.659   6.001 -0.5258  0.0480 -0.1376
  129OSM    C1513810   1.406   2.633   6.138 -0.5103  0.0247  0.6357
  129OSM   H15A13811   1.307   2.591   6.140 -1.0352  1.0715 -0.9764
  129OSM   H15B13812   1.405   2.725   6.194 -1.7939 -0.3124  1.1875
  129OSM   H15C13813   1.481   2.565   6.175 -1.9236 -3.0845 -1.7719
  129OSM    C1413814   1.318   2.700   5.933 -0.3424 -0.0742 -0.0183
  129OSM   H14A13815   1.347   2.725   5.832 -1.8763 -2.8378 -1.2603
  129OSM   H14B13816   1.280   2.789   5.980 -0.2167 -0.4297  0.7882
  129OSM   H14C13817   1.239   2.626   5.935  0.4300 -0.9240  0.0359
  129OSM    C1313818   1.548   2.771   5.992  0.5665 -0.3339 -0.2142
  129OSM   H13A13819   1.642   2.729   6.026 -1.2087 -3.2743  1.5138
  129OSM   H13B13820   1.520   2.859   6.047  1.6974  0.3241 -0.6673
  129OSM   H13C13821   1.559   2.794   5.887  0.8016 -1.9337 -0.5719
  129OSM    C1213822   1.503   2.538   5.931 -0.1217 -0.5495  0.1666
  129OSM   H12A13823   1.539   2.575   5.836 -1.0425  0.8866  0.3547
  129OSM   H12B13824   1.437   2.455   5.910 -0.6431 -0.8249  2.5802
  129OSM    C1113825   1.623   2.479   6.003 -0.0743 -0.5974  0.3087
  129OSM   H11A13826   1.697   2.559   6.023 -0.0213 -1.1186  2.4288
  129OSM   H11B13827   1.668   2.407   5.931 -1.6534 -0.1616 -1.1978
  129OSM      P13828   1.550   2.261   6.130  0.2681 -0.4211  0.1495
  129OSM    O1313829   1.420   2.247   6.065 -0.4451  0.2587  0.1255
  129OSM    O1413830   1.649   2.158   6.086  0.0300 -0.3659  0.5792
  129OSM    O1113831   1.516   2.241   6.285 -0.3334  0.3157 -0.5481
  129OSM    O1213832   1.595   2.417   6.127 -0.5669  0.0011 -0.3441
  129OSM    C1S13833   1.606   2.295   6.385  0.0389 -0.0191 -0.7243
  129OSM    H1S13834   1.625   2.404   6.370 -1.3001 -0.0699 -3.4146
  129OSM    H1T13835   1.705   2.245   6.377  1.6259  2.9330 -1.3164
  129OSM     NF13836   1.614   2.321   6.629 -0.8101 -0.3480  0.1650
  129OSM    HNF13837   1.689   2.279   6.678 -0.9402  0.2998  0.9348
  129OSM    C2S13838   1.553   2.248   6.522  0.1712 -0.3668 -0.4004
  129OSM    H2S13839   1.445   2.266   6.540  0.1818 -1.2663  0.6669
  129OSM    C3S13840   1.587   2.092   6.538  0.4845 -0.9139 -0.4466
  129OSM    H3S13841   1.697   2.080   6.544  0.4863 -0.8929 -0.4403
  129OSM     O313842   1.546   2.007   6.431 -0.4702  0.6649  0.3358
  129OSM    HO313843   1.522   2.070   6.362  2.0274  2.3617  0.8743
  129OSM    C4S13844   1.535   2.029   6.662  0.3748  0.0305 -0.1709
  129OSM    H4S13845   1.599   2.038   6.751  0.4507  2.7256 -0.4102
  129OSM    C5S13846   1.413   1.976   6.683  0.6456  0.1437  0.6019
  129OSM    H5S13847   1.343   1.997   6.600  0.7515  0.7760  0.6629
  129OSM    C6S13848   1.359   1.936   6.817  0.0540  0.3350 -0.1045
  129OSM    H6S13849   1.362   1.825   6.820  0.3112  0.3495  0.1579
  129OSM    H6T13850   1.254   1.973   6.825 -0.7675 -2.1646  3.1260
  129OSM    C7S13851   1.429   1.969   6.953  1.0270  0.1631 -0.1179
  129OSM    H7S13852   1.488   2.063   6.953  0.3002  0.6467  1.2874
  129OSM    H7T13853   1.519   1.906   6.969  0.9507 -0.3684 -1.5685
  129OSM    C8S13854   1.331   1.969   7.072 -0.8996  0.0164  0.2336
  129OSM    H8S13855   1.253   1.891   7.057  0.3092 -1.1938 -0.0260
  129OSM    H8T13856   1.273   2.063   7.075  1.5284  1.6052  3.1473
  129OSM    C9S13857   1.408   1.952   7.204 -0.6923  0.7550  0.2192
  129OSM    H9S13858   1.496   2.019   7.219 -0.8550  0.3605  4.0538
  129OSM    H9T13859   1.450   1.849   7.212 -0.9559  0.4278 -1.9795
  129OSM   C10S13860   1.329   1.979   7.328  0.5669  0.1799 -0.0441
  129OSM   H10S13861   1.242   1.910   7.332  0.5507  0.2017 -0.0197
  129OSM   H10T13862   1.280   2.078   7.321  0.1608  0.0123  0.3768
  129OSM   C11S13863   1.416   1.972   7.453  0.0151  0.7801  0.5448
  129OSM   H11S13864   1.501   2.043   7.456 -0.1143  0.9276  2.9400
  129OSM   H11T13865   1.452   1.867   7.441 -1.4211  0.3110  0.1020
  129OSM   C12S13866   1.342   1.979   7.588 -0.4949 -0.2169 -0.2667
  129OSM   H12S13867   1.348   1.879   7.636  0.3237  0.1538  0.4341
  129OSM   H12T13868   1.234   2.002   7.585 -0.2460  1.2615  0.9816
  129OSM   C13S13869   1.402   2.078   7.691  0.3419 -0.5803 -0.5144
  129OSM   H13S13870   1.411   2.169   7.627  1.0224 -2.2955 -3.0344
  129OSM   H13T13871   1.503   2.050   7.726 -0.0776  0.1305  1.3750
  129OSM   C14S13872   1.301   2.104   7.807 -0.2369 -0.4326 -0.0983
  129OSM   H14S13873   1.298   2.013   7.871  0.4428 -1.1847 -1.1150
  129OSM   H14T13874   1.199   2.132   7.773  0.0611  0.1758 -0.4968
  129OSM   C15S13875   1.343   2.223   7.891 -0.1564 -0.5340  0.5358
  129OSM   H15S13876   1.344   2.306   7.816  2.8567 -1.5648 -0.7023
  129OSM   H15T13877   1.444   2.225   7.936  0.1523 -2.7828  0.0716
  129OSM   C16S13878   1.231   2.244   7.996 -0.3067 -0.4299 -0.6153
  129OSM   H16S13879   1.135   2.246   7.941 -1.2177  0.0630  0.9500
  129OSM   H16T13880   1.236   2.351   8.026 -0.0845 -0.6247  0.0624
  129OSM   C17S13881   1.222   2.153   8.117 -0.3729 -0.0546 -0.2891
  129OSM   H17S13882   1.313   2.173   8.178 -1.1844  3.3683  0.0237
  129OSM   H17T13883   1.221   2.046   8.087 -0.5620 -0.3894  0.8753
  129OSM   C18S13884   1.084   2.173   8.192  0.1712  0.3738 -0.5372
  129OSM   H18S13885   1.083   2.096   8.272  0.8594 -1.4811 -2.2348
  129OSM   H18T13886   0.989   2.152   8.138 -0.3132 -0.8143  0.7165
  129OSM   H18U13887   1.078   2.275   8.235  1.7713  1.0927 -1.8988
  129OSM    C1F13888   1.573   2.443   6.656 -0.0468 -0.1169  0.2732
  129OSM     OF13889   1.489   2.504   6.590  0.2728 -0.4792 -0.1003
  129OSM    C2F13890   1.653   2.506   6.769  0.4381 -0.1311  0.3704
  129OSM    H2F13891   1.702   2.588   6.711 -0.7937 -1.1084 -2.2080
  129OSM    H2G13892   1.729   2.435   6.807 -1.0177 -1.4483  0.9167
  129OSM    C3F13893   1.569   2.562   6.875  0.4543 -0.2324 -0.8108
  129OSM    H3F13894   1.527   2.481   6.939  0.1949  0.5714  0.0432
  129OSM    H3G13895   1.486   2.631   6.849  1.9288  1.5903 -0.8532
  129OSM    C4F13896   1.651   2.649   6.982  0.4430 -0.4696  0.7180
  129OSM    H4F13897   1.688   2.741   6.932  1.4775 -0.0185  2.2385
  129OSM    H4G13898   1.729   2.587   7.030 -0.6280 -1.0502  1.7620
  129OSM    C5F13899   1.556   2.688   7.091 -0.1892 -0.5009  0.2661
  129OSM    H5F13900   1.515   2.596   7.137  0.8992 -0.6718  0.9265
  129OSM    H5G13901   1.467   2.733   7.041 -0.9701  0.2896  2.2484
  129OSM    C6F13902   1.617   2.781   7.192 -0.0383 -0.8716 -0.1066
  129OSM    H6F13903   1.652   2.872   7.139 -0.7459 -0.1653  0.6125
  129OSM    H6G13904   1.702   2.738   7.249  2.8866  1.0195 -2.7109
  129OSM    C7F13905   1.514   2.814   7.295  0.0178 -0.6055 -0.0040
  129OSM    H7F13906   1.495   2.713   7.336  0.2615 -0.6535 -0.0131
  129OSM    H7G13907   1.431   2.851   7.230 -0.1109  1.9096  1.4818
  129OSM    C8F13908   1.545   2.913   7.413  0.1172  0.1698  0.7584
  129OSM    H8F13909   1.576   3.013   7.376  2.1187 -0.8737 -0.5648
  129OSM    H8G13910   1.636   2.885   7.470 -1.1006 -0.0606  2.7043
  129OSM    C9F13911   1.435   2.913   7.508 -0.3577  1.3325 -0.5774
  129OSM    H9F13912   1.345   2.971   7.485 -0.8537  0.6585 -0.3735
  129OSM   C10F13913   1.426   2.843   7.622  0.0864 -0.0126  0.2075
  129OSM   H10F13914   1.329   2.849   7.672  0.4786 -0.0641  0.9995
  129OSM   C11F13915   1.526   2.752   7.688  0.3385 -0.7238 -0.6218
  129OSM   H11F13916   1.625   2.758   7.639  0.8400  0.2289  0.4584
  129OSM   H11G13917   1.494   2.646   7.677 -1.9482  0.0079 -1.6362
  129OSM   C12F13918   1.543   2.813   7.831 -0.0865  0.6910 -0.1399
  129OSM   H12F13919   1.600   2.743   7.896 -1.6463  1.3760  2.1065
  129OSM   H12G13920   1.448   2.820   7.888  0.5673  0.4354  1.0192
  129OSM   C13F13921   1.612   2.945   7.841 -0.2127 -0.2743  0.2917
  129OSM   H13F13922   1.546   3.014   7.784  0.5766 -0.1851 -0.5355
  129OSM   H13G13923   1.713   2.943   7.793 -0.2066  4.6077 -0.4373
  129OSM   C14F13924   1.642   2.994   7.986  0.6217 -0.1685 -0.6566
  129OSM   H14F13925   1.717   3.076   7.978  0.0771  0.5315  1.0642
  129OSM   H14G13926   1.680   2.924   8.064  1.5252  3.5185  2.5392
  129OSM   C15F13927   1.518   3.063   8.047  0.4983 -0.7512 -0.1192
  129OSM   H15F13928   1.420   3.011   8.042  0.2114 -0.6036  2.7872
  129OSM   H15G13929   1.501   3.161   7.997 -2.1813 -0.3162  1.5118
  129OSM   C16F13930   1.540   3.083   8.201  0.1622 -0.3135  0.3642
  129OSM   H16F13931   1.632   3.143   8.215  0.5214 -0.7821  0.0867
  129OSM   H16G13932   1.556   2.978   8.236  1.3994  0.5758  2.6814
  129OSM   C17F13933   1.415   3.149   8.266 -0.8540 -0.1717  1.0007
  129OSM   H17F13934   1.352   3.064   8.301 -0.4447 -1.0617 -0.3366
  129OSM   H17G13935   1.354   3.209   8.194 -0.6040 -0.7689  0.2740
  129OSM   C18F13936   1.459   3.238   8.385  0.4903 -0.3686 -0.0102
  129OSM   H18F13937   1.503   3.329   8.338 -0.6807 -1.3542 -3.3137
  129OSM   H18G13938   1.543   3.186   8.436  1.2260  0.5047 -0.2940
  129OSM   H18H13939   1.374   3.262   8.452  0.4189  0.0426 -0.2442
  130OSM      N13940   4.049   5.317   6.090  0.1126  0.2749  0.1392
  130OSM    C1513941   3.905   5.294   6.049 -0.7231 -0.5312 -0.6011
  130OSM   H15A13942   3.873   5.354   5.965 -0.1795 -1.1051 -1.2305
  130OSM   H15B13943   3.843   5.314   6.135 -1.4587 -1.9923 -0.7487
  130OSM   H15C13944   3.884   5.189   6.034 -0.3397 -0.7863  0.5299
  130OSM    C1413945   4.087   5.219   6.197  0.2515  0.3894 -0.3495
  130OSM   H14A13946   4.179   5.254   6.242  0.8783 -1.6240  0.0467
  130OSM   H14B13947   4.089   5.122   6.148 -2.3773  1.2623 -2.4214
  130OSM   H14C13948   4.019   5.194   6.277 -0.2080 -2.0078 -1.3863
  130OSM    C1313949   4.138   5.274   5.975 -0.4097  0.4161 -1.0233
  130OSM   H13A13950   4.114   5.171   5.952  0.4322 -0.8807  3.1953
  130OSM   H13B13951   4.241   5.269   6.005  0.0007 -1.7096 -2.5789
  130OSM   H13C13952   4.145   5.333   5.885  2.5403 -0.4610 -1.4730
  130OSM    C1213953   4.075   5.458   6.135  0.0785 -0.5889 -0.2377
  130OSM   H12A13954   4.031   5.522   6.060  0.8595 -1.3420 -1.3619
  130OSM   H12B13955   4.180   5.482   6.136  0.2512 -1.2532 -1.3679
  130OSM    C1113956   4.011   5.511   6.263 -0.2876 -0.3683 -0.9268
  130OSM   H11A13957   4.052   5.611   6.289  0.6713 -0.8336 -0.6117
  130OSM   H11B13958   4.036   5.441   6.345 -1.7919  1.6403  1.3850
  130OSM      P13959   3.803   5.639   6.184 -0.5447  0.5811  0.1839
  130OSM    O1313960   3.886   5.688   6.072  0.7037 -0.0558 -0.0968
  130OSM    O1413961   3.661   5.611   6.171  0.2335 -0.2331 -0.0355
  130OSM    O1113962   3.821   5.745   6.300  0.3739  0.2345  0.3753
  130OSM    O1213963   3.866   5.509   6.262  0.1871  0.5081  0.2629
  130OSM    C1S13964   3.768   5.744   6.424  0.6068 -0.1881 -0.1049
  130OSM    H1S13965   3.736   5.640   6.447  3.4968 -1.4134 -1.1825
  130OSM    H1T13966   3.677   5.808   6.419  1.2622  0.8687  0.8220
  130OSM     NF13967   3.812   5.801   6.664  0.1143 -0.0069  0.0856
  130OSM    HNF13968   3.784   5.886   6.707 -0.8206 -1.1033  1.7616
  130OSM    C2S13969   3.863   5.813   6.532  0.2191 -0.1423  0.0714
  130OSM    H2S13970   3.954   5.749   6.536  1.2171  1.2781  3.5526
  130OSM    C3S13971   3.905   5.956   6.482 -0.1050 -1.0587  0.6601
  130OSM    H3S13972   3.814   6.020   6.482 -0.5515 -1.6892  0.7288
  130OSM     O313973   3.957   5.964   6.348  0.1681  0.0727  0.3515
  130OSM    HO313974   3.963   5.872   6.320 -0.7641 -0.1004  0.7043
  130OSM    C4S13975   4.005   6.018   6.575  0.1826  0.1763 -0.0002
  130OSM    H4S13976   3.972   6.099   6.643  2.0449 -0.7576  2.1389
  130OSM    C5S13977   4.140   6.001   6.577  0.2859  0.0533  0.5724
  130OSM    H5S13978   4.190   5.938   6.502  0.1683 -1.1705  1.4838
  130OSM    C6S13979   4.235   6.061   6.682  0.1222 -0.2638  0.7476
  130OSM    H6S13980   4.328   6.110   6.645  0.2293 -0.9761  0.0704
  130OSM    H6T13981   4.275   5.974   6.737 -0.3678 -0.1352  1.3236
  130OSM    C7S13982   4.171   6.149   6.790 -0.5919 -0.2858 -0.3793
  130OSM    H7S13983   4.125   6.246   6.761  2.1736  1.3575  0.4464
  130OSM    H7T13984   4.252   6.195   6.851  0.7559 -1.9784 -0.8167
  130OSM    C8S13985   4.083   6.074   6.892  0.1715 -0.6892 -0.3073
  130OSM    H8S13986   4.135   5.992   6.944  1.1539  0.3329  0.3563
  130OSM    H8T13987   3.990   6.021   6.860  0.6399 -2.5065  1.2393
  130OSM    C9S13988   4.043   6.174   7.005  0.2332  0.1121 -0.3484
  130OSM    H9S13989   3.990   6.260   6.958  0.6934 -0.3111 -1.7004
  130OSM    H9T13990   4.134   6.216   7.054 -0.4638  1.5297 -0.2020
  130OSM   C10S13991   3.956   6.107   7.107  0.2647  0.4164 -0.9382
  130OSM   H10S13992   4.007   6.021   7.155 -1.8444 -0.5050 -0.1970
  130OSM   H10T13993   3.859   6.066   7.070  0.6168  0.3593 -1.8072
  130OSM   C11S13994   3.911   6.193   7.229 -0.7406  0.2241 -0.1502
  130OSM   H11S13995   3.841   6.266   7.183  1.1214  1.0307 -1.8704
  130OSM   H11T13996   3.999   6.243   7.275 -1.9419  0.4107  2.0595
  130OSM   C12S13997   3.837   6.109   7.329  0.0521  0.0466  0.9496
  130OSM   H12S13998   3.904   6.028   7.366 -0.6281 -1.5391 -1.0702
  130OSM   H12T13999   3.757   6.053   7.276  1.7848 -0.0612 -1.7203
  130OSM   C13S14000   3.793   6.185   7.458  0.0320  0.0489  0.0687
  130OSM   H13S14001   3.789   6.296   7.447  1.1684  0.2108  1.1027
  130OSM   H13T14002   3.872   6.167   7.534 -0.6478 -1.3034  0.4886
  130OSM   C14S14003   3.659   6.126   7.509  0.4231  0.0025 -0.3737
  130OSM   H14S14004   3.685   6.021   7.537 -1.0074 -0.7190 -1.6271
  130OSM   H14T14005   3.580   6.139   7.432  0.5109  0.7418 -0.3435
  130OSM   C15S14006   3.603   6.184   7.646  0.7233 -0.1088 -0.3427
  130OSM   H15S14007   3.500   6.145   7.660  1.2247 -1.8745 -1.2108
  130OSM   H15T14008   3.593   6.292   7.622  1.8363  0.3447  1.0803
  130OSM   C16S14009   3.698   6.173   7.770  0.1871 -0.0067  0.5674
  130OSM   H16S14010   3.799   6.207   7.739 -0.2733  1.6212  0.7357
  130OSM   H16T14011   3.707   6.066   7.799  2.0899 -0.6462 -2.0824
  130OSM   C17S14012   3.652   6.259   7.883 -0.2294  0.3920  1.0212
  130OSM   H17S14013   3.558   6.212   7.921  0.3453 -2.3712 -0.7090
  130OSM   H17T14014   3.634   6.364   7.854  2.4364  0.2579 -1.5458
  130OSM   C18S14015   3.744   6.235   7.999  0.1957 -0.1337 -0.2606
  130OSM   H18S14016   3.724   6.292   8.092  0.6600  0.7051 -0.6611
  130OSM   H18T14017   3.848   6.261   7.968  0.1233 -0.6936 -0.9963
  130OSM   H18U14018   3.740   6.125   8.014  1.9051 -0.6872 -3.1630
  130OSM    C1F14019   3.827   5.697   6.737 -0.3191  0.5233 -0.3365
  130OSM     OF14020   3.889   5.604   6.692 -0.7097 -0.7061 -0.2188
  130OSM    C2F14021   3.765   5.685   6.869  0.7181  0.1195 -0.2386
  130OSM    H2F14022   3.676   5.619   6.862  1.2146 -0.7044  0.9117
  130OSM    H2G14023   3.733   5.788   6.898 -2.6404 -0.5093 -1.2730
  130OSM    C3F14024   3.866   5.624   6.976  0.1553 -0.2235 -0.6228
  130OSM    H3F14025   3.964   5.674   6.995 -0.0959  0.0079  0.0807
  130OSM    H3G14026   3.895   5.524   6.939  1.0997  0.0614 -0.6861
  130OSM    C4F14027   3.803   5.606   7.116  0.4524 -0.2614 -0.1168
  130OSM    H4F14028   3.847   5.513   7.157 -0.7340 -0.8740 -0.1836
  130OSM    H4G14029   3.692   5.598   7.115  0.5444 -1.9614 -1.4304
  130OSM    C5F14030   3.845   5.727   7.208 -0.4197  0.2139  0.9582
  130OSM    H5F14031   3.793   5.812   7.158  1.9464  0.2795 -1.6378
  130OSM    H5G14032   3.955   5.739   7.199 -0.3189 -1.7769 -1.6232
  130OSM    C6F14033   3.791   5.724   7.353 -0.2832 -0.0719 -0.5270
  130OSM    H6F14034   3.684   5.694   7.349 -0.9265  2.1491 -2.2793
  130OSM    H6G14035   3.792   5.826   7.398  0.5054 -0.7745  1.1354
  130OSM    C7F14036   3.874   5.627   7.441  0.1581 -0.2141  0.0309
  130OSM    H7F14037   3.982   5.653   7.439  0.0577  0.1679 -0.9367
  130OSM    H7G14038   3.864   5.527   7.393  2.4787 -0.6638  0.3434
  130OSM    C8F14039   3.835   5.620   7.589  0.2599 -0.0345 -0.6245
  130OSM    H8F14040   3.902   5.551   7.644 -0.1383  0.8635  1.0529
  130OSM    H8G14041   3.736   5.573   7.607  0.2945  0.7556  2.1483
  130OSM    C9F14042   3.859   5.749   7.658  0.6582  0.4654  0.2292
  130OSM    H9F14043   3.827   5.844   7.613  1.3120  1.0939  1.0490
  130OSM   C10F14044   3.910   5.771   7.782  0.0093  0.1319  0.2914
  130OSM   H10F14045   3.908   5.874   7.819 -1.4408 -0.1876  1.1866
  130OSM   C11F14046   3.963   5.676   7.881  0.1759 -0.8205 -0.3348
  130OSM   H11F14047   4.070   5.691   7.905 -0.3955  3.1039  0.3864
  130OSM   H11G14048   3.953   5.572   7.845 -0.6604 -0.1457 -2.1619
  130OSM   C12F14049   3.900   5.677   8.029 -0.2383  0.8708  0.2602
  130OSM   H12F14050   3.924   5.584   8.085 -0.4945 -1.1376 -2.7331
  130OSM   H12G14051   3.793   5.673   7.998  0.0124  0.1340 -0.5485
  130OSM   C13F14052   3.917   5.807   8.103  0.4726  0.0929 -0.3357
  130OSM   H13F14053   3.867   5.879   8.034  0.8563 -0.5060 -1.2468
  130OSM   H13G14054   4.026   5.824   8.114  0.4848 -0.4404  0.4284
  130OSM   C14F14055   3.862   5.814   8.248 -0.1328 -0.0171 -0.1867
  130OSM   H14F14056   3.752   5.826   8.236 -0.3498 -0.8789  0.8054
  130OSM   H14G14057   3.890   5.903   8.309 -0.1000  0.2656 -0.6128
  130OSM   C15F14058   3.876   5.682   8.329  0.0717 -0.0078 -0.2075
  130OSM   H15F14059   3.976   5.636   8.318 -0.6538 -1.4903 -1.1123
  130OSM   H15G14060   3.799   5.612   8.287  0.2439 -0.1143 -0.3475
  130OSM   C16F14061   3.832   5.684   8.473 -0.7028  0.0584 -0.6946
  130OSM   H16F14062   3.821   5.584   8.520 -0.4706  0.8569  1.1577
  130OSM   H16G14063   3.729   5.726   8.483 -0.9385 -1.0010  2.5963
  130OSM   C17F14064   3.923   5.762   8.569  0.0008  0.0818  0.0618
  130OSM   H17F14065   3.885   5.865   8.587  0.6882  0.8141 -2.3724
  130OSM   H17G14066   4.019   5.773   8.514 -0.0322 -1.4289 -0.3530
  130OSM   C18F14067   3.959   5.691   8.703  0.2093 -0.3825 -0.1814
  130OSM   H18F14068   3.978   5.582   8.696 -0.8722 -0.5402 -0.7737
  130OSM   H18G14069   3.883   5.712   8.782  1.5589 -0.2651  1.1475
  130OSM   H18H14070   4.056   5.730   8.742  0.9293 -2.6740  0.4962
  131OSM      N14071   2.859   1.038   5.698  0.9589  0.9953  0.3487
  131OSM    C1514072   2.742   1.123   5.644 -0.3231  0.3106 -1.0075
  131OSM   H15A14073   2.724   1.209   5.707  2.7521 -0.4579  1.1514
  131OSM   H15B14074   2.656   1.059   5.639  0.7263 -1.2593  0.1987
  131OSM   H15C14075   2.768   1.160   5.545 -0.0232  2.3822 -0.2154
  131OSM    C1414076   2.867   0.911   5.619  0.3528  0.3644  0.4674
  131OSM   H14A14077   2.956   0.866   5.661  1.6218  3.0565  0.9043
  131OSM   H14B14078   2.888   0.929   5.515 -1.1244 -0.1780  0.0555
  131OSM   H14C14079   2.774   0.856   5.623  1.3336 -1.4585 -0.3651
  131OSM    C1314080   2.988   1.103   5.672 -0.3299 -0.5249 -0.2987
  131OSM   H13A14081   3.071   1.038   5.700 -0.1657 -0.2892 -0.2362
  131OSM   H13B14082   2.995   1.194   5.730 -2.2689  1.4027 -2.8541
  131OSM   H13C14083   2.991   1.150   5.575 -1.4688  2.0605  0.8241
  131OSM    C1214084   2.838   1.005   5.846 -0.0234 -0.0140  0.5020
  131OSM   H12A14085   2.735   0.973   5.847 -0.1493  0.1895 -1.9647
  131OSM   H12B14086   2.836   1.091   5.911 -2.0016 -0.9997  1.8613
  131OSM    C1114087   2.924   0.899   5.925  0.1106  0.3150 -0.0115
  131OSM   H11A14088   2.891   0.797   5.896 -0.8550 -0.2017  2.6626
  131OSM   H11B14089   2.900   0.908   6.032 -1.3572  1.5090 -0.4187
  131OSM      P14090   3.158   0.805   5.847 -0.2975 -0.1730 -0.0188
  131OSM    O1314091   3.123   0.752   5.717  0.5246 -0.6357 -0.3378
  131OSM    O1414092   3.296   0.859   5.856 -0.3751  0.7622 -0.7794
  131OSM    O1114093   3.135   0.689   5.958  0.1801 -0.4446  0.5089
  131OSM    O1214094   3.064   0.918   5.895 -0.2409  0.2658  0.6339
  131OSM    C1S14095   3.173   0.735   6.092 -0.7339  0.1158 -0.3138
  131OSM    H1S14096   3.165   0.844   6.112  2.0574  0.2106  0.7168
  131OSM    H1T14097   3.276   0.698   6.112  0.0810  1.4597 -1.8166
  131OSM     NF14098   3.111   0.729   6.335 -0.1994 -0.0635 -0.6908
  131OSM    HNF14099   3.154   0.676   6.408  0.6658  1.0013 -0.4067
  131OSM    C2S14100   3.086   0.664   6.206 -0.5714  0.1427  0.1487
  131OSM    H2S14101   2.981   0.683   6.175 -1.0761  0.9342  2.2318
  131OSM    C3S14102   3.115   0.512   6.216  0.6598  0.7835 -0.5289
  131OSM    H3S14103   3.215   0.503   6.264  1.1315  0.6102 -1.5120
  131OSM     O314104   3.121   0.447   6.091 -0.1298 -0.2804  0.0796
  131OSM    HO314105   3.119   0.523   6.034  1.7799 -0.4497 -0.2644
  131OSM    C4S14106   3.016   0.452   6.316 -0.2031  0.5942  0.0115
  131OSM    H4S14107   3.061   0.466   6.416  1.2224  2.6208 -0.8371
  131OSM    C5S14108   2.891   0.407   6.300 -0.3787 -0.1714  0.9478
  131OSM    H5S14109   2.846   0.417   6.200  0.5518 -0.6075  0.4796
  131OSM    C6S14110   2.797   0.374   6.412  0.7598  0.0661  0.4984
  131OSM    H6S14111   2.743   0.282   6.383  1.6162  0.3678 -2.4656
  131OSM    H6T14112   2.723   0.456   6.425 -2.6986 -2.7815  0.2843
  131OSM    C7S14113   2.868   0.361   6.549  0.4305 -0.1250  0.7595
  131OSM    H7S14114   2.914   0.457   6.581 -3.6245  2.2006  0.3758
  131OSM    H7T14115   2.944   0.281   6.546  1.4409  0.7361  2.3182
  131OSM    C8S14116   2.772   0.318   6.667 -0.1118  0.0951 -0.1166
  131OSM    H8S14117   2.716   0.225   6.641  0.3866 -0.6296  1.2635
  131OSM    H8T14118   2.701   0.402   6.680 -2.8741 -2.2529  1.3552
  131OSM    C9S14119   2.851   0.304   6.801  0.3450 -0.0178  0.4931
  131OSM    H9S14120   2.908   0.397   6.818  0.2666  0.2764 -0.7165
  131OSM    H9T14121   2.917   0.214   6.796 -1.0575 -1.0536 -0.3417
  131OSM   C10S14122   2.752   0.291   6.912  0.8056 -0.4296 -0.1129
  131OSM   H10S14123   2.692   0.197   6.905  1.4159 -0.7253 -4.0408
  131OSM   H10T14124   2.676   0.370   6.894  1.3613 -0.0143 -0.6789
  131OSM   C11S14125   2.819   0.325   7.043  0.8592  0.4886  0.1945
  131OSM   H11S14126   2.860   0.429   7.040  2.0236  0.0577  0.8171
  131OSM   H11T14127   2.904   0.255   7.056  0.9281  0.5643  0.1552
  131OSM   C12S14128   2.728   0.314   7.164  0.3418  0.1632  1.0124
  131OSM   H12S14129   2.690   0.210   7.167 -1.0337  0.5150 -1.6243
  131OSM   H12T14130   2.634   0.371   7.147  0.5977  0.3488  0.2014
  131OSM   C13S14131   2.798   0.360   7.288  0.6580 -0.1401 -0.1037
  131OSM   H13S14132   2.841   0.461   7.270 -1.2364  0.5248 -1.1254
  131OSM   H13T14133   2.881   0.289   7.308  0.3531 -0.3837  0.3022
  131OSM   C14S14134   2.700   0.355   7.406  0.4407 -0.1113 -0.3881
  131OSM   H14S14135   2.674   0.251   7.433  1.5465 -1.0651 -2.6655
  131OSM   H14T14136   2.609   0.415   7.386 -0.1481 -1.1963 -1.0892
  131OSM   C15S14137   2.763   0.428   7.527  0.5416  0.1849 -0.1527
  131OSM   H15S14138   2.787   0.535   7.508  1.2227 -0.0165 -0.4497
  131OSM   H15T14139   2.865   0.390   7.550  0.1614 -0.5198  0.4252
  131OSM   C16S14140   2.674   0.404   7.653 -0.7102 -0.2557  0.7043
  131OSM   H16S14141   2.706   0.303   7.685  1.8298 -0.2164 -1.3552
  131OSM   H16T14142   2.570   0.414   7.614 -0.1172  1.2839 -0.5974
  131OSM   C17S14143   2.698   0.502   7.766  0.2404 -0.5934  0.3979
  131OSM   H17S14144   2.635   0.477   7.855  0.2716  1.3610  1.0223
  131OSM   H17T14145   2.653   0.597   7.730  0.8295 -0.3673  0.2514
  131OSM   C18S14146   2.849   0.522   7.806  0.1742  0.4678 -0.1560
  131OSM   H18S14147   2.907   0.571   7.725  0.9702  1.2344  0.8486
  131OSM   H18T14148   2.891   0.423   7.832 -0.1197 -0.0283 -1.4743
  131OSM   H18U14149   2.853   0.577   7.902  2.9185 -0.8553  0.5780
  131OSM    C1F14150   3.081   0.854   6.364  0.0173 -0.2354 -0.3429
  131OSM     OF14151   2.993   0.918   6.304  0.3083 -0.3465  0.4969
  131OSM    C2F14152   3.147   0.919   6.481 -0.8992 -0.0721 -0.5822
  131OSM    H2F14153   3.255   0.897   6.490 -1.3319 -3.7630 -2.3030
  131OSM    H2G14154   3.100   0.876   6.572 -0.0899  0.5455  0.1382
  131OSM    C3F14155   3.137   1.074   6.480  0.0609  0.1351 -0.5070
  131OSM    H3F14156   3.038   1.113   6.448 -0.3263 -0.0945  0.3733
  131OSM    H3G14157   3.203   1.115   6.400  1.2698 -0.0788  0.3473
  131OSM    C4F14158   3.178   1.138   6.616  0.4883 -0.6115  0.1219
  131OSM    H4F14159   3.161   1.245   6.595 -1.2290 -1.3142 -2.5965
  131OSM    H4G14160   3.287   1.127   6.633  0.3417 -1.8066  0.3824
  131OSM    C5F14161   3.087   1.091   6.723 -0.1440  0.5216  0.1212
  131OSM    H5F14162   3.093   0.980   6.735 -1.0542  0.2982 -1.2164
  131OSM    H5G14163   2.980   1.116   6.703 -0.2712  3.4400  3.4695
  131OSM    C6F14164   3.107   1.159   6.859 -0.6691 -0.2121 -0.0656
  131OSM    H6F14165   3.091   1.265   6.832  2.1156  0.3397  0.1681
  131OSM    H6G14166   3.212   1.140   6.890 -0.3550  0.1753 -0.8622
  131OSM    C7F14167   2.993   1.124   6.967 -0.1286  0.2194  0.5697
  131OSM    H7F14168   3.019   1.020   6.997  1.0167 -0.0246 -1.1303
  131OSM    H7G14169   2.896   1.120   6.913  0.7020  1.2975 -1.0911
  131OSM    C8F14170   3.000   1.212   7.087  0.0439 -0.4804  0.7157
  131OSM    H8F14171   2.929   1.158   7.153  2.1030 -0.8897  2.7210
  131OSM    H8G14172   2.964   1.313   7.058  0.7605 -0.3917  0.0911
  131OSM    C9F14173   3.130   1.216   7.169  0.0843  0.0291 -0.0962
  131OSM    H9F14174   3.212   1.171   7.112 -1.6876  0.9741 -3.6221
  131OSM   C10F14175   3.138   1.274   7.287  0.6469  1.1613  0.0969
  131OSM   H10F14176   3.237   1.271   7.336  0.7257  0.0846 -0.1177
  131OSM   C11F14177   3.028   1.333   7.368  0.2203 -0.0574 -0.2295
  131OSM   H11F14178   2.938   1.357   7.307 -0.1356  1.8072  0.9507
  131OSM   H11G14179   3.053   1.437   7.399 -2.8129  0.2283  1.7018
  131OSM   C12F14180   2.991   1.262   7.500 -0.6832  0.8516  0.4191
  131OSM   H12F14181   2.954   1.160   7.473 -0.5315  0.4223  1.7727
  131OSM   H12G14182   2.899   1.312   7.537 -0.9343 -0.8029  2.1932
  131OSM   C13F14183   3.101   1.269   7.613  0.4359 -0.0486  0.1397
  131OSM   H13F14184   3.117   1.377   7.637 -1.1869  0.3559 -0.4418
  131OSM   H13G14185   3.195   1.220   7.581 -0.3408 -1.9448  0.6444
  131OSM   C14F14186   3.064   1.209   7.753 -1.0347 -0.2022  0.3617
  131OSM   H14F14187   3.056   1.099   7.739  0.6512 -0.6412  2.4123
  131OSM   H14G14188   2.967   1.248   7.791 -0.9323 -0.0425  0.4580
  131OSM   C15F14189   3.180   1.227   7.854  0.0586 -0.1087 -0.8491
  131OSM   H15F14190   3.257   1.301   7.821  0.3203 -0.1420 -0.3188
  131OSM   H15G14191   3.224   1.125   7.862 -1.6025 -0.7358  0.8556
  131OSM   C16F14192   3.115   1.271   7.986  0.3018  0.7694 -0.0273
  131OSM   H16F14193   3.014   1.223   7.983  0.1002  1.1328  0.7797
  131OSM   H16G14194   3.093   1.380   7.986  0.4501  0.8107 -1.1347
  131OSM   C17F14195   3.202   1.245   8.107  0.9347 -0.0131  0.4072
  131OSM   H17F14196   3.307   1.275   8.090  1.2966 -0.0027  2.4395
  131OSM   H17G14197   3.195   1.136   8.130  2.6419 -0.3304 -0.4428
  131OSM   C18F14198   3.132   1.306   8.228  0.1130 -0.3589 -0.3687
  131OSM   H18F14199   3.180   1.256   8.314  0.4765 -0.9654 -0.9197
  131OSM   H18G14200   3.030   1.262   8.225  1.3133 -3.7693  2.2773
  131OSM   H18H14201   3.142   1.417   8.231 -1.4349 -0.0872 -2.3765
  132OSM      N14202   3.109   4.924   6.030  0.4841 -0.2053  0.0767
  132OSM    C1514203   2.965   4.958   6.025 -0.4052 -0.6673  0.0954
  132OSM   H15A14204   2.901   4.901   6.092 -2.8898  2.0597  0.2427
  132OSM   H15B14205   2.924   4.940   5.927  1.4087 -3.0598 -0.3225
  132OSM   H15C14206   2.940   5.060   6.048 -1.5268 -1.6268  3.8571
  132OSM    C1414207   3.189   5.027   5.949  0.2483  0.2712  0.1340
  132OSM   H14A14208   3.176   5.130   5.979  0.5327  0.4803 -0.4297
  132OSM   H14B14209   3.162   5.026   5.844 -0.6378  3.9824  0.1833
  132OSM   H14C14210   3.294   5.006   5.960 -0.5625 -3.8163  2.1189
  132OSM    C1314211   3.164   4.942   6.170 -0.6312  0.0820 -0.4398
  132OSM   H13A14212   3.148   5.041   6.209 -0.8034 -0.5381  1.1319
  132OSM   H13B14213   3.268   4.918   6.177 -0.5968 -0.0768 -1.2912
  132OSM   H13C14214   3.100   4.881   6.233 -3.5534  2.6057 -0.7020
  132OSM    C1214215   3.138   4.790   5.970 -0.3394 -0.5126  0.1748
  132OSM   H12A14216   3.241   4.759   5.977 -0.4470 -0.7504  0.7702
  132OSM   H12B14217   3.112   4.814   5.868 -0.5040  1.6022  0.6625
  132OSM    C1114218   3.052   4.667   6.017  0.3446 -0.5425 -0.5122
  132OSM   H11A14219   3.081   4.578   5.958 -1.2913 -1.2141 -0.3696
  132OSM   H11B14220   2.948   4.676   5.979 -0.2849 -0.0506  1.1953
  132OSM      P14221   3.174   4.559   6.216 -0.0756 -0.1644  0.1310
  132OSM    O1314222   3.129   4.424   6.251  0.4385 -0.4627  0.1893
  132OSM    O1414223   3.292   4.573   6.122 -0.1088  0.8102 -0.6007
  132OSM    O1114224   3.209   4.633   6.354  0.4474 -0.5340 -0.1101
  132OSM    O1214225   3.051   4.645   6.164  0.4547  0.7909  0.9556
  132OSM    C1S14226   3.160   4.583   6.477  0.2580  0.0359 -0.4290
  132OSM    H1S14227   3.096   4.493   6.468 -0.1928  0.3625 -0.4928
  132OSM    H1T14228   3.108   4.657   6.540 -1.4074 -1.8803  0.5630
  132OSM     NF14229   3.191   4.474   6.695 -0.2985  0.6256 -0.7589
  132OSM    HNF14230   3.172   4.536   6.771 -0.1821  1.7632 -1.6352
  132OSM    C2S14231   3.261   4.534   6.579 -0.2584 -0.0464 -0.5473
  132OSM    H2S14232   3.322   4.452   6.535 -0.4735 -0.2883 -0.3939
  132OSM    C3S14233   3.356   4.651   6.622 -0.8462 -0.3865 -0.3278
  132OSM    H3S14234   3.292   4.728   6.670 -0.4940 -1.4327  1.9240
  132OSM     O314235   3.419   4.729   6.516  0.5018 -0.7226 -0.6983
  132OSM    HO314236   3.390   4.686   6.435  3.0407 -0.1532 -1.9873
  132OSM    C4S14237   3.464   4.598   6.717 -0.0454  0.4784  0.0323
  132OSM    H4S14238   3.519   4.513   6.675 -0.5759  1.6040 -3.2169
  132OSM    C5S14239   3.484   4.639   6.842 -0.0177 -0.9974 -0.5310
  132OSM    H5S14240   3.414   4.713   6.883 -0.0063 -0.1540 -1.9910
  132OSM    C6S14241   3.581   4.565   6.928  0.4555  0.1949 -0.5096
  132OSM    H6S14242   3.668   4.633   6.939 -1.2542  2.9172 -2.4665
  132OSM    H6T14243   3.620   4.476   6.875  2.4634  0.3401  0.6432
  132OSM    C7S14244   3.523   4.505   7.058 -0.4424  0.6695  0.5683
  132OSM    H7S14245   3.606   4.447   7.104 -0.6159  0.5315  0.7085
  132OSM    H7T14246   3.435   4.440   7.040 -1.5779  2.1626  0.5091
  132OSM    C8S14247   3.499   4.609   7.167  0.0121 -0.2792  0.4302
  132OSM    H8S14248   3.419   4.679   7.133  0.6908  0.5088  0.4197
  132OSM    H8T14249   3.590   4.672   7.173  0.0187  0.0025 -1.6968
  132OSM    C9S14250   3.478   4.541   7.299  0.0056  0.0819 -0.4148
  132OSM    H9S14251   3.557   4.468   7.327  0.0942 -0.0988 -1.1131
  132OSM    H9T14252   3.380   4.489   7.293 -0.9142  1.6018  0.7284
  132OSM   C10S14253   3.473   4.644   7.420  0.1591 -0.9106 -0.0432
  132OSM   H10S14254   3.388   4.710   7.396  0.1647 -1.2056 -0.9085
  132OSM   H10T14255   3.576   4.685   7.427  0.1754 -1.0309  0.5364
  132OSM   C11S14256   3.462   4.572   7.560  0.3340 -0.1938 -0.0268
  132OSM   H11S14257   3.566   4.541   7.583 -0.5783 -1.5186  2.6661
  132OSM   H11T14258   3.414   4.473   7.550  0.4325 -0.3598  1.0421
  132OSM   C12S14259   3.416   4.660   7.679 -0.2770 -0.2927  0.4633
  132OSM   H12S14260   3.317   4.697   7.645  0.1133  1.3287  0.9822
  132OSM   H12T14261   3.486   4.746   7.691 -0.7793 -0.0362  1.7372
  132OSM   C13S14262   3.412   4.580   7.810  0.8570  0.8978  0.1099
  132OSM   H13S14263   3.513   4.552   7.847  0.4762  1.5102  1.7070
  132OSM   H13T14264   3.370   4.478   7.795  3.0481 -0.0900  0.2743
  132OSM   C14S14265   3.323   4.654   7.921  0.5508  0.2459  0.0113
  132OSM   H14S14266   3.227   4.658   7.866  0.5303  0.2165  0.0448
  132OSM   H14T14267   3.359   4.758   7.938 -1.4281  0.9061  0.3876
  132OSM   C15S14268   3.317   4.573   8.054  0.9552 -0.6056  0.0570
  132OSM   H15S14269   3.285   4.468   8.040  1.1695 -0.7131  0.3519
  132OSM   H15T14270   3.236   4.625   8.110  0.8202  0.7726 -1.3450
  132OSM   C16S14271   3.433   4.600   8.147  0.1514  0.5348  0.0782
  132OSM   H16S14272   3.430   4.705   8.183 -3.0451  0.9314 -1.0241
  132OSM   H16T14273   3.529   4.586   8.093 -0.5240  0.4628 -1.1342
  132OSM   C17S14274   3.420   4.491   8.258 -0.3676 -0.1224 -0.7737
  132OSM   H17S14275   3.441   4.389   8.219 -0.7953  0.2375 -1.9876
  132OSM   H17T14276   3.313   4.485   8.290 -0.3937 -0.2586 -0.8862
  132OSM   C18S14277   3.512   4.495   8.378 -0.5440 -0.2424 -0.5858
  132OSM   H18S14278   3.528   4.600   8.412  0.9666 -1.2404  2.0640
  132OSM   H18T14279   3.608   4.449   8.346  0.5940  1.4285  0.2784
  132OSM   H18U14280   3.476   4.429   8.459  0.8270 -2.1453 -1.4528
  132OSM    C1F14281   3.141   4.351   6.686  0.0795  0.1940  0.0240
  132OSM     OF14282   3.140   4.279   6.584 -0.0512 -0.0086  0.1970
  132OSM    C2F14283   3.086   4.293   6.810  0.4305  0.2117 -0.0425
  132OSM    H2F14284   3.002   4.353   6.852 -0.7968 -0.6515 -1.1532
  132OSM    H2G14285   3.152   4.294   6.898  0.9588  2.1409 -0.4141
  132OSM    C3F14286   3.042   4.146   6.799 -0.2448 -0.5078  0.7803
  132OSM    H3F14287   3.141   4.096   6.785  0.1014  0.6326 -1.0953
  132OSM    H3G14288   2.972   4.115   6.719 -0.7466 -1.5920  1.6143
  132OSM    C4F14289   2.991   4.090   6.936 -0.5096 -0.2971 -0.4174
  132OSM    H4F14290   2.894   4.142   6.946 -0.8792 -1.2193  1.0444
  132OSM    H4G14291   3.059   4.118   7.020  0.3182 -0.1285 -1.1224
  132OSM    C5F14292   2.967   3.938   6.929  0.9959 -0.1387 -0.3328
  132OSM    H5F14293   2.905   3.909   6.842  2.0216 -2.2038 -0.4403
  132OSM    H5G14294   2.910   3.914   7.022  0.6247  0.0169 -0.5195
  132OSM    C6F14295   3.098   3.861   6.942 -0.3121 -0.7665  0.4006
  132OSM    H6F14296   3.151   3.887   7.036  2.6348 -1.6228 -0.9066
  132OSM    H6G14297   3.161   3.864   6.851 -0.3521 -0.7576  0.3735
  132OSM    C7F14298   3.074   3.716   6.979 -0.5713 -0.2564  0.1165
  132OSM    H7F14299   3.006   3.678   6.900 -2.1789 -0.9525  1.7546
  132OSM    H7G14300   3.026   3.718   7.079  2.0637  0.8152  1.4536
  132OSM    C8F14301   3.211   3.634   6.980  0.2798  0.0822 -0.2437
  132OSM    H8F14302   3.239   3.621   6.874 -0.4982 -3.4637 -0.1482
  132OSM    H8G14303   3.179   3.534   7.018  0.5529  0.0705 -0.0385
  132OSM    C9F14304   3.327   3.688   7.073  0.5083 -0.8025  0.6664
  132OSM    H9F14305   3.411   3.728   7.015  0.7554 -1.3103  0.6648
  132OSM   C10F14306   3.324   3.709   7.204 -0.2897  0.1875  0.3609
  132OSM   H10F14307   3.406   3.762   7.256 -0.2552 -0.7847  1.3409
  132OSM   C11F14308   3.209   3.668   7.298  0.1827  0.1637  0.4771
  132OSM   H11F14309   3.150   3.584   7.257 -0.2180  0.0340  1.3017
  132OSM   H11G14310   3.137   3.752   7.309  0.0909  0.1894 -0.3043
  132OSM   C12F14311   3.273   3.629   7.435  0.2479 -0.1944 -0.4465
  132OSM   H12F14312   3.322   3.719   7.479  1.1245 -0.1621 -1.4817
  132OSM   H12G14313   3.348   3.549   7.420 -0.7635 -2.3782  4.1792
  132OSM   C13F14314   3.171   3.568   7.535 -0.0812  0.6042 -0.1395
  132OSM   H13F14315   3.101   3.504   7.476  0.9500  1.7448 -2.7482
  132OSM   H13G14316   3.110   3.645   7.587 -1.0265 -0.7853  0.9124
  132OSM   C14F14317   3.228   3.471   7.643 -0.3573  0.3043  0.8057
  132OSM   H14F14318   3.257   3.378   7.588 -0.0577  0.7951  0.1235
  132OSM   H14G14319   3.141   3.435   7.703 -2.4340  0.6954 -1.8185
  132OSM   C15F14320   3.343   3.517   7.732 -0.4508 -0.4250  0.2872
  132OSM   H15F14321   3.318   3.597   7.805  2.5793  2.2531 -1.3336
  132OSM   H15G14322   3.426   3.547   7.664 -2.1935 -0.3600 -1.9185
  132OSM   C16F14323   3.405   3.403   7.819  0.4042 -0.0125 -1.1611
  132OSM   H16F14324   3.499   3.434   7.870 -1.5017  1.2521  1.8591
  132OSM   H16G14325   3.430   3.315   7.755  3.2205 -1.2973  1.3945
  132OSM   C17F14326   3.305   3.343   7.926 -0.2362 -0.2609 -0.2238
  132OSM   H17F14327   3.208   3.305   7.886 -1.3364  0.0705  1.9527
  132OSM   H17G14328   3.278   3.428   7.993 -1.2051 -0.2516 -0.6012
  132OSM   C18F14329   3.360   3.217   7.998  0.5708 -0.3109  0.1037
  132OSM   H18F14330   3.425   3.251   8.082  1.0982 -1.1192  0.0278
  132OSM   H18G14331   3.418   3.158   7.924 -1.5523 -2.2432 -0.1254
  132OSM   H18H14332   3.283   3.149   8.040  0.2106 -0.6583 -1.0822
  133OSM      N14333   2.222   4.267   6.118  0.5777  0.3882 -0.7878
  133OSM    C1514334   2.163   4.393   6.168  0.5110  0.3017 -0.0481
  133OSM   H15A14335   2.058   4.378   6.153  0.9414 -3.8750 -0.2793
  133OSM   H15B14336   2.200   4.483   6.121 -1.9697  0.9361 -0.8919
  133OSM   H15C14337   2.184   4.388   6.274  1.2887 -1.0453 -0.2404
  133OSM    C1414338   2.156   4.234   5.985  0.1177 -0.1400  0.0581
  133OSM   H14A14339   2.220   4.166   5.931  0.6771 -0.0574  0.6068
  133OSM   H14B14340   2.131   4.318   5.922 -3.8896 -0.6247  0.7317
  133OSM   H14C14341   2.067   4.178   6.009  0.5303 -0.3721  1.1365
  133OSM    C1314342   2.371   4.280   6.098 -0.0270 -0.3833  0.4453
  133OSM   H13A14343   2.417   4.323   6.185 -2.2737 -0.5857  1.7976
  133OSM   H13B14344   2.399   4.337   6.011  1.6935  1.9888  2.4113
  133OSM   H13C14345   2.416   4.182   6.084  2.1353  0.8674 -2.1061
  133OSM    C1214346   2.196   4.156   6.224 -0.5334 -0.2573  0.4149
  133OSM   H12A14347   2.256   4.185   6.309 -2.7001  3.5827  0.9003
  133OSM   H12B14348   2.232   4.063   6.183 -2.8639 -2.3187  2.7347
  133OSM    C1114349   2.058   4.128   6.268  0.0479 -0.4193  0.2051
  133OSM   H11A14350   2.003   4.223   6.287  1.7432  0.4693  0.8438
  133OSM   H11B14351   2.067   4.063   6.357  1.1742  0.1266  0.5002
  133OSM      P14352   2.018   3.908   6.127 -0.4037  0.3428 -0.2672
  133OSM    O1314353   1.908   3.870   6.034 -0.5310 -0.7004 -0.3494
  133OSM    O1414354   2.155   3.883   6.082  0.2752 -0.5804  0.1567
  133OSM    O1114355   1.990   3.841   6.266  0.2385 -0.1360 -0.4205
  133OSM    O1214356   1.996   4.060   6.160 -0.3131 -0.0981  0.3654
  133OSM    C1S14357   2.086   3.807   6.369 -0.4794 -0.5404  0.7297
  133OSM    H1S14358   2.151   3.890   6.402  2.9393 -2.6806 -0.0921
  133OSM    H1T14359   2.160   3.730   6.337  0.1772  0.8610 -1.3122
  133OSM     NF14360   2.122   3.720   6.589  0.6954  0.1464  0.3277
  133OSM    HNF14361   2.116   3.623   6.614 -0.9275  0.4797  1.3798
  133OSM    C2S14362   2.020   3.766   6.496  0.5002  0.2842 -0.6500
  133OSM    H2S14363   1.965   3.850   6.544  0.9752 -0.8439  2.0363
  133OSM    C3S14364   1.908   3.660   6.472  0.2700  0.4221 -0.1393
  133OSM    H3S14365   1.947   3.567   6.428 -1.7945 -0.5339 -0.0811
  133OSM     O314366   1.799   3.700   6.388 -0.5437  0.0820 -0.4249
  133OSM    HO314367   1.843   3.758   6.325 -1.0372 -0.6328 -1.4456
  133OSM    C4S14368   1.840   3.625   6.603  0.8761  0.6030  0.4724
  133OSM    H4S14369   1.800   3.718   6.647  1.7273  1.8645 -1.2871
  133OSM    C5S14370   1.846   3.510   6.667 -0.0677  0.3436 -0.0368
  133OSM    H5S14371   1.916   3.435   6.627  0.2464  0.4468  0.3072
  133OSM    C6S14372   1.785   3.482   6.799  0.3755 -0.1406 -0.1018
  133OSM    H6S14373   1.684   3.437   6.797 -0.6126  1.9462 -0.3465
  133OSM    H6T14374   1.759   3.574   6.856 -1.7318 -1.1386  0.6562
  133OSM    C7S14375   1.876   3.399   6.890 -0.3427  0.4834  0.4233
  133OSM    H7S14376   1.967   3.462   6.904 -0.6917  2.1064 -3.4058
  133OSM    H7T14377   1.918   3.309   6.840 -1.0311  0.5051 -0.1998
  133OSM    C8S14378   1.820   3.350   7.026  0.2733 -0.8206  0.1860
  133OSM    H8S14379   1.901   3.290   7.072  1.5999 -0.8625 -2.0613
  133OSM    H8T14380   1.732   3.283   7.020 -0.9247  0.7485 -0.5878
  133OSM    C9S14381   1.772   3.462   7.111  0.5965 -0.0163  0.5043
  133OSM    H9S14382   1.704   3.520   7.045  2.1475 -1.5830 -2.6709
  133OSM    H9T14383   1.852   3.535   7.135 -0.4625  1.2897  0.2355
  133OSM   C10S14384   1.706   3.404   7.235  0.4748 -0.0430 -0.3580
  133OSM   H10S14385   1.786   3.344   7.283 -0.6839 -1.0081  0.4131
  133OSM   H10T14386   1.611   3.348   7.221 -0.5278  1.5008  0.0957
  133OSM   C11S14387   1.671   3.505   7.344  0.1112  1.0555  0.0139
  133OSM   H11S14388   1.580   3.551   7.300  0.1432 -0.8855 -2.2726
  133OSM   H11T14389   1.759   3.569   7.367  1.2565 -1.1833  2.3027
  133OSM   C12S14390   1.638   3.426   7.470 -0.1678  0.4879  0.3867
  133OSM   H12S14391   1.722   3.363   7.508  1.0652  1.6424 -0.3779
  133OSM   H12T14392   1.550   3.361   7.452 -1.3477  1.7621  1.3351
  133OSM   C13S14393   1.605   3.513   7.584  0.1182 -0.6198 -0.1429
  133OSM   H13S14394   1.522   3.582   7.559  0.0099 -0.3510  0.8943
  133OSM   H13T14395   1.701   3.562   7.610  0.1481 -1.6237  1.8182
  133OSM   C14S14396   1.561   3.442   7.722  0.5518  0.2828  0.0328
  133OSM   H14S14397   1.646   3.389   7.770  1.2873  1.8895  0.5608
  133OSM   H14T14398   1.485   3.363   7.705  3.8022 -2.7948 -1.6195
  133OSM   C15S14399   1.509   3.540   7.824  0.5264 -0.4413 -0.5542
  133OSM   H15S14400   1.442   3.608   7.767  1.2448 -0.5995 -1.6198
  133OSM   H15T14401   1.598   3.596   7.861  1.1526 -0.9448 -1.2638
  133OSM   C16S14402   1.433   3.487   7.946 -0.0812  0.8319  0.7551
  133OSM   H16S14403   1.468   3.384   7.971  2.2752  1.3237 -0.2228
  133OSM   H16T14404   1.327   3.468   7.916 -0.0770  1.7251  0.1609
  133OSM   C17S14405   1.439   3.585   8.066  0.0495  0.0082 -0.0165
  133OSM   H17S14406   1.410   3.685   8.027  0.3380 -0.0612 -0.4227
  133OSM   H17T14407   1.544   3.584   8.102  0.5008 -2.2470 -1.1932
  133OSM   C18S14408   1.341   3.540   8.173  0.3540 -0.2431  0.8384
  133OSM   H18S14409   1.372   3.442   8.215  1.6989  1.1349  3.3409
  133OSM   H18T14410   1.244   3.537   8.120  2.0755  1.0919 -2.7459
  133OSM   H18U14411   1.334   3.611   8.258  1.6744  1.6569 -0.5499
  133OSM    C1F14412   2.213   3.796   6.642 -0.0364 -0.1144  0.1438
  133OSM     OF14413   2.220   3.911   6.616  0.4137 -0.2655 -0.0573
  133OSM    C2F14414   2.316   3.726   6.726  0.0581 -0.5907 -0.1901
  133OSM    H2F14415   2.389   3.667   6.666  0.2020  0.0529 -0.6492
  133OSM    H2G14416   2.257   3.653   6.786 -0.8198  0.5628  0.3695
  133OSM    C3F14417   2.394   3.822   6.818  0.2783 -0.3184 -0.8449
  133OSM    H3F14418   2.318   3.863   6.888 -0.2897 -1.0521 -1.0127
  133OSM    H3G14419   2.452   3.900   6.766 -0.7496  0.4627 -0.8562
  133OSM    C4F14420   2.487   3.723   6.894  0.3433  0.9283 -0.1790
  133OSM    H4F14421   2.552   3.674   6.817 -1.8010 -2.1706 -0.1953
  133OSM    H4G14422   2.435   3.635   6.936 -1.7535  1.8815 -0.6415
  133OSM    C5F14423   2.582   3.794   7.002 -0.8651  0.2166  0.4491
  133OSM    H5F14424   2.521   3.826   7.089 -1.0210  0.6938  0.1669
  133OSM    H5G14425   2.625   3.883   6.951 -0.1913 -0.0563  0.5326
  133OSM    C6F14426   2.696   3.709   7.065 -0.1257 -0.5510  0.6883
  133OSM    H6F14427   2.759   3.772   7.131  0.7775 -0.6824 -0.0263
  133OSM    H6G14428   2.766   3.678   6.984 -1.2738 -3.4423  0.6659
  133OSM    C7F14429   2.657   3.594   7.154 -0.2502  0.3136  0.4152
  133OSM    H7F14430   2.592   3.520   7.103  0.7581 -0.7844  0.6748
  133OSM    H7G14431   2.595   3.640   7.235 -1.2838 -1.9255  0.9632
  133OSM    C8F14432   2.792   3.536   7.218 -0.1486  0.2946  0.2100
  133OSM    H8F14433   2.828   3.608   7.295 -1.9658  1.2295  0.2323
  133OSM    H8G14434   2.866   3.518   7.137 -1.8452  0.7927 -1.5213
  133OSM    C9F14435   2.748   3.413   7.295 -0.3935 -0.2967 -0.0150
  133OSM    H9F14436   2.737   3.320   7.237 -1.0067 -0.4296  0.3051
  133OSM   C10F14437   2.710   3.407   7.427  1.6828 -0.1799  0.3674
  133OSM   H10F14438   2.694   3.305   7.464  1.4460 -0.8255 -1.4217
  133OSM   C11F14439   2.710   3.520   7.525  0.2512  0.4904 -0.1656
  133OSM   H11F14440   2.608   3.563   7.515  0.0238  0.3453  1.2732
  133OSM   H11G14441   2.784   3.600   7.505 -0.2516  1.0908  0.3243
  133OSM   C12F14442   2.740   3.477   7.665  0.1454  0.6241  0.3674
  133OSM   H12F14443   2.839   3.428   7.674 -0.5291 -0.6804  0.9284
  133OSM   H12G14444   2.680   3.386   7.683  0.7746 -0.1864 -1.3700
  133OSM   C13F14445   2.731   3.576   7.776  0.5497  0.6873 -0.9907
  133OSM   H13F14446   2.625   3.608   7.777  0.1750 -0.5213 -0.7342
  133OSM   H13G14447   2.795   3.665   7.756 -0.8919  1.4155 -2.7017
  133OSM   C14F14448   2.769   3.520   7.919 -0.0155 -0.7031 -0.2769
  133OSM   H14F14449   2.880   3.512   7.914  0.1185  0.3586  0.5559
  133OSM   H14G14450   2.719   3.428   7.956 -0.4510 -0.4195 -0.1517
  133OSM   C15F14451   2.729   3.622   8.027 -0.3773 -0.9204 -0.6577
  133OSM   H15F14452   2.619   3.634   8.035 -0.0779  2.7124 -0.5161
  133OSM   H15G14453   2.775   3.715   7.988 -1.5130 -0.6880 -1.4807
  133OSM   C16F14454   2.797   3.585   8.160 -0.5456 -0.0809 -0.2605
  133OSM   H16F14455   2.896   3.540   8.134 -0.7461  1.1683 -3.7794
  133OSM   H16G14456   2.751   3.494   8.205  1.2772 -1.1558 -0.4485
  133OSM   C17F14457   2.821   3.694   8.267  0.1223  0.0551 -0.8810
  133OSM   H17F14458   2.731   3.758   8.257  1.1770  1.9651  1.0735
  133OSM   H17G14459   2.908   3.758   8.241 -0.7151  1.5279 -0.1912
  133OSM   C18F14460   2.816   3.628   8.402  0.4136 -0.3486  0.6429
  133OSM   H18F14461   2.826   3.700   8.486 -0.0690 -0.8520  1.1357
  133OSM   H18G14462   2.905   3.562   8.405  1.6553  1.2055 -0.2043
  133OSM   H18H14463   2.721   3.572   8.413 -0.6995  1.2678 -0.3158
  134OSM      N14464   4.966   5.881   6.138  0.4211 -0.0074 -0.3656
  134OSM    C1514465   4.845   5.858   6.053  0.1980 -0.4636  0.3950
  134OSM   H15A14466   4.816   5.941   5.990  0.5649 -0.6347 -0.0060
  134OSM   H15B14467   4.756   5.849   6.113  0.3272 -1.5952  0.4465
  134OSM   H15C14468   4.854   5.767   5.994  0.6987  1.3798 -2.6039
  134OSM    C1414469   5.005   5.760   6.211  0.6197 -0.6768 -0.0771
  134OSM   H14A14470   4.932   5.731   6.285  0.1632 -0.1916 -0.3353
  134OSM   H14B14471   5.100   5.779   6.259  1.1124  0.5247 -1.4461
  134OSM   H14C14472   5.021   5.672   6.150  0.2196 -0.5201 -0.4193
  134OSM    C1314473   5.075   5.926   6.049 -0.4277  0.8872  0.2006
  134OSM   H13A14474   5.153   5.981   6.098  1.5557 -2.0565  0.5623
  134OSM   H13B14475   5.026   5.973   5.965 -1.0765 -2.1701 -1.2793
  134OSM   H13C14476   5.113   5.836   6.002  0.0376 -0.3880  2.8539
  134OSM    C1214477   4.942   5.994   6.244  0.2217 -0.5914  0.7042
  134OSM   H12A14478   4.903   6.082   6.196 -0.1026 -2.0340 -1.9177
  134OSM   H12B14479   5.033   6.027   6.292 -0.8966 -0.2075  2.6250
  134OSM    C1114480   4.833   5.960   6.351  0.0887  0.6553  0.6611
  134OSM   H11A14481   4.847   6.044   6.422  0.6133  0.7989  0.3944
  134OSM   H11B14482   4.863   5.870   6.408 -0.6137  0.6626  1.0521
  134OSM      P14483   4.574   6.021   6.355  0.0335  0.1713 -0.1229
  134OSM    O1314484   4.588   6.165   6.336  0.0698  0.8166 -0.3917
  134OSM    O1414485   4.455   5.958   6.305  0.7925 -0.1619  0.1306
  134OSM    O1114486   4.577   5.988   6.506  0.1342  0.5863  0.8444
  134OSM    O1214487   4.703   5.948   6.294 -0.3328 -0.2352 -0.1771
  134OSM    C1S14488   4.663   6.050   6.600 -0.2196 -0.7224 -0.0514
  134OSM    H1S14489   4.700   6.150   6.568  1.4054 -1.2099  0.2146
  134OSM    H1T14490   4.758   5.995   6.615  1.2083  1.5199 -0.3903
  134OSM     NF14491   4.696   6.152   6.821 -0.3408  0.1714 -0.2426
  134OSM    HNF14492   4.764   6.104   6.876  2.4703  1.2680 -2.5276
  134OSM    C2S14493   4.606   6.073   6.741 -0.3081 -0.2070  0.5356
  134OSM    H2S14494   4.507   6.121   6.721 -0.3084 -0.7967 -0.9612
  134OSM    C3S14495   4.570   5.938   6.803  0.2819  0.0904 -0.1423
  134OSM    H3S14496   4.656   5.874   6.832 -0.8049 -0.7682  1.3526
  134OSM     O314497   4.496   5.861   6.716  0.2390 -0.2447  0.4689
  134OSM    HO314498   4.525   5.892   6.630 -0.9345  0.6910  0.3857
  134OSM    C4S14499   4.485   5.958   6.931 -0.1212 -0.5342 -0.2116
  134OSM    H4S14500   4.391   6.014   6.917  0.2821 -0.3792 -3.0216
  134OSM    C5S14501   4.529   5.918   7.048  0.4121  0.0764 -0.2789
  134OSM    H5S14502   4.620   5.856   7.040 -0.2541 -1.0164  0.4227
  134OSM    C6S14503   4.462   5.935   7.186 -1.1349 -0.3580  0.5762
  134OSM    H6S14504   4.533   5.991   7.250  0.8501 -0.2067 -1.6255
  134OSM    H6T14505   4.456   5.832   7.227 -0.3856 -0.9410 -0.7095
  134OSM    C7S14506   4.327   6.008   7.186 -0.6283  0.5187  0.0552
  134OSM    H7S14507   4.250   5.950   7.130 -1.6663 -0.8859  2.7287
  134OSM    H7T14508   4.333   6.103   7.129  0.8420 -0.0306 -0.7600
  134OSM    C8S14509   4.278   6.040   7.331 -0.5728  0.2123 -0.0608
  134OSM    H8S14510   4.185   6.096   7.308  0.0391  1.1378 -0.3295
  134OSM    H8T14511   4.340   6.115   7.384  0.2823 -0.8888  0.5475
  134OSM    C9S14512   4.244   5.910   7.407  0.2659  0.2778  0.4584
  134OSM    H9S14513   4.341   5.859   7.422  0.5524 -0.1096 -2.2518
  134OSM    H9T14514   4.181   5.857   7.332 -0.5047  2.3955 -0.4837
  134OSM   C10S14515   4.163   5.916   7.528  0.8254  0.2559 -0.7969
  134OSM   H10S14516   4.169   5.817   7.578 -2.7380  1.1995  1.9407
  134OSM   H10T14517   4.052   5.913   7.518  0.9497 -2.2246 -2.3825
  134OSM   C11S14518   4.209   6.011   7.645 -0.3636  0.1850  0.4527
  134OSM   H11S14519   4.123   6.019   7.716 -1.7339  1.1363 -1.2434
  134OSM   H11T14520   4.240   6.109   7.605  1.1659 -0.0348  1.0358
  134OSM   C12S14521   4.335   5.954   7.713  0.2424  0.0517  0.2564
  134OSM   H12S14522   4.410   5.922   7.637  0.1744  0.3546  0.0595
  134OSM   H12T14523   4.311   5.857   7.762  0.0849  0.6100  1.3085
  134OSM   C13S14524   4.399   6.049   7.810 -0.1937  0.1605 -0.0468
  134OSM   H13S14525   4.415   6.147   7.759 -1.6767 -0.7707 -2.4917
  134OSM   H13T14526   4.496   6.008   7.844  0.1310  0.6497 -0.3713
  134OSM   C14S14527   4.310   6.069   7.944 -0.8478  0.8379 -0.7036
  134OSM   H14S14528   4.375   6.078   8.033 -1.5182 -0.1823 -0.0908
  134OSM   H14T14529   4.250   5.976   7.958  0.5364 -0.1223 -0.9619
  134OSM   C15S14530   4.219   6.188   7.948 -0.7220 -0.1145  0.6496
  134OSM   H15S14531   4.148   6.175   7.863 -1.3547 -0.7647  1.2546
  134OSM   H15T14532   4.274   6.284   7.939  0.5569 -0.6183  2.4309
  134OSM   C16S14533   4.125   6.198   8.070  0.3932 -0.9439 -0.0304
  134OSM   H16S14534   4.057   6.110   8.074 -0.8192 -0.0483 -0.4713
  134OSM   H16T14535   4.057   6.284   8.054  0.7143 -0.5696  0.5656
  134OSM   C17S14536   4.192   6.207   8.203  0.6315  0.2584  0.1317
  134OSM   H17S14537   4.262   6.294   8.201 -0.1731  0.9466  0.8680
  134OSM   H17T14538   4.251   6.118   8.233  2.5607  1.9214  1.5648
  134OSM   C18S14539   4.079   6.223   8.306  0.0671 -0.2021  0.1365
  134OSM   H18S14540   4.011   6.136   8.289 -0.8881  0.3224  1.1296
  134OSM   H18T14541   4.025   6.317   8.281 -2.1741 -0.5617  2.9534
  134OSM   H18U14542   4.117   6.232   8.410 -0.8639 -2.1841  0.6999
  134OSM    C1F14543   4.700   6.286   6.817  0.4486 -0.4207  0.0988
  134OSM     OF14544   4.634   6.349   6.739  1.3282 -0.0761  0.4466
  134OSM    C2F14545   4.800   6.354   6.902  0.1326  0.3360 -0.2593
  134OSM    H2F14546   4.781   6.463   6.909  1.3546  0.5664 -0.1905
  134OSM    H2G14547   4.899   6.330   6.858 -0.5486 -2.6645 -0.3666
  134OSM    C3F14548   4.797   6.285   7.043  0.0989 -0.6865  0.7537
  134OSM    H3F14549   4.878   6.339   7.097  0.0425 -1.6564  1.8398
  134OSM    H3G14550   4.816   6.176   7.041  2.2293 -0.3891  1.7364
  134OSM    C4F14551   4.670   6.322   7.131 -0.4712 -0.1475  0.0857
  134OSM    H4F14552   4.590   6.269   7.075 -0.7068 -0.6656  0.9111
  134OSM    H4G14553   4.646   6.430   7.122 -0.0582 -0.2201 -3.1497
  134OSM    C5F14554   4.699   6.259   7.271  0.0415  0.3733  0.3248
  134OSM    H5F14555   4.798   6.271   7.320  0.8666 -1.1952 -0.8433
  134OSM    H5G14556   4.686   6.149   7.257 -1.3552  0.6184 -0.5139
  134OSM    C6F14557   4.595   6.311   7.373 -0.3404  0.5925 -0.8338
  134OSM    H6F14558   4.493   6.301   7.330 -0.6071 -0.1832 -0.0507
  134OSM    H6G14559   4.613   6.420   7.387 -2.0351  0.5789  2.4560
  134OSM    C7F14560   4.607   6.242   7.513  0.0653 -0.4983 -0.0321
  134OSM    H7F14561   4.666   6.148   7.505  0.4271 -0.3789  1.1196
  134OSM    H7G14562   4.507   6.208   7.547 -1.4750 -0.2956 -3.8677
  134OSM    C8F14563   4.678   6.311   7.626 -0.1127  0.3788 -0.2056
  134OSM    H8F14564   4.776   6.348   7.588  0.2376 -3.4700 -3.7151
  134OSM    H8G14565   4.711   6.233   7.698 -0.2310 -0.2033 -0.7730
  134OSM    C9F14566   4.601   6.416   7.694  0.0755  0.2881  0.1994
  134OSM    H9F14567   4.550   6.492   7.633 -1.8870  0.0347  1.4392
  134OSM   C10F14568   4.572   6.429   7.827  0.2650  1.0303 -0.6549
  134OSM   H10F14569   4.527   6.521   7.868 -1.3438  0.2349 -0.5686
  134OSM   C11F14570   4.629   6.352   7.940 -0.1911 -0.0466 -0.5387
  134OSM   H11F14571   4.710   6.285   7.903 -0.3112 -0.5473  0.0938
  134OSM   H11G14572   4.559   6.274   7.976  0.4414 -0.6014 -0.4899
  134OSM   C12F14573   4.693   6.435   8.051  0.5731  0.0070  0.4055
  134OSM   H12F14574   4.727   6.374   8.137  2.4820  1.0523  0.4541
  134OSM   H12G14575   4.615   6.499   8.097 -0.2845 -1.3343  0.8517
  134OSM   C13F14576   4.809   6.526   8.025  0.0992 -0.8563  0.1383
  134OSM   H13F14577   4.801   6.602   7.944  2.4818  0.5862  1.1232
  134OSM   H13G14578   4.884   6.463   7.973 -1.2321 -1.4012 -1.1733
  134OSM   C14F14579   4.872   6.590   8.152  0.6608  0.2705  0.2619
  134OSM   H14F14580   4.950   6.665   8.128  1.4637 -0.2139  1.2337
  134OSM   H14G14581   4.934   6.523   8.216  2.1811  0.1012 -1.3158
  134OSM   C15F14582   4.763   6.661   8.230 -0.4228 -0.1716 -0.1567
  134OSM   H15F14583   4.688   6.593   8.276 -0.6831 -0.0469 -0.3957
  134OSM   H15G14584   4.703   6.719   8.158  1.7585  1.5880 -0.6723
  134OSM   C16F14585   4.827   6.763   8.319  0.0394 -0.3252 -0.6130
  134OSM   H16F14586   4.894   6.819   8.250  0.8945 -1.6511 -0.8940
  134OSM   H16G14587   4.886   6.715   8.400 -1.0082 -2.6907 -1.1671
  134OSM   C17F14588   4.719   6.855   8.384 -0.4640 -0.9187  0.2774
  134OSM   H17F14589   4.652   6.798   8.452  1.3721 -1.6273  1.5833
  134OSM   H17G14590   4.650   6.895   8.307 -0.5801 -0.3089  0.6945
  134OSM   C18F14591   4.789   6.968   8.466  0.9385  0.1446  0.1385
  134OSM   H18F14592   4.809   7.054   8.398 -0.8990  0.1871 -0.4139
  134OSM   H18G14593   4.883   6.930   8.512  0.4173 -2.1939 -0.6391
  134OSM   H18H14594   4.718   7.003   8.544  1.9813 -0.8714  1.5858
  135OSM      N14595   4.263   6.322   6.177 -0.4221  0.1019 -0.0305
  135OSM    C1514596   4.402   6.364   6.135 -0.4494 -0.0976 -0.0947
  135OSM   H15A14597   4.431   6.466   6.154  0.3127 -0.2527 -0.3834
  135OSM   H15B14598   4.421   6.352   6.029 -0.7925  2.6282 -0.5286
  135OSM   H15C14599   4.468   6.299   6.191  0.6619  0.1893 -1.0298
  135OSM    C1414600   4.167   6.388   6.090 -0.9082  0.4365 -0.2742
  135OSM   H14A14601   4.187   6.359   5.988  0.0756  0.9510 -0.2476
  135OSM   H14B14602   4.185   6.495   6.095 -1.0562  0.3930  1.8821
  135OSM   H14C14603   4.062   6.373   6.105 -1.3084  3.2905  0.4322
  135OSM    C1314604   4.248   6.172   6.159 -0.2544 -0.0497  0.9695
  135OSM   H13A14605   4.324   6.128   6.222  0.9616 -0.5196 -0.7669
  135OSM   H13B14606   4.267   6.132   6.061 -1.5959  0.5910  0.4172
  135OSM   H13C14607   4.149   6.136   6.184  0.6026 -2.0363  1.6909
  135OSM    C1214608   4.253   6.376   6.320  1.0728 -0.7161  0.3389
  135OSM   H12A14609   4.258   6.483   6.312 -0.2313 -0.4491  2.4085
  135OSM   H12B14610   4.347   6.356   6.370  1.2253 -1.1329 -0.1067
  135OSM    C1114611   4.131   6.338   6.410  0.5246  0.6402  0.3848
  135OSM   H11A14612   4.146   6.375   6.513  1.3417  2.1944 -0.2498
  135OSM   H11B14613   4.121   6.227   6.412  1.5628  0.5218 -0.2749
  135OSM      P14614   3.938   6.511   6.433 -0.2002 -0.0800 -0.3094
  135OSM    O1314615   4.038   6.619   6.460 -0.2699 -0.1462  0.2073
  135OSM    O1414616   3.816   6.554   6.357 -0.4639 -0.3130  0.4882
  135OSM    O1114617   3.886   6.440   6.558  0.0900 -0.0516 -0.2391
  135OSM    O1214618   4.015   6.396   6.353  0.2004 -0.0241  0.0087
  135OSM    C1S14619   3.794   6.337   6.566  0.1739  0.6974  0.2965
  135OSM    H1S14620   3.843   6.240   6.542  1.9067  0.4644  4.0362
  135OSM    H1T14621   3.714   6.363   6.493 -0.7906 -1.5145  0.4808
  135OSM     NF14622   3.612   6.237   6.699  0.5973  0.1218 -0.7962
  135OSM    HNF14623   3.519   6.267   6.679 -0.2624 -1.5546  0.5045
  135OSM    C2S14624   3.720   6.342   6.703  0.3649  0.0203  0.9921
  135OSM    H2S14625   3.793   6.314   6.782  1.8190  0.3631 -0.1989
  135OSM    C3S14626   3.651   6.476   6.741 -0.2198  0.1400  0.1638
  135OSM    H3S14627   3.569   6.506   6.672 -0.7776 -1.6635 -0.0103
  135OSM     O314628   3.736   6.587   6.735 -0.1172 -0.3060  0.3936
  135OSM    HO314629   3.814   6.543   6.701  0.7109  1.7645 -0.5920
  135OSM    C4S14630   3.592   6.457   6.883 -0.8537 -0.3031 -0.1222
  135OSM    H4S14631   3.670   6.453   6.960 -0.6255  1.9029 -0.1677
  135OSM    C5S14632   3.459   6.438   6.914 -0.0689  0.1754 -0.8470
  135OSM    H5S14633   3.384   6.426   6.835 -0.4510  1.6294 -0.7342
  135OSM    C6S14634   3.401   6.419   7.054  0.2109  0.2134  0.8180
  135OSM    H6S14635   3.365   6.315   7.069 -2.7930  1.3449  2.1212
  135OSM    H6T14636   3.312   6.485   7.064  1.4380  1.6937  2.5746
  135OSM    C7S14637   3.511   6.443   7.158  0.1040  0.3354  0.4114
  135OSM    H7S14638   3.568   6.535   7.131  1.4503 -1.2101 -2.5387
  135OSM    H7T14639   3.590   6.366   7.164  1.0034  0.9895 -1.8295
  135OSM    C8S14640   3.448   6.477   7.294 -0.0925  0.1699 -0.3995
  135OSM    H8S14641   3.414   6.386   7.348  0.0867  0.3480  0.0201
  135OSM    H8T14642   3.360   6.543   7.284 -1.6914 -1.8640 -0.2894
  135OSM    C9S14643   3.547   6.543   7.380 -0.6208  0.2652  0.3185
  135OSM    H9S14644   3.583   6.631   7.322 -1.6735  0.4975 -0.0076
  135OSM    H9T14645   3.632   6.474   7.398 -0.4350  0.7902  1.5375
  135OSM   C10S14646   3.488   6.572   7.518 -0.3965 -0.5640 -0.3441
  135OSM   H10S14647   3.443   6.487   7.573 -0.2145  0.0047  0.7109
  135OSM   H10T14648   3.407   6.648   7.511 -1.0830 -0.9832  2.0743
  135OSM   C11S14649   3.598   6.602   7.615  0.7662 -0.1707 -0.1513
  135OSM   H11S14650   3.659   6.690   7.586 -0.0974  0.2298 -0.8179
  135OSM   H11T14651   3.675   6.522   7.616  3.8666  2.6360  0.1124
  135OSM   C12S14652   3.546   6.633   7.755 -0.5655  0.2289 -0.4139
  135OSM   H12S14653   3.496   6.540   7.791 -3.2396  1.4608 -0.7034
  135OSM   H12T14654   3.471   6.714   7.747 -0.6211  0.3006  0.7190
  135OSM   C13S14655   3.659   6.681   7.848 -0.1946  0.9845 -0.3134
  135OSM   H13S14656   3.690   6.777   7.800 -0.2229  0.3179 -1.7082
  135OSM   H13T14657   3.742   6.608   7.846  0.6756  1.9358 -0.0629
  135OSM   C14S14658   3.594   6.711   7.984 -0.0866 -0.4281  0.3252
  135OSM   H14S14659   3.490   6.742   7.957  0.6122  0.6400 -1.2802
  135OSM   H14T14660   3.645   6.802   8.022 -0.0262 -0.2513 -0.1596
  135OSM   C15S14661   3.603   6.588   8.073  0.2499 -1.4121 -0.5928
  135OSM   H15S14662   3.703   6.581   8.121  0.2129  0.9180 -0.0237
  135OSM   H15T14663   3.593   6.498   8.010 -2.2258 -2.4343  1.1238
  135OSM   C16S14664   3.482   6.578   8.173  0.0581  0.0165 -0.4551
  135OSM   H16S14665   3.485   6.480   8.224  1.3783 -0.3859 -1.2735
  135OSM   H16T14666   3.390   6.579   8.111  0.3886 -0.0739 -0.9531
  135OSM   C17S14667   3.466   6.690   8.274 -0.8322  0.1819  0.5883
  135OSM   H17S14668   3.367   6.675   8.322 -2.4181 -0.7476 -2.7027
  135OSM   H17T14669   3.462   6.787   8.221 -0.2648 -0.2589 -0.2838
  135OSM   C18S14670   3.585   6.684   8.376 -0.0412 -1.0482  0.6407
  135OSM   H18S14671   3.572   6.764   8.452  4.7792  0.8491 -0.1801
  135OSM   H18T14672   3.676   6.710   8.318  1.2660 -3.7500  1.3394
  135OSM   H18U14673   3.599   6.584   8.423  2.2499 -0.4634  1.3254
  135OSM    C1F14674   3.644   6.103   6.702 -0.2343 -0.3364 -0.4212
  135OSM     OF14675   3.760   6.063   6.734  0.2107 -0.0238 -0.5346
  135OSM    C2F14676   3.530   6.011   6.663  0.5177 -0.0453 -0.5833
  135OSM    H2F14677   3.587   5.924   6.623  0.4461 -0.5960  0.4891
  135OSM    H2G14678   3.470   6.051   6.579  1.9425 -0.1640 -1.7045
  135OSM    C3F14679   3.450   5.964   6.790 -0.0121 -0.9597 -0.0662
  135OSM    H3F14680   3.382   6.047   6.818  0.7906 -1.3349  3.4473
  135OSM    H3G14681   3.519   5.939   6.873 -1.5463  0.3526  1.6776
  135OSM    C4F14682   3.361   5.838   6.782  0.0072 -0.2209 -0.1648
  135OSM    H4F14683   3.420   5.745   6.794 -1.4507 -0.9020  2.8198
  135OSM    H4G14684   3.314   5.841   6.681 -0.8080 -1.2198  0.1674
  135OSM    C5F14685   3.250   5.831   6.893 -0.1196 -0.9656  0.3709
  135OSM    H5F14686   3.291   5.855   6.993 -1.5597 -1.6993  1.1734
  135OSM    H5G14687   3.212   5.727   6.905  0.1781 -0.8212  3.0965
  135OSM    C6F14688   3.141   5.932   6.877  0.5329  0.9486  0.2964
  135OSM    H6F14689   3.093   5.926   6.777 -1.8348 -1.4576  1.4521
  135OSM    H6G14690   3.175   6.036   6.896 -0.1453  1.3297 -0.4615
  135OSM    C7F14691   3.022   5.902   6.971  0.3332  0.8982 -0.0222
  135OSM    H7F14692   3.000   5.794   6.963  1.6904  0.5645  0.5052
  135OSM    H7G14693   2.939   5.962   6.928 -1.3850 -2.3098 -1.5296
  135OSM    C8F14694   3.065   5.925   7.114  0.1906 -0.0599 -0.2228
  135OSM    H8F14695   3.130   6.015   7.117 -0.8092  0.8621 -2.8857
  135OSM    H8G14696   3.131   5.843   7.149  1.8059  0.6171 -1.5525
  135OSM    C9F14697   2.935   5.934   7.195  0.5345 -0.0927  0.2839
  135OSM    H9F14698   2.898   5.843   7.244 -0.5442 -0.9922 -2.0577
  135OSM   C10F14699   2.864   6.049   7.217  0.0958  0.3790 -0.4801
  135OSM   H10F14700   2.768   6.057   7.269 -0.7112  0.0016 -1.8662
  135OSM   C11F14701   2.895   6.191   7.178  0.7389  0.3254 -0.0136
  135OSM   H11F14702   2.808   6.238   7.127  2.4213  1.3757 -2.0925
  135OSM   H11G14703   2.974   6.198   7.100  0.0610 -0.8417 -0.8462
  135OSM   C12F14704   2.929   6.276   7.305 -0.0393  0.1539 -0.2264
  135OSM   H12F14705   2.837   6.280   7.366  0.2861 -1.3835  0.4261
  135OSM   H12G14706   2.936   6.383   7.276 -0.0361  0.1982 -0.0628
  135OSM   C13F14707   3.052   6.247   7.390 -0.3858 -0.6056  0.0125
  135OSM   H13F14708   3.147   6.238   7.333 -0.6498  0.6870 -0.6779
  135OSM   H13G14709   3.027   6.160   7.455 -2.0168  1.5613  2.4895
  135OSM   C14F14710   3.076   6.359   7.496  0.9959 -0.0691 -0.2033
  135OSM   H14F14711   2.977   6.385   7.540  0.2557 -2.2997 -0.4032
  135OSM   H14G14712   3.133   6.451   7.474  1.1797 -0.3558 -0.9663
  135OSM   C15F14713   3.150   6.293   7.612 -0.5250 -0.4489 -0.2992
  135OSM   H15F14714   3.245   6.245   7.579  1.0603  1.5049  1.1150
  135OSM   H15G14715   3.092   6.207   7.651 -1.7124  0.8838  1.0235
  135OSM   C16F14716   3.192   6.374   7.734  0.2635 -0.4542 -0.1746
  135OSM   H16F14717   3.233   6.467   7.689 -0.4155 -1.7800 -3.8325
  135OSM   H16G14718   3.283   6.316   7.763  0.1267  0.4009  2.1979
  135OSM   C17F14719   3.094   6.382   7.848  0.1742  0.3340 -0.7180
  135OSM   H17F14720   3.161   6.403   7.934  0.3431  2.4806 -1.3250
  135OSM   H17G14721   3.053   6.282   7.876  0.3441  0.2385 -0.8092
  135OSM   C18F14722   3.003   6.501   7.844  0.6063 -0.2523 -0.0766
  135OSM   H18F14723   2.934   6.500   7.757  0.6107  2.9961 -0.2481
  135OSM   H18G14724   3.065   6.593   7.832  0.8203 -0.5436 -1.3261
  135OSM   H18H14725   2.935   6.509   7.932 -0.7827  0.5915 -1.1774
  136OSM      N14726   1.189   4.867   5.822 -0.3948  0.1053 -0.0309
  136OSM    C1514727   1.184   5.019   5.817 -0.4296 -0.4336 -0.1564
  136OSM   H15A14728   1.122   5.049   5.733  1.3643  0.5070 -1.1953
  136OSM   H15B14729   1.281   5.065   5.810  2.6887 -6.0012  0.6561
  136OSM   H15C14730   1.136   5.059   5.905 -1.5111  1.2097 -1.4410
  136OSM    C1414731   1.052   4.809   5.842  0.2443  0.0102  0.7489
  136OSM   H14A14732   1.042   4.701   5.841 -0.1459  0.0499  0.3445
  136OSM   H14B14733   0.985   4.846   5.766  0.9347 -2.9780 -1.5103
  136OSM   H14C14734   1.023   4.833   5.943 -1.9353 -0.5074  0.3026
  136OSM    C1314735   1.252   4.814   5.694 -0.3993  0.2890  0.1900
  136OSM   H13A14736   1.251   4.706   5.695  1.0371  0.2576  0.6149
  136OSM   H13B14737   1.356   4.843   5.706 -0.6564  0.5713  1.8763
  136OSM   H13C14738   1.215   4.850   5.599 -0.4681  2.2512  0.9163
  136OSM    C1214739   1.284   4.825   5.933  0.5917 -0.2391  0.1042
  136OSM   H12A14740   1.386   4.853   5.911  0.4460 -1.0515 -1.7892
  136OSM   H12B14741   1.284   4.717   5.940 -0.8654 -0.2931 -0.4849
  136OSM    C1114742   1.254   4.878   6.077 -0.6678 -0.5493 -0.0593
  136OSM   H11A14743   1.271   4.987   6.065 -0.0501 -0.5078  1.0781
  136OSM   H11B14744   1.335   4.834   6.139 -0.0807 -0.4266 -0.7111
  136OSM      P14745   1.022   4.921   6.187 -0.4379  0.0061 -0.2356
  136OSM    O1314746   1.026   5.059   6.136 -0.0696 -0.8502 -0.2765
  136OSM    O1414747   0.893   4.853   6.161 -0.5575 -0.0238 -0.0802
  136OSM    O1114748   1.055   4.919   6.348  0.0659 -0.4527  0.1178
  136OSM    O1214749   1.131   4.823   6.118  0.1865  0.0512  0.2199
  136OSM    C1S14750   1.118   4.801   6.401 -0.2498 -1.1501  0.1295
  136OSM    H1S14751   1.224   4.808   6.369 -0.0023  0.7539  1.2159
  136OSM    H1T14752   1.068   4.711   6.357  0.7263 -0.5443 -2.4333
  136OSM     NF14753   1.210   4.722   6.610 -0.2770  0.2798  0.8280
  136OSM    HNF14754   1.177   4.628   6.611  0.5870 -0.0638  2.7936
  136OSM    C2S14755   1.116   4.819   6.556 -0.7595  0.3744  0.4840
  136OSM    H2S14756   1.142   4.922   6.586 -1.6831  0.5781  0.6122
  136OSM    C3S14757   0.970   4.802   6.605 -0.6311 -1.1608 -0.0379
  136OSM    H3S14758   0.940   4.702   6.566  1.2743 -1.0557 -1.9277
  136OSM     O314759   0.887   4.907   6.554 -0.3342 -0.1455 -0.1196
  136OSM    HO314760   0.934   4.952   6.485 -2.6418  2.6336 -0.0595
  136OSM    C4S14761   0.957   4.806   6.753  0.2835  0.0717  0.0028
  136OSM    H4S14762   0.985   4.900   6.802  1.1281 -0.1946  0.0337
  136OSM    C5S14763   0.914   4.699   6.821  0.1276  0.5136 -0.3195
  136OSM    H5S14764   0.894   4.604   6.770  0.8802 -0.3649  0.9469
  136OSM    C6S14765   0.899   4.704   6.970 -0.0630 -0.0427  0.4668
  136OSM    H6S14766   0.927   4.607   7.016 -1.6213  0.2559  2.1818
  136OSM    H6T14767   0.790   4.706   6.995 -0.2621 -0.0543 -0.3766
  136OSM    C7S14768   0.974   4.810   7.058 -0.2608  0.2228 -0.2373
  136OSM    H7S14769   0.968   4.908   7.006  2.0394 -0.0571 -1.1711
  136OSM    H7T14770   1.079   4.772   7.062 -0.7354 -1.0269  0.9556
  136OSM    C8S14771   0.921   4.818   7.199 -0.4548 -0.3108 -0.3770
  136OSM    H8S14772   0.910   4.717   7.245 -1.1944  0.3407  0.9107
  136OSM    H8T14773   0.826   4.875   7.203 -0.7098 -0.5625 -2.0267
  136OSM    C9S14774   1.020   4.905   7.287  0.1190  0.7093 -0.6915
  136OSM    H9S14775   0.952   4.935   7.370 -1.8372  0.8854 -2.2792
  136OSM    H9T14776   1.062   4.991   7.232 -1.2400  2.1352  0.3879
  136OSM   C10S14777   1.128   4.824   7.357  0.1644 -0.0969  0.0334
  136OSM   H10S14778   1.206   4.790   7.286  0.0900  2.0570 -1.1596
  136OSM   H10T14779   1.087   4.726   7.391 -2.5418 -0.2522 -3.1498
  136OSM   C11S14780   1.185   4.893   7.484 -0.2953  1.0507  0.1330
  136OSM   H11S14781   1.090   4.898   7.541 -0.5512  0.4637 -0.2265
  136OSM   H11T14782   1.238   4.989   7.466  1.0418  0.7690  2.2039
  136OSM   C12S14783   1.279   4.807   7.563 -0.1292 -0.6374 -0.3801
  136OSM   H12S14784   1.382   4.809   7.522 -0.4535 -0.5795 -1.1971
  136OSM   H12T14785   1.258   4.704   7.600 -3.7793  0.1519  0.1516
  136OSM   C13S14786   1.311   4.883   7.695  0.3260  0.0006 -0.0997
  136OSM   H13S14787   1.314   4.991   7.669  1.5343 -0.2191 -0.9393
  136OSM   H13T14788   1.416   4.859   7.719  1.3971  1.7340 -2.6408
  136OSM   C14S14789   1.204   4.856   7.807 -0.2174 -0.7235  0.4641
  136OSM   H14S14790   1.205   4.747   7.827  0.5030 -0.6389  0.9431
  136OSM   H14T14791   1.102   4.877   7.769 -0.0614 -0.0443  0.4125
  136OSM   C15S14792   1.249   4.912   7.945  0.2701  0.6836 -0.6830
  136OSM   H15S14793   1.282   5.017   7.934  0.5590  0.6101 -0.5254
  136OSM   H15T14794   1.345   4.865   7.974 -0.1714  0.1786  0.0027
  136OSM   C16S14795   1.145   4.893   8.053  0.0211  0.6313 -0.5032
  136OSM   H16S14796   1.180   4.919   8.155 -1.1076 -3.0460  0.9914
  136OSM   H16T14797   1.111   4.788   8.064 -2.8160  1.5648  0.5921
  136OSM   C17S14798   1.010   4.960   8.026 -0.3385 -0.4825 -0.0161
  136OSM   H17S14799   0.967   4.942   7.925  1.5848 -1.5372 -0.6869
  136OSM   H17T14800   1.022   5.070   8.026 -2.2036 -0.2333 -0.4166
  136OSM   C18S14801   0.900   4.915   8.119  0.4623 -0.3039  0.0533
  136OSM   H18S14802   0.916   4.956   8.221  1.1804 -1.2530  0.3388
  136OSM   H18T14803   0.889   4.804   8.114  0.8347 -0.2845 -1.8685
  136OSM   H18U14804   0.815   4.964   8.067  1.2997  0.0035 -1.0627
  136OSM    C1F14805   1.340   4.749   6.625 -0.0051  0.7069 -0.2714
  136OSM     OF14806   1.384   4.858   6.584  0.1697  0.1192  0.2370
  136OSM    C2F14807   1.424   4.650   6.703 -1.0980  0.0290  0.0390
  136OSM    H2F14808   1.416   4.549   6.656 -0.2534 -0.3149  0.6238
  136OSM    H2G14809   1.384   4.646   6.807 -3.0362 -1.0638 -0.6795
  136OSM    C3F14810   1.565   4.711   6.713 -0.2910 -0.0455  0.9328
  136OSM    H3F14811   1.554   4.805   6.770 -1.4600  0.5063 -0.1860
  136OSM    H3G14812   1.616   4.729   6.616  1.2894 -1.9278  1.3460
  136OSM    C4F14813   1.654   4.623   6.797 -0.3656  1.5876  1.2223
  136OSM    H4F14814   1.629   4.640   6.904  1.4353  1.7338  1.6675
  136OSM    H4G14815   1.759   4.660   6.789 -0.4494  1.4271 -2.0023
  136OSM    C5F14816   1.663   4.478   6.765 -0.1750  0.5192 -0.1156
  136OSM    H5F14817   1.730   4.441   6.685 -1.1222 -3.2279  0.6449
  136OSM    H5G14818   1.568   4.434   6.730  0.9261 -2.2857  0.1247
  136OSM    C6F14819   1.696   4.392   6.885 -0.0547  0.0347  0.2282
  136OSM    H6F14820   1.688   4.285   6.854  1.0194  0.3016 -1.0527
  136OSM    H6G14821   1.615   4.405   6.960 -0.5788 -3.4966  0.4377
  136OSM    C7F14822   1.833   4.415   6.944  0.0904  0.2232  0.2243
  136OSM    H7F14823   1.878   4.516   6.949 -1.4766  0.9247  0.6102
  136OSM    H7G14824   1.904   4.373   6.869  1.1410  2.3919 -0.0515
  136OSM    C8F14825   1.840   4.344   7.077  0.3656  0.6325 -0.4870
  136OSM    H8F14826   1.945   4.330   7.109  0.2706  0.3770 -0.2754
  136OSM    H8G14827   1.810   4.239   7.058  0.7012  0.3946  0.2446
  136OSM    C9F14828   1.766   4.423   7.187  0.1310 -0.3709  0.0944
  136OSM    H9F14829   1.743   4.530   7.175 -1.7471 -0.5696  1.4282
  136OSM   C10F14830   1.730   4.365   7.306 -0.0357  0.2899 -0.3420
  136OSM   H10F14831   1.687   4.432   7.382  0.6233 -0.5985  0.8290
  136OSM   C11F14832   1.742   4.212   7.341 -0.3278 -0.1515  0.0575
  136OSM   H11F14833   1.770   4.150   7.254 -0.4515 -0.4711  0.2460
  136OSM   H11G14834   1.646   4.170   7.376 -0.6434 -0.1338 -0.7860
  136OSM   C12F14835   1.859   4.201   7.444  0.0747  0.2275  0.6712
  136OSM   H12F14836   1.935   4.279   7.421 -0.1418  0.3350  0.3199
  136OSM   H12G14837   1.905   4.100   7.449  0.9222  0.6657  3.1913
  136OSM   C13F14838   1.812   4.222   7.585 -0.0440  0.4017 -0.1860
  136OSM   H13F14839   1.750   4.136   7.617  0.3247  0.4939  0.8324
  136OSM   H13G14840   1.766   4.324   7.586  0.3527  0.7776 -4.3506
  136OSM   C14F14841   1.933   4.249   7.688 -0.2181 -0.0401 -0.9365
  136OSM   H14F14842   2.022   4.302   7.647  1.0373 -0.1970  1.3977
  136OSM   H14G14843   1.971   4.145   7.701  1.5256  0.6455 -0.2398
  136OSM   C15F14844   1.879   4.302   7.820  0.4159  0.9907 -0.0861
  136OSM   H15F14845   1.795   4.239   7.854 -0.6382  2.3045 -0.1596
  136OSM   H15G14846   1.834   4.400   7.794  0.7690  1.0855 -0.3545
  136OSM   C16F14847   1.981   4.325   7.924 -0.0618  0.2226 -0.3586
  136OSM   H16F14848   2.057   4.391   7.876 -0.5172 -1.5958 -3.9154
  136OSM   H16G14849   2.030   4.231   7.958  0.0173  0.0691 -0.8999
  136OSM   C17F14850   1.929   4.399   8.050 -0.4907 -0.8020  1.3062
  136OSM   H17F14851   1.854   4.340   8.106 -0.5023 -0.9540  1.1327
  136OSM   H17G14852   1.872   4.484   8.008  1.3341  0.0394  0.3957
  136OSM   C18F14853   2.047   4.435   8.141 -0.4779 -0.6564  0.0906
  136OSM   H18F14854   2.009   4.470   8.239  1.0513  2.2300 -0.2418
  136OSM   H18G14855   2.114   4.517   8.106  0.4637  0.0593  3.2700
  136OSM   H18H14856   2.107   4.343   8.152 -0.3441 -1.2794 -4.1638
  137OSM      N14857   5.037   6.571   6.334 -1.4290 -0.3909 -0.3106
  137OSM    C1514858   5.019   6.670   6.439  0.0450  0.4808 -0.9493
  137OSM   H15A14859   5.089   6.752   6.426 -2.0090  2.4515 -0.1637
  137OSM   H15B14860   5.022   6.622   6.536  3.4810 -1.1974 -1.7061
  137OSM   H15C14861   4.926   6.723   6.427  0.5956  1.2688 -1.9421
  137OSM    C1414862   5.021   6.642   6.208  0.0025  0.1808  0.2209
  137OSM   H14A14863   4.978   6.578   6.132 -2.1463 -0.4120  1.8310
  137OSM   H14B14864   5.115   6.677   6.169 -1.7510  1.8314 -2.9476
  137OSM   H14C14865   4.954   6.727   6.212 -0.3059 -0.0790  0.9004
  137OSM    C1314866   5.177   6.512   6.336  0.2025 -0.4263 -0.4995
  137OSM   H13A14867   5.191   6.468   6.433 -0.1505 -0.6760 -0.5571
  137OSM   H13B14868   5.251   6.590   6.328 -0.9954  0.7730 -0.4251
  137OSM   H13C14869   5.196   6.429   6.270 -2.1897  0.0324 -1.8922
  137OSM    C1214870   4.931   6.454   6.351 -0.1997 -0.0688 -0.0019
  137OSM   H12A14871   4.983   6.378   6.294 -1.7490 -1.6743  0.6109
  137OSM   H12B14872   4.837   6.470   6.301 -0.7282 -0.4718  0.8342
  137OSM    C1114873   4.909   6.392   6.493 -0.7834  0.3672  0.2081
  137OSM   H11A14874   4.841   6.305   6.505 -0.8946  0.5540  1.0343
  137OSM   H11B14875   4.870   6.478   6.552 -1.1875  0.3126  0.0257
  137OSM      P14876   5.115   6.224   6.526  0.2483  0.1090  0.6280
  137OSM    O1314877   5.116   6.202   6.379 -0.0324  0.0210 -0.0770
  137OSM    O1414878   5.250   6.226   6.591  0.4685 -0.3715  0.4068
  137OSM    O1114879   5.020   6.118   6.585  0.1190  0.1823 -0.3536
  137OSM    O1214880   5.034   6.358   6.554  0.7670  0.3820  0.3774
  137OSM    C1S14881   5.032   6.063   6.717  0.1058 -0.1329  0.4763
  137OSM    H1S14882   4.936   6.096   6.762 -1.5118 -3.5576 -0.1408
  137OSM    H1T14883   5.123   6.100   6.768  0.7984 -0.0845 -0.7652
  137OSM     NF14884   5.073   5.870   6.861  0.1164 -0.3342 -0.2665
  137OSM    HNF14885   5.169   5.850   6.879 -0.4117 -2.7284  0.2682
  137OSM    C2S14886   5.033   5.908   6.719  0.2867 -0.0323 -0.6668
  137OSM    H2S14887   4.928   5.873   6.708  0.3139 -0.5281  0.4714
  137OSM    C3S14888   5.129   5.850   6.616  0.0397  0.0008  0.2565
  137OSM    H3S14889   5.226   5.892   6.652  0.0985 -1.7746  2.4204
  137OSM     O314890   5.102   5.879   6.482  0.0107  0.2333 -0.3582
  137OSM    HO314891   5.050   5.959   6.497 -0.1108  0.0689  0.1107
  137OSM    C4S14892   5.141   5.704   6.628  1.1246  0.1524  0.4527
  137OSM    H4S14893   5.057   5.645   6.589  1.8487 -0.0921 -0.7913
  137OSM    C5S14894   5.248   5.634   6.669  0.0907 -0.4808  0.4414
  137OSM    H5S14895   5.331   5.691   6.714 -1.3257  2.2684 -0.2166
  137OSM    C6S14896   5.270   5.485   6.676 -0.3270 -0.4546  0.5310
  137OSM    H6S14897   5.376   5.457   6.689 -0.6997 -2.0658  0.3956
  137OSM    H6T14898   5.246   5.441   6.577  0.8439 -0.7286  0.3615
  137OSM    C7S14899   5.186   5.429   6.785 -0.8519 -0.1868 -0.3837
  137OSM    H7S14900   5.194   5.318   6.778 -2.4577 -0.3154 -0.6103
  137OSM    H7T14901   5.076   5.441   6.773 -1.0734  2.2128  2.8632
  137OSM    C8S14902   5.237   5.489   6.919 -0.0671  0.0445  0.0109
  137OSM    H8S14903   5.201   5.592   6.938 -0.0121 -0.2560  1.9144
  137OSM    H8T14904   5.348   5.478   6.923 -0.0314  0.5580  0.6771
  137OSM    C9S14905   5.170   5.415   7.036  0.1495  0.4155 -0.7591
  137OSM    H9S14906   5.158   5.306   7.021  0.6721 -0.0586  1.7015
  137OSM    H9T14907   5.067   5.456   7.045 -0.0999  0.0148 -1.6943
  137OSM   C10S14908   5.234   5.423   7.183 -0.4782 -0.5846  0.0538
  137OSM   H10S14909   5.269   5.525   7.209  1.2475 -0.6072 -1.9949
  137OSM   H10T14910   5.321   5.354   7.188  0.4677  0.5600 -0.3379
  137OSM   C11S14911   5.133   5.385   7.288  0.0814  0.2950  0.3354
  137OSM   H11S14912   5.112   5.276   7.282  2.3624 -0.5252  4.1114
  137OSM   H11T14913   5.039   5.439   7.264  0.0628  0.7877  1.4764
  137OSM   C12S14914   5.167   5.410   7.439 -0.0571  0.1099  0.0664
  137OSM   H12S14915   5.172   5.517   7.468 -1.3495 -0.0417  0.9261
  137OSM   H12T14916   5.266   5.360   7.448 -1.0431 -1.6242  2.3508
  137OSM   C13S14917   5.069   5.325   7.520 -0.1597  0.1881  0.1568
  137OSM   H13S14918   5.063   5.225   7.472 -2.1098 -0.0635  0.8335
  137OSM   H13T14919   4.969   5.373   7.507 -0.9992 -1.2868  0.9016
  137OSM   C14S14920   5.105   5.316   7.667  0.7071 -0.2574 -0.1793
  137OSM   H14S14921   5.214   5.301   7.678  0.7200  0.0143  0.0800
  137OSM   H14T14922   5.060   5.224   7.709  0.4252  0.4390  1.0796
  137OSM   C15S14923   5.064   5.442   7.740  0.1985  0.5173  0.2238
  137OSM   H15S14924   4.961   5.470   7.708 -0.1150 -1.6056 -0.7701
  137OSM   H15T14925   5.131   5.524   7.707 -0.5444  0.8707 -0.4440
  137OSM   C16S14926   5.064   5.425   7.891  0.1502 -1.3378  0.2731
  137OSM   H16S14927   5.162   5.390   7.932  0.2743 -0.2782  0.9011
  137OSM   H16T14928   4.977   5.359   7.910 -0.6821 -0.8122 -1.4961
  137OSM   C17S14929   5.029   5.561   7.962  0.6193 -0.7494  0.6504
  137OSM   H17S14930   4.996   5.626   7.879  1.2931  0.3687  1.2410
  137OSM   H17T14931   5.119   5.611   8.003  0.4504  1.6701 -1.6856
  137OSM   C18S14932   4.909   5.558   8.058 -0.2698 -0.4490 -0.1460
  137OSM   H18S14933   4.835   5.480   8.028 -1.1260  0.1339  0.4100
  137OSM   H18T14934   4.867   5.660   8.065  0.1167 -0.2992 -0.0248
  137OSM   H18U14935   4.945   5.534   8.160  0.9769  1.1064 -0.1870
  137OSM    C1F14936   4.993   5.897   6.963  0.2255 -0.3741  0.2779
  137OSM     OF14937   4.880   5.936   6.937  0.4308  0.0898 -0.0171
  137OSM    C2F14938   5.046   5.860   7.102  0.0007 -0.5510  0.6057
  137OSM    H2F14939   5.147   5.905   7.107 -0.6956  1.1348  0.2335
  137OSM    H2G14940   5.052   5.749   7.101 -0.3984 -0.5746  0.1050
  137OSM    C3F14941   4.960   5.920   7.218  0.1040 -0.4043 -0.5581
  137OSM    H3F14942   4.850   5.922   7.202 -0.3383  3.2275  1.6969
  137OSM    H3G14943   4.994   6.023   7.240  2.5383 -1.4910  1.1670
  137OSM    C4F14944   4.980   5.847   7.360  0.0408  0.3091 -0.2836
  137OSM    H4F14945   5.090   5.847   7.372  0.1136 -0.5664 -0.8757
  137OSM    H4G14946   4.939   5.744   7.365  2.1494 -0.5681  0.0245
  137OSM    C5F14947   4.912   5.931   7.474  0.2360  0.0021 -0.0993
  137OSM    H5F14948   4.805   5.928   7.447  0.3976 -0.4535 -0.7210
  137OSM    H5G14949   4.949   6.036   7.467 -1.4355  0.5234 -2.3525
  137OSM    C6F14950   4.916   5.869   7.612 -0.2890 -0.2148 -0.8010
  137OSM    H6F14951   5.019   5.873   7.652  0.0602 -0.8884 -1.6065
  137OSM    H6G14952   4.886   5.763   7.602 -0.3757 -0.1734 -0.9836
  137OSM    C7F14953   4.814   5.944   7.696 -0.5296  0.2732  0.5203
  137OSM    H7F14954   4.711   5.927   7.657  0.2765  1.3053 -2.3674
  137OSM    H7G14955   4.833   6.052   7.679 -2.6644  0.5598 -0.4124
  137OSM    C8F14956   4.811   5.918   7.846 -0.3900 -0.7168 -0.4221
  137OSM    H8F14957   4.805   5.808   7.860 -0.3037 -1.0490 -2.6937
  137OSM    H8G14958   4.718   5.956   7.893 -1.4182 -2.9525 -0.5105
  137OSM    C9F14959   4.928   5.975   7.922 -0.3740  0.2699  0.7612
  137OSM    H9F14960   5.016   6.010   7.867 -0.1965  0.0389  0.8947
  137OSM   C10F14961   4.936   5.985   8.059  0.8742 -0.0754 -0.0155
  137OSM   H10F14962   5.028   6.034   8.094  2.0920 -0.4272 -2.5292
  137OSM   C11F14963   4.829   5.944   8.164  0.5873  0.1100  0.4413
  137OSM   H11F14964   4.863   5.890   8.254 -1.9384 -0.5180  1.1012
  137OSM   H11G14965   4.753   5.875   8.121  3.4761 -1.1479 -3.1197
  137OSM   C12F14966   4.754   6.065   8.219 -0.2522  0.2002  0.2815
  137OSM   H12F14967   4.701   6.108   8.131 -2.2681 -2.0063  0.3103
  137OSM   H12G14968   4.823   6.145   8.252 -0.9698  1.2128 -0.5900
  137OSM   C13F14969   4.645   6.030   8.318  0.9653  0.2218  0.5283
  137OSM   H13F14970   4.685   5.991   8.414 -1.0381  0.0038  1.3278
  137OSM   H13G14971   4.595   5.940   8.276  2.2779 -1.6078  2.6471
  137OSM   C14F14972   4.557   6.154   8.330  0.3954  0.0933 -0.0556
  137OSM   H14F14973   4.454   6.143   8.369  0.1850  0.2020 -0.5666
  137OSM   H14G14974   4.536   6.196   8.229 -0.5614 -0.5703 -0.1432
  137OSM   C15F14975   4.629   6.248   8.428 -0.2359  0.0161 -0.8461
  137OSM   H15F14976   4.716   6.285   8.368 -0.0386  2.7779  0.9509
  137OSM   H15G14977   4.672   6.200   8.518 -0.0420  1.6701 -0.0147
  137OSM   C16F14978   4.551   6.371   8.476 -0.4806 -0.1662  0.2088
  137OSM   H16F14979   4.444   6.344   8.479  0.0048 -2.1335  2.0922
  137OSM   H16G14980   4.570   6.458   8.408 -0.3050  0.5323  1.1285
  137OSM   C17F14981   4.604   6.426   8.615  0.3714  0.5655 -0.2090
  137OSM   H17F14982   4.564   6.527   8.635 -0.9124 -0.0283  0.2689
  137OSM   H17G14983   4.714   6.441   8.614  0.8163 -2.1435  0.9856
  137OSM   C18F14984   4.548   6.335   8.727  0.0981  0.2789 -0.2940
  137OSM   H18F14985   4.601   6.238   8.720  0.8543  0.6471  0.1995
  137OSM   H18G14986   4.439   6.319   8.708  0.5439 -0.9421 -1.9426
  137OSM   H18H14987   4.566   6.384   8.825 -1.5162 -0.0682  0.2146
  138OSM      N14988   6.462   0.764   5.994 -0.5069 -0.3040 -0.7629
  138OSM    C1514989   6.611   0.775   6.012 -0.1840 -0.9250  0.7107
  138OSM   H15A14990   6.643   0.741   6.109 -1.0751 -0.0919  1.3134
  138OSM   H15B14991   6.652   0.874   5.996  2.1418 -1.5887  2.0897
  138OSM   H15C14992   6.657   0.714   5.936 -1.1319  1.1770 -1.6971
  138OSM    C1414993   6.404   0.853   6.101 -0.4520 -0.5306  0.6621
  138OSM   H14A14994   6.403   0.954   6.063 -3.3502 -0.2336  1.3279
  138OSM   H14B14995   6.465   0.837   6.189  3.1278 -0.6092 -1.6253
  138OSM   H14C14996   6.297   0.851   6.111 -0.9141  2.7678 -2.0519
  138OSM    C1314997   6.417   0.803   5.866  0.2129 -0.7310  0.2109
  138OSM   H13A14998   6.440   0.730   5.791 -0.3895 -1.2016  0.4737
  138OSM   H13B14999   6.451   0.897   5.824 -2.6758  0.6172  0.5876
  138OSM   H13C15000   6.309   0.812   5.864  0.3165  0.8955  0.3020
  138OSM    C1215001   6.419   0.625   6.031 -0.1878  0.8356 -0.5827
  138OSM   H12A15002   6.452   0.553   5.958  0.1622  0.0899  0.2855
  138OSM   H12B15003   6.311   0.628   6.030 -0.1799  3.0616  0.1467
  138OSM    C1115004   6.470   0.571   6.165 -0.7551  0.2429  0.1258
  138OSM   H11A15005   6.399   0.494   6.204 -0.1883 -0.5699 -0.4077
  138OSM   H11B15006   6.476   0.662   6.229 -2.7994  0.5894 -0.1097
  138OSM      P15007   6.622   0.377   6.111 -0.1630  0.2652 -0.2728
  138OSM    O1315008   6.515   0.341   6.012 -0.6419  0.0985  0.2590
  138OSM    O1415009   6.763   0.342   6.073  0.4015  0.6099  0.3533
  138OSM    O1115010   6.592   0.314   6.255 -0.5261 -0.1469  0.0949
  138OSM    O1215011   6.612   0.531   6.146  0.5618 -0.3053  0.0305
  138OSM    C1S15012   6.674   0.352   6.367  0.1493 -0.3972  0.1056
  138OSM    H1S15013   6.672   0.463   6.378 -2.3100 -0.3549 -0.1691
  138OSM    H1T15014   6.777   0.313   6.359  0.4603  0.7746 -2.7626
  138OSM     NF15015   6.693   0.378   6.611 -0.9923 -1.0822  0.1746
  138OSM    HNF15016   6.752   0.319   6.665 -0.6088  0.5446  1.6452
  138OSM    C2S15017   6.619   0.310   6.509  0.2147  0.6855  0.2255
  138OSM    H2S15018   6.514   0.347   6.507  0.8142  2.4904 -0.9337
  138OSM    C3S15019   6.626   0.157   6.517 -0.1244  0.2797 -1.0712
  138OSM    H3S15020   6.728   0.120   6.497  1.3202  3.2643  0.1189
  138OSM     O315021   6.564   0.098   6.403 -0.2756 -0.0007  1.3415
  138OSM    HO315022   6.563   0.171   6.340  0.3814 -2.3044 -1.5619
  138OSM    C4S15023   6.566   0.100   6.641 -0.0521  0.2258 -0.1515
  138OSM    H4S15024   6.457   0.085   6.644 -0.2527  1.6408  1.7947
  138OSM    C5S15025   6.644   0.059   6.745 -0.5937  0.1817 -0.3855
  138OSM    H5S15026   6.753   0.058   6.731 -0.1021 -2.0876  2.5274
  138OSM    C6S15027   6.606  -0.004   6.875  0.4218 -0.9562  0.5152
  138OSM    H6S15028   6.666  -0.094   6.901  2.0479 -0.7045 -1.9777
  138OSM    H6T15029   6.498  -0.031   6.870 -0.2562  0.6721  3.7091
  138OSM    C7S15030   6.615   0.102   6.985  0.0381  0.1799 -0.6462
  138OSM    H7S15031   6.569   0.196   6.948 -2.5714 -1.1810 -1.0534
  138OSM    H7T15032   6.723   0.122   7.002  0.0977  0.5745 -1.4527
  138OSM    C8S15033   6.562   0.071   7.124 -0.2692  0.3598  0.0166
  138OSM    H8S15034   6.594  -0.033   7.148 -1.3874 -0.0706 -0.3018
  138OSM    H8T15035   6.451   0.064   7.125 -0.2413 -2.0228  2.8181
  138OSM    C9S15036   6.610   0.179   7.223  0.6466  0.1835  0.1049
  138OSM    H9S15037   6.564   0.269   7.178  0.0768 -1.0710 -1.9771
  138OSM    H9T15038   6.721   0.193   7.224  0.6159  0.7813  3.0610
  138OSM   C10S15039   6.575   0.164   7.369 -0.5461  0.2242 -0.5915
  138OSM   H10S15040   6.626   0.078   7.418 -0.0811  0.4516 -0.6746
  138OSM   H10T15041   6.465   0.148   7.374 -0.4729 -0.3651 -0.7505
  138OSM   C11S15042   6.617   0.286   7.452  0.2516  0.1008 -0.9308
  138OSM   H11S15043   6.573   0.377   7.407  2.7712  1.9888  0.1974
  138OSM   H11T15044   6.728   0.293   7.448  0.2003  0.4348 -3.2084
  138OSM   C12S15045   6.562   0.277   7.594 -0.2282  0.4803 -0.5954
  138OSM   H12S15046   6.461   0.231   7.598  0.3830 -0.8165  1.8977
  138OSM   H12T15047   6.554   0.382   7.628 -0.4894  0.0789  0.6165
  138OSM   C13S15048   6.635   0.187   7.692  0.0298 -0.1874 -0.5663
  138OSM   H13S15049   6.741   0.221   7.696 -0.5128  1.5052  1.4545
  138OSM   H13T15050   6.623   0.079   7.671  1.9953 -0.6819  0.6819
  138OSM   C14S15051   6.581   0.206   7.834  0.8609  0.3868  0.2552
  138OSM   H14S15052   6.493   0.141   7.851  1.0954  0.7778  3.7810
  138OSM   H14T15053   6.539   0.304   7.864 -0.5916  0.5858 -2.1661
  138OSM   C15S15054   6.684   0.168   7.939  0.1926  0.2617 -0.5840
  138OSM   H15S15055   6.770   0.236   7.919 -0.2682  1.6976  1.9195
  138OSM   H15T15056   6.705   0.059   7.930 -1.4637 -0.2187  0.8344
  138OSM   C16S15057   6.630   0.181   8.083  0.2122 -0.0459 -0.5185
  138OSM   H16S15058   6.526   0.142   8.075 -0.4277  1.7211 -1.3242
  138OSM   H16T15059   6.623   0.291   8.102 -1.7835 -0.3743  0.9826
  138OSM   C17S15060   6.709   0.111   8.196 -0.2014  0.2698 -0.4239
  138OSM   H17S15061   6.667   0.148   8.292  0.9296  1.5659 -0.4154
  138OSM   H17T15062   6.814   0.147   8.195 -0.4080  0.8859 -0.2171
  138OSM   C18S15063   6.696  -0.041   8.207  0.2055 -0.6801  0.5134
  138OSM   H18S15064   6.753  -0.072   8.297  0.3482 -3.5595 -0.4836
  138OSM   H18T15065   6.742  -0.090   8.118  0.8816  0.7812  0.0200
  138OSM   H18U15066   6.595  -0.085   8.219  0.5154 -1.4321  0.4502
  138OSM    C1F15067   6.675   0.503   6.647  1.1817 -0.0311  0.6558
  138OSM     OF15068   6.577   0.570   6.616  0.6037  0.2126  0.3605
  138OSM    C2F15069   6.775   0.548   6.745  0.0012 -0.4635  0.5170
  138OSM    H2F15070   6.821   0.639   6.701 -2.5771 -0.3223 -2.1964
  138OSM    H2G15071   6.856   0.475   6.766  0.2930  0.4611  3.0393
  138OSM    C3F15072   6.715   0.583   6.883 -0.2357 -0.5642  0.5018
  138OSM    H3F15073   6.647   0.508   6.929 -1.5751 -0.2389 -0.8580
  138OSM    H3G15074   6.653   0.674   6.868 -0.6547 -0.9606 -0.1891
  138OSM    C4F15075   6.827   0.622   6.976  0.4495 -0.0936  0.7335
  138OSM    H4F15076   6.886   0.706   6.934  1.7552  0.2414  3.0476
  138OSM    H4G15077   6.891   0.531   6.973 -1.9734 -1.8894  0.4588
  138OSM    C5F15078   6.776   0.670   7.111 -0.5445  0.3336  0.1398
  138OSM    H5F15079   6.702   0.596   7.146  1.6636 -0.8719  2.6427
  138OSM    H5G15080   6.730   0.771   7.105 -1.7651 -0.1968  0.4621
  138OSM    C6F15081   6.876   0.670   7.225  0.0357  0.5643 -0.1510
  138OSM    H6F15082   6.935   0.764   7.213 -0.6327  1.1254  0.8274
  138OSM    H6G15083   6.943   0.582   7.215  0.5301  0.1142  4.6520
  138OSM    C7F15084   6.813   0.650   7.364 -0.5951 -0.7737  0.6164
  138OSM    H7F15085   6.764   0.551   7.380 -1.1836 -0.3204  1.7268
  138OSM    H7G15086   6.735   0.729   7.364 -0.6051 -0.6379 -2.7093
  138OSM    C8F15087   6.903   0.680   7.481  0.0825  0.1976 -0.5094
  138OSM    H8F15088   6.844   0.692   7.574  1.2435 -1.6054  0.5271
  138OSM    H8G15089   6.945   0.777   7.446 -0.2282 -0.0782 -1.7078
  138OSM    C9F15090   6.997   0.565   7.495  0.4449 -0.4894 -0.4589
  138OSM    H9F15091   7.064   0.549   7.409  0.2633  1.4856 -1.0416
  138OSM   C10F15092   7.019   0.485   7.605  0.7529  1.3024  0.3083
  138OSM   H10F15093   7.103   0.415   7.597  0.5441  0.6907  2.6032
  138OSM   C11F15094   6.941   0.485   7.731 -0.1111 -0.3298 -0.1449
  138OSM   H11F15095   6.864   0.407   7.716  2.6611 -3.2726 -0.2362
  138OSM   H11G15096   6.894   0.582   7.756  4.7818  2.2983  0.1771
  138OSM   C12F15097   7.037   0.440   7.847  1.0695 -0.1878  0.3841
  138OSM   H12F15098   7.080   0.338   7.840  0.6608 -0.2533 -1.5180
  138OSM   H12G15099   6.990   0.427   7.947  1.4401  1.6257  0.8242
  138OSM   C13F15100   7.155   0.543   7.878  0.2935 -0.0974  0.4547
  138OSM   H13F15101   7.112   0.641   7.907  0.9959  0.3991 -0.1616
  138OSM   H13G15102   7.206   0.563   7.781 -0.1676 -1.2333 -0.0463
  138OSM   C14F15103   7.258   0.490   7.979  0.3504 -0.4162  0.3883
  138OSM   H14F15104   7.291   0.398   7.926 -1.8688 -1.0397 -0.0517
  138OSM   H14G15105   7.202   0.463   8.071  0.6410 -2.7193 -0.0455
  138OSM   C15F15106   7.384   0.574   7.995 -0.0160  0.6825  0.2485
  138OSM   H15F15107   7.419   0.607   7.894 -2.4007 -0.2949 -0.9742
  138OSM   H15G15108   7.460   0.512   8.045  0.1742  0.3183 -0.4849
  138OSM   C16F15109   7.356   0.706   8.071 -0.1700 -0.7961  0.2996
  138OSM   H16F15110   7.277   0.759   8.014  0.7757 -0.2664 -0.5680
  138OSM   H16G15111   7.452   0.760   8.057 -1.4665  1.3058 -1.0991
  138OSM   C17F15112   7.324   0.701   8.215 -0.5394  0.2807  0.0735
  138OSM   H17F15113   7.400   0.653   8.280  1.3706  3.2954  0.2634
  138OSM   H17G15114   7.238   0.632   8.228 -0.7232  0.1896 -1.4436
  138OSM   C18F15115   7.281   0.838   8.271 -0.2669  1.1428 -0.0048
  138OSM   H18F15116   7.372   0.901   8.282  0.2693  0.0491  2.4363
  138OSM   H18G15117   7.235   0.843   8.372 -0.8118  1.8984 -0.2806
  138OSM   H18H15118   7.217   0.882   8.192 -1.2226 -1.1428 -0.6087
  139OSM      N15119   6.186   4.267   6.252  0.1551  0.4113  0.6998
  139OSM    C1515120   6.145   4.179   6.137  0.0571 -0.1198 -0.3632
  139OSM   H15A15121   6.109   4.240   6.055  0.2661 -0.0631 -0.4124
  139OSM   H15B15122   6.070   4.105   6.162  1.5632 -2.0849 -1.4355
  139OSM   H15C15123   6.233   4.125   6.105  1.3912  0.8124  1.5915
  139OSM    C1415124   6.306   4.347   6.216  1.0227  0.8375  0.5505
  139OSM   H14A15125   6.306   4.414   6.132 -1.2889 -1.3262 -1.3431
  139OSM   H14B15126   6.391   4.282   6.205 -0.2535 -0.6263 -1.2432
  139OSM   H14C15127   6.313   4.415   6.300 -3.6231  3.7125 -0.9908
  139OSM    C1315128   6.074   4.363   6.283  0.1843 -0.5656  0.5821
  139OSM   H13A15129   6.099   4.437   6.359  0.6221  0.9959 -1.0253
  139OSM   H13B15130   5.987   4.310   6.318 -0.4541 -1.8079 -2.6065
  139OSM   H13C15131   6.045   4.417   6.194 -0.5898 -0.4335  0.9121
  139OSM    C1215132   6.219   4.180   6.369  0.4924 -0.2522  0.0997
  139OSM   H12A15133   6.262   4.244   6.444 -0.6766  0.0033  0.5685
  139OSM   H12B15134   6.303   4.116   6.345  1.4502  0.8617  0.4054
  139OSM    C1115135   6.101   4.112   6.435  0.6269 -0.2881 -0.2540
  139OSM   H11A15136   6.028   4.189   6.469 -0.4065 -0.2236 -2.4352
  139OSM   H11B15137   6.114   4.056   6.530 -0.5330  0.7465  0.5377
  139OSM      P15138   6.053   3.886   6.322  0.3096 -0.1398 -0.1902
  139OSM    O1315139   5.946   3.846   6.226 -0.3725 -0.4786 -0.6023
  139OSM    O1415140   6.194   3.869   6.285  0.3137  0.1422 -0.1231
  139OSM    O1115141   6.032   3.813   6.464  0.5789  0.4574 -0.8218
  139OSM    O1215142   6.020   4.033   6.357  0.0698  0.6800 -1.1532
  139OSM    C1S15143   5.915   3.852   6.531  0.9977  0.0623  0.4144
  139OSM    H1S15144   5.831   3.836   6.460  0.5807  0.5174  0.8004
  139OSM    H1T15145   5.926   3.959   6.558 -1.3233  0.3007  0.5509
  139OSM     NF15146   5.760   3.775   6.701 -0.0122 -0.1922  0.1439
  139OSM    HNF15147   5.733   3.854   6.756 -2.0798 -0.6107 -0.2073
  139OSM    C2S15148   5.895   3.758   6.652  0.2583  0.6928  0.0245
  139OSM    H2S15149   5.914   3.658   6.609 -0.0060  1.5623 -2.2636
  139OSM    C3S15150   6.003   3.798   6.756  0.1026 -0.2164 -0.5713
  139OSM    H3S15151   5.960   3.896   6.788 -1.4827 -1.1129  0.1821
  139OSM     O315152   6.138   3.808   6.716  0.4667  0.1966  0.4893
  139OSM    HO315153   6.138   3.828   6.622 -0.4504  1.7666  0.7750
  139OSM    C4S15154   5.988   3.694   6.866 -0.2524  0.2141  0.3216
  139OSM    H4S15155   5.913   3.720   6.942  0.7348  0.8255  1.1041
  139OSM    C5S15156   6.052   3.570   6.869  0.0054 -0.1488  0.0294
  139OSM    H5S15157   6.108   3.532   6.781  0.0585 -0.2332  0.0988
  139OSM    C6S15158   6.026   3.473   6.984 -0.4831 -0.1282 -0.0715
  139OSM    H6S15159   5.956   3.394   6.951 -4.8728  2.8412  1.2163
  139OSM    H6T15160   5.989   3.526   7.075 -0.6198 -0.0978 -0.1447
  139OSM    C7S15161   6.154   3.393   7.024 -0.2336 -0.4877 -0.6194
  139OSM    H7S15162   6.222   3.467   7.071 -1.1846 -0.5540  0.9537
  139OSM    H7T15163   6.194   3.346   6.932  0.9315  1.6741 -1.2717
  139OSM    C8S15164   6.129   3.279   7.128 -0.3085  0.2989  0.2029
  139OSM    H8S15165   6.206   3.199   7.134  1.9272  2.4697  3.3624
  139OSM    H8T15166   6.039   3.224   7.093  0.4182  0.5155 -2.2145
  139OSM    C9S15167   6.089   3.327   7.266 -0.0643  0.3188  0.8755
  139OSM    H9S15168   6.016   3.410   7.250  1.0664  0.9150 -1.5725
  139OSM    H9T15169   6.184   3.375   7.299  0.2985 -0.0922  0.4415
  139OSM   C10S15170   6.027   3.211   7.344  0.3921 -0.0060 -0.6207
  139OSM   H10S15171   6.088   3.119   7.343  0.1207 -0.2642  1.9550
  139OSM   H10T15172   5.922   3.184   7.320  0.7085 -0.5952 -1.3995
  139OSM   C11S15173   6.007   3.246   7.495  0.5164  0.4786 -0.4612
  139OSM   H11S15174   5.929   3.325   7.499  0.4649  0.5237 -1.8575
  139OSM   H11T15175   6.091   3.314   7.521  0.1233  0.9070 -0.2938
  139OSM   C12S15176   5.971   3.129   7.584  0.4196 -0.8333 -0.2616
  139OSM   H12S15177   6.014   3.031   7.554  1.5097 -0.8966  1.4046
  139OSM   H12T15178   5.861   3.127   7.598  0.3452 -0.3955 -0.7515
  139OSM   C13S15179   6.034   3.157   7.724 -0.0435  0.1923  0.0924
  139OSM   H13S15180   5.983   3.233   7.787  1.8199  1.4336  0.1887
  139OSM   H13T15181   6.129   3.214   7.713 -0.2070  0.2174 -1.5348
  139OSM   C14S15182   6.074   3.031   7.800 -0.0459 -0.3636  0.4626
  139OSM   H14S15183   6.153   2.991   7.734 -0.2671  1.0235 -0.7037
  139OSM   H14T15184   5.989   2.961   7.813 -0.3386  0.1590  1.5184
  139OSM   C15S15185   6.137   3.065   7.935 -0.0167 -0.7591  0.5552
  139OSM   H15S15186   6.057   3.087   8.009  1.3428 -0.0546  1.8763
  139OSM   H15T15187   6.185   3.164   7.922 -2.2310  0.2102 -0.7655
  139OSM   C16S15188   6.237   2.958   7.990 -0.8502 -0.5937 -0.0126
  139OSM   H16S15189   6.329   2.978   7.931 -0.6108  1.1236  0.8724
  139OSM   H16T15190   6.193   2.856   7.979 -3.3490  0.4476 -0.4368
  139OSM   C17S15191   6.280   2.984   8.130 -0.4174 -0.3238 -0.1288
  139OSM   H17S15192   6.327   3.084   8.135  1.5471 -1.0780 -1.9439
  139OSM   H17T15193   6.365   2.915   8.149 -0.9012 -1.2792 -1.2973
  139OSM   C18S15194   6.176   2.962   8.236  0.4978  0.1985  0.7495
  139OSM   H18S15195   6.091   3.033   8.225  1.0788  0.6446 -1.3439
  139OSM   H18T15196   6.222   2.965   8.337 -0.8908  0.8158  1.3946
  139OSM   H18U15197   6.132   2.860   8.224 -0.5901  0.8573 -1.3786
  139OSM    C1F15198   5.653   3.715   6.648  1.3280  0.2828 -0.0911
  139OSM     OF15199   5.651   3.640   6.551  0.6061  0.1673 -0.0156
  139OSM    C2F15200   5.522   3.737   6.721 -0.3852 -0.1300  0.1876
  139OSM    H2F15201   5.445   3.781   6.654  0.7353  1.8022  0.0791
  139OSM    H2G15202   5.547   3.826   6.782 -2.5243  1.2573 -0.8239
  139OSM    C3F15203   5.480   3.604   6.781  0.1636  0.0231 -0.7898
  139OSM    H3F15204   5.485   3.522   6.707  2.8306  0.5780 -1.3140
  139OSM    H3G15205   5.373   3.609   6.811  0.6896  1.3160  1.0480
  139OSM    C4F15206   5.561   3.552   6.904  0.1180 -0.3974  0.9728
  139OSM    H4F15207   5.582   3.639   6.971 -3.3438 -0.7170  2.7126
  139OSM    H4G15208   5.658   3.502   6.883 -0.0425 -0.2189 -0.2896
  139OSM    C5F15209   5.477   3.451   6.990 -0.5820 -0.6656  0.5101
  139OSM    H5F15210   5.479   3.345   6.955 -0.2177 -0.4783 -0.0547
  139OSM    H5G15211   5.373   3.490   6.988 -1.1082 -2.0195 -0.4987
  139OSM    C6F15212   5.506   3.465   7.139 -0.9846 -0.0270  0.4526
  139OSM    H6F15213   5.443   3.400   7.204  0.2153 -1.2022  0.4895
  139OSM    H6G15214   5.497   3.568   7.177  0.6726  1.1603 -2.1112
  139OSM    C7F15215   5.648   3.423   7.168 -0.4812  0.5832 -0.6466
  139OSM    H7F15216   5.719   3.492   7.118  2.0349 -1.1310  0.3377
  139OSM    H7G15217   5.658   3.323   7.119 -0.8006  1.2120 -2.0693
  139OSM    C8F15218   5.685   3.399   7.319  0.8191 -0.1533  0.3493
  139OSM    H8F15219   5.790   3.363   7.317  2.7926  4.6801 -2.8280
  139OSM    H8G15220   5.625   3.320   7.369  2.1922 -0.6161  1.3196
  139OSM    C9F15221   5.703   3.531   7.398 -0.4392  0.2278 -0.4035
  139OSM    H9F15222   5.801   3.573   7.372  1.0353 -2.3549  0.5342
  139OSM   C10F15223   5.631   3.586   7.495 -0.1306 -0.7700  0.7199
  139OSM   H10F15224   5.668   3.685   7.526 -0.4026 -0.4866  0.1528
  139OSM   C11F15225   5.503   3.540   7.544 -0.0359  0.5475  0.4670
  139OSM   H11F15226   5.451   3.474   7.471 -1.0029  0.1587  1.4653
  139OSM   H11G15227   5.432   3.625   7.542  0.3672  0.8696 -0.9019
  139OSM   C12F15228   5.532   3.459   7.669  0.4352  0.2133  0.0566
  139OSM   H12F15229   5.620   3.392   7.655 -0.7514 -1.8078  1.8237
  139OSM   H12G15230   5.444   3.396   7.692  1.0141 -0.1916  1.2063
  139OSM   C13F15231   5.544   3.537   7.802 -0.1539 -0.1407 -0.9810
  139OSM   H13F15232   5.446   3.581   7.827  1.7620  2.0728  3.9760
  139OSM   H13G15233   5.622   3.615   7.785  0.9079 -1.3008 -1.6398
  139OSM   C14F15234   5.577   3.448   7.931  0.0024  0.0074  0.0584
  139OSM   H14F15235   5.680   3.408   7.921  0.2824  0.1031  2.2169
  139OSM   H14G15236   5.511   3.358   7.928  0.7362 -0.5255 -0.5346
  139OSM   C15F15237   5.572   3.536   8.056  0.5738  0.1731 -0.4012
  139OSM   H15F15238   5.463   3.555   8.053  0.7031  0.9245 -0.5694
  139OSM   H15G15239   5.615   3.638   8.043 -2.3894  2.0125  2.5572
  139OSM   C16F15240   5.626   3.456   8.179 -0.0125 -0.2455  0.5630
  139OSM   H16F15241   5.733   3.444   8.155  0.4968  1.5127  1.7837
  139OSM   H16G15242   5.583   3.354   8.183 -0.9515  0.1588  1.1790
  139OSM   C17F15243   5.585   3.534   8.309 -0.3334  0.1836 -0.3285
  139OSM   H17F15244   5.612   3.476   8.400  0.2613  0.9131 -0.0264
  139OSM   H17G15245   5.475   3.532   8.323 -0.4713 -1.6923 -1.3812
  139OSM   C18F15246   5.623   3.678   8.320  0.2263 -0.0786 -0.1254
  139OSM   H18F15247   5.731   3.690   8.296 -0.0368 -0.4916 -1.6609
  139OSM   H18G15248   5.595   3.712   8.422 -1.6261  2.3985 -1.3561
  139OSM   H18H15249   5.562   3.741   8.253  2.9743  2.0317 -0.8164
  140OSM      N15250   4.862   4.511   6.362 -0.0082  0.3438  0.1201
  140OSM    C1515251   4.796   4.567   6.486 -0.1128 -0.1184 -0.0951
  140OSM   H15A15252   4.865   4.604   6.561 -0.0601  0.4837 -0.4388
  140OSM   H15B15253   4.749   4.484   6.536  1.1131 -0.3830  0.6584
  140OSM   H15C15254   4.730   4.646   6.454  2.3479  1.8963 -0.5054
  140OSM    C1415255   4.751   4.467   6.273  0.0141 -0.4020 -0.3185
  140OSM   H14A15256   4.668   4.417   6.320 -0.6548  0.5256 -0.4976
  140OSM   H14B15257   4.796   4.403   6.199  1.7399  0.0358  0.3080
  140OSM   H14C15258   4.716   4.556   6.224 -1.2892  0.8808  2.6982
  140OSM    C1315259   4.934   4.623   6.282  0.2135  0.8668  1.0189
  140OSM   H13A15260   4.876   4.712   6.261  0.1169  0.6246  0.2340
  140OSM   H13B15261   4.969   4.587   6.187 -0.2712  1.3989  0.6351
  140OSM   H13C15262   5.023   4.653   6.335  0.6388  1.0707  0.2090
  140OSM    C1215263   4.960   4.397   6.392  0.6780  0.3720  0.0236
  140OSM   H12A15264   4.993   4.356   6.297 -1.6929 -0.2871 -0.5712
  140OSM   H12B15265   4.906   4.325   6.452  0.5951  2.6654  2.9274
  140OSM    C1115266   5.086   4.439   6.467  0.0689 -1.0071 -0.6780
  140OSM   H11A15267   5.056   4.458   6.572  2.4209  0.8315 -0.2711
  140OSM   H11B15268   5.124   4.534   6.424 -0.9389 -0.2187  0.1312
  140OSM      P15269   5.331   4.347   6.510 -0.1916 -0.0858  0.3625
  140OSM    O1315270   5.396   4.213   6.524 -0.0299  0.5400 -0.2934
  140OSM    O1415271   5.400   4.454   6.425 -0.1476  0.1393 -0.2659
  140OSM    O1115272   5.313   4.406   6.655 -0.0064 -0.2179 -0.4956
  140OSM    O1215273   5.180   4.333   6.462  0.3472  0.3127  0.0707
  140OSM    C1S15274   5.357   4.542   6.688 -0.3726  0.3952  0.1001
  140OSM    H1S15275   5.284   4.610   6.641 -0.3148  1.1953  1.1270
  140OSM    H1T15276   5.458   4.558   6.646 -0.7530 -2.9404 -2.5474
  140OSM     NF15277   5.361   4.718   6.859  0.3047  0.1435  0.5222
  140OSM    HNF15278   5.434   4.754   6.917 -0.5581  1.0212  1.0986
  140OSM    C2S15279   5.358   4.571   6.842 -0.2062 -0.0338 -0.4449
  140OSM    H2S15280   5.264   4.527   6.879  0.0022 -0.6588 -0.6389
  140OSM    C3S15281   5.472   4.492   6.915 -0.6256  0.1826  0.3937
  140OSM    H3S15282   5.566   4.537   6.877 -0.9865  0.9077  0.3341
  140OSM     O315283   5.471   4.355   6.874 -0.4628  0.3116  0.1199
  140OSM    HO315284   5.410   4.365   6.801  0.4962  0.8176 -0.6392
  140OSM    C4S15285   5.460   4.506   7.058 -0.6615  0.3979 -0.1684
  140OSM    H4S15286   5.506   4.600   7.093  1.9487 -1.0807  0.6419
  140OSM    C5S15287   5.404   4.423   7.151 -0.5063  0.4054 -0.3848
  140OSM    H5S15288   5.350   4.337   7.110 -1.1846  1.0416 -0.8606
  140OSM    C6S15289   5.397   4.447   7.299  0.5008  0.7087 -0.2074
  140OSM    H6S15290   5.445   4.361   7.352 -0.4163  1.0129  1.1948
  140OSM    H6T15291   5.288   4.457   7.319  1.0229  3.5626  1.9765
  140OSM    C7S15292   5.468   4.573   7.350 -0.4889 -0.2224  0.4090
  140OSM    H7S15293   5.417   4.661   7.306  1.4791  0.5375 -0.4699
  140OSM    H7T15294   5.575   4.580   7.322 -0.8971  1.6075 -0.9172
  140OSM    C8S15295   5.475   4.586   7.499  0.0582  0.6757  0.1135
  140OSM    H8S15296   5.372   4.563   7.534  0.4366 -0.4763  0.5314
  140OSM    H8T15297   5.523   4.682   7.528  1.2021 -0.1654  1.1128
  140OSM    C9S15298   5.581   4.484   7.551  0.4446 -0.8947 -0.2790
  140OSM    H9S15299   5.672   4.494   7.488 -0.1811  2.7280 -0.8647
  140OSM    H9T15300   5.541   4.382   7.534 -2.4104  0.5092 -3.2737
  140OSM   C10S15301   5.616   4.492   7.707  0.1380  0.1664  0.4800
  140OSM   H10S15302   5.524   4.446   7.750  0.8422  1.0714  3.1698
  140OSM   H10T15303   5.622   4.597   7.743 -1.3748  0.0908  1.0009
  140OSM   C11S15304   5.732   4.402   7.745 -0.8374 -0.0583 -0.0029
  140OSM   H11S15305   5.805   4.418   7.662 -0.4986 -4.4145 -0.7704
  140OSM   H11T15306   5.704   4.295   7.741  1.8692 -0.8244 -1.4504
  140OSM   C12S15307   5.802   4.433   7.872  0.0386  0.4374 -0.0481
  140OSM   H12S15308   5.813   4.544   7.873 -0.2674  0.4712 -0.3854
  140OSM   H12T15309   5.905   4.393   7.859  0.4119  1.7493 -1.4174
  140OSM   C13S15310   5.733   4.370   7.991 -0.5082  0.4285  0.1452
  140OSM   H13S15311   5.740   4.260   7.975 -0.2608  0.4316  0.2348
  140OSM   H13T15312   5.626   4.399   7.976 -1.4007 -2.3385  0.6007
  140OSM   C14S15313   5.774   4.407   8.134 -0.0727  0.5061  0.3640
  140OSM   H14S15314   5.725   4.338   8.206  0.0765  0.1972  0.1693
  140OSM   H14T15315   5.756   4.513   8.162 -0.8390  0.8474 -1.3057
  140OSM   C15S15316   5.920   4.385   8.162  0.3756  0.0162 -0.1030
  140OSM   H15S15317   5.966   4.440   8.077  1.1642 -0.2391  0.1519
  140OSM   H15T15318   5.951   4.281   8.141  1.1982  0.4015 -0.8600
  140OSM   C16S15319   5.971   4.439   8.295 -0.6680  0.7033  0.2209
  140OSM   H16S15320   5.907   4.391   8.372  0.2799 -1.0277 -0.0156
  140OSM   H16T15321   5.956   4.548   8.306 -1.8622  0.7017 -1.0546
  140OSM   C17S15322   6.124   4.416   8.335  0.5781  0.9593 -0.5142
  140OSM   H17S15323   6.141   4.309   8.361  1.1474  1.2879  0.5098
  140OSM   H17T15324   6.152   4.471   8.428  2.0676  0.0981 -0.4199
  140OSM   C18S15325   6.226   4.459   8.231 -0.4668  0.4925  0.3842
  140OSM   H18S15326   6.225   4.570   8.219 -2.6271  0.5212  0.3921
  140OSM   H18T15327   6.201   4.427   8.128 -1.6495 -0.6636  1.0040
  140OSM   H18U15328   6.325   4.422   8.263 -0.6864  1.0574  1.8010
  140OSM    C1F15329   5.265   4.805   6.811 -0.1162  0.0747  0.5937
  140OSM     OF15330   5.160   4.764   6.770  0.1477 -0.0165  0.1861
  140OSM    C2F15331   5.300   4.950   6.820  0.2896 -0.2555  0.5112
  140OSM    H2F15332   5.272   4.990   6.721  0.0090  0.0978  0.7317
  140OSM    H2G15333   5.411   4.956   6.832 -0.0442  3.3705  5.1075
  140OSM    C3F15334   5.241   5.028   6.943  0.2292  0.3960  0.0500
  140OSM    H3F15335   5.130   5.025   6.938 -0.0038  3.8519  0.5363
  140OSM    H3G15336   5.258   5.137   6.927 -3.5150  1.2490  0.9472
  140OSM    C4F15337   5.297   4.967   7.066 -0.0415  0.6924 -0.1876
  140OSM    H4F15338   5.407   4.979   7.081  0.2877 -2.1644  0.3905
  140OSM    H4G15339   5.284   4.856   7.060  0.4545  0.7255 -2.8703
  140OSM    C5F15340   5.225   5.023   7.188 -0.4745  0.3895  0.9240
  140OSM    H5F15341   5.118   4.996   7.190 -0.2573 -0.6531 -0.0594
  140OSM    H5G15342   5.222   5.134   7.184 -0.5406  0.3655 -0.6310
  140OSM    C6F15343   5.280   4.953   7.315 -0.8714 -0.2219  0.4950
  140OSM    H6F15344   5.390   4.953   7.302 -1.0601 -1.2684 -1.5139
  140OSM    H6G15345   5.250   4.847   7.304 -2.6584  0.1959  0.9553
  140OSM    C7F15346   5.232   5.008   7.443 -0.1471  0.2938  0.5697
  140OSM    H7F15347   5.121   5.004   7.441 -0.2081  0.5229  2.1001
  140OSM    H7G15348   5.262   5.115   7.433 -2.1825  0.9174  0.6088
  140OSM    C8F15349   5.287   4.931   7.565 -0.0176 -0.4044  0.0764
  140OSM    H8F15350   5.399   4.931   7.568  0.0265 -1.6193 -0.8520
  140OSM    H8G15351   5.273   4.823   7.544 -1.2352 -0.1618 -0.4469
  140OSM    C9F15352   5.224   4.973   7.691 -0.2932 -0.5854 -0.4328
  140OSM    H9F15353   5.152   5.055   7.675  0.3966  0.1106 -0.0740
  140OSM   C10F15354   5.253   4.926   7.819  0.8564 -0.4243 -0.2343
  140OSM   H10F15355   5.199   4.967   7.905 -1.3900  0.1997 -1.8521
  140OSM   C11F15356   5.364   4.824   7.843  0.1116  0.1530 -0.0917
  140OSM   H11F15357   5.423   4.795   7.753 -0.2756 -0.0515 -0.2787
  140OSM   H11G15358   5.327   4.729   7.887  1.0909  1.8438  5.0920
  140OSM   C12F15359   5.469   4.873   7.942  0.5302  0.0406  0.0017
  140OSM   H12F15360   5.423   4.881   8.043 -1.1901  0.0475 -0.7457
  140OSM   H12G15361   5.494   4.974   7.901  2.8209 -1.2247 -1.9695
  140OSM   C13F15362   5.599   4.792   7.948  0.5726 -0.4098  0.1659
  140OSM   H13F15363   5.651   4.815   7.853  0.2591 -0.8252 -0.1149
  140OSM   H13G15364   5.571   4.684   7.945 -2.3537  0.2699 -1.9060
  140OSM   C14F15365   5.687   4.830   8.066 -0.0788 -0.3947  0.1406
  140OSM   H14F15366   5.643   4.800   8.164 -1.0736 -0.4208 -0.2962
  140OSM   H14G15367   5.686   4.941   8.063 -2.4277 -0.3138  0.9867
  140OSM   C15F15368   5.832   4.784   8.065 -0.2991 -0.2802  0.2724
  140OSM   H15F15369   5.868   4.811   7.963 -2.0798  4.0503  0.5575
  140OSM   H15G15370   5.850   4.675   8.070 -2.5456 -0.6620  2.4931
  140OSM   C16F15371   5.904   4.850   8.183  0.3203  0.1785 -0.4837
  140OSM   H16F15372   5.873   4.793   8.273  2.9689 -0.6832 -0.0314
  140OSM   H16G15373   5.869   4.955   8.188 -0.6607 -0.1916  1.0473
  140OSM   C17F15374   6.056   4.829   8.170 -0.1793 -0.6139  0.6341
  140OSM   H17F15375   6.091   4.872   8.074  0.7864 -3.3527 -0.3312
  140OSM   H17G15376   6.082   4.722   8.161  2.7172  0.1004 -0.6280
  140OSM   C18F15377   6.128   4.904   8.287 -0.1675 -0.7133 -0.0652
  140OSM   H18F15378   6.237   4.882   8.288  0.2807  1.2736  1.4548
  140OSM   H18G15379   6.094   4.873   8.388 -1.4384  0.4714 -0.1095
  140OSM   H18H15380   6.113   5.013   8.276 -0.6962 -0.6143  1.3444
  141OSM      N15381   4.856   5.245   5.879 -0.0073  0.1761 -0.2005
  141OSM    C1515382   4.797   5.321   5.769  0.1189 -0.4615  0.5648
  141OSM   H15A15383   4.692   5.296   5.758  0.4553 -2.6210  1.7607
  141OSM   H15B15384   4.843   5.298   5.674  0.3428 -1.8233  0.9796
  141OSM   H15C15385   4.826   5.425   5.779 -2.9082  0.5283  0.0226
  141OSM    C1415386   4.802   5.100   5.864  0.2465  0.7046  0.0262
  141OSM   H14A15387   4.715   5.115   5.927  0.7486  1.0930  0.6406
  141OSM   H14B15388   4.871   5.025   5.902 -0.5436  0.2844  0.6615
  141OSM   H14C15389   4.769   5.082   5.763 -1.0424 -0.7030  0.6507
  141OSM    C1315390   5.003   5.253   5.857  0.7164  0.3229 -0.0629
  141OSM   H13A15391   5.041   5.350   5.886 -1.5610  0.7855  1.6321
  141OSM   H13B15392   5.021   5.242   5.751  0.0628  1.0744 -0.2574
  141OSM   H13C15393   5.064   5.194   5.924 -2.1643  1.7506  4.2010
  141OSM    C1215394   4.835   5.283   6.020 -1.0360 -0.4710 -0.2679
  141OSM   H12A15395   4.887   5.214   6.085  1.1755  3.6881  2.8586
  141OSM   H12B15396   4.729   5.281   6.041 -1.1940  2.3063 -0.3442
  141OSM    C1115397   4.882   5.418   6.070  0.3466  0.2332  0.0928
  141OSM   H11A15398   4.989   5.436   6.045  0.3313 -0.4758 -0.4967
  141OSM   H11B15399   4.876   5.419   6.181 -0.2724  1.2609  0.0613
  141OSM      P15400   4.653   5.551   6.062 -0.4559  0.3890  0.1926
  141OSM    O1315401   4.601   5.680   6.014  0.4094 -0.0076 -0.4946
  141OSM    O1415402   4.578   5.425   6.033  0.3738  0.7481  0.1044
  141OSM    O1115403   4.666   5.561   6.219 -0.4243  0.0028  0.1357
  141OSM    O1215404   4.801   5.526   6.015 -0.5464  0.0661 -0.9503
  141OSM    C1S15405   4.565   5.610   6.308 -0.5053  0.5004 -1.1395
  141OSM    H1S15406   4.464   5.580   6.273 -0.4416 -0.5627 -0.4410
  141OSM    H1T15407   4.565   5.720   6.327  0.5716  0.4767 -0.9362
  141OSM     NF15408   4.462   5.556   6.537 -0.0138  0.3862  0.1722
  141OSM    HNF15409   4.466   5.628   6.605 -0.0820  1.5563 -1.0257
  141OSM    C2S15410   4.579   5.540   6.445  0.5233  0.1461  0.8552
  141OSM    H2S15411   4.593   5.435   6.413 -0.8639  0.0325  0.5916
  141OSM    C3S15412   4.712   5.589   6.506 -0.4380 -0.2160 -0.4113
  141OSM    H3S15413   4.710   5.699   6.522  1.7488 -0.1363 -0.3949
  141OSM     O315414   4.830   5.558   6.428  0.3942  0.3112  0.2304
  141OSM    HO315415   4.790   5.540   6.342  1.8357  0.5994 -0.5288
  141OSM    C4S15416   4.741   5.528   6.640  0.5615  0.2888 -0.6119
  141OSM    H4S15417   4.721   5.420   6.652 -0.2884  0.5079  0.0301
  141OSM    C5S15418   4.768   5.596   6.754  0.8964 -0.0615 -0.5110
  141OSM    H5S15419   4.761   5.705   6.757  2.0664  0.0053  0.8263
  141OSM    C6S15420   4.787   5.529   6.890 -0.2527 -0.2253 -0.0239
  141OSM    H6S15421   4.893   5.517   6.919 -0.7307 -2.9269  0.8682
  141OSM    H6T15422   4.736   5.432   6.906  2.4480 -1.7286  0.0197
  141OSM    C7S15423   4.717   5.611   7.000 -0.5295 -0.5506  0.0846
  141OSM    H7S15424   4.611   5.622   6.970 -0.9615  1.5484  2.1260
  141OSM    H7T15425   4.762   5.712   6.999  4.2219 -2.3707 -2.0567
  141OSM    C8S15426   4.713   5.544   7.141  0.0545 -0.5254  0.2642
  141OSM    H8S15427   4.814   5.517   7.182  0.3364  0.3013  0.1307
  141OSM    H8T15428   4.660   5.446   7.137 -2.6342  0.7996  1.1379
  141OSM    C9S15429   4.641   5.624   7.246 -0.0113 -0.6434 -0.2421
  141OSM    H9S15430   4.535   5.628   7.215 -0.3622 -1.2438  0.8228
  141OSM    H9T15431   4.676   5.729   7.253 -1.4308 -0.1987  0.5390
  141OSM   C10S15432   4.652   5.559   7.388  0.5816  0.4148 -0.3362
  141OSM   H10S15433   4.753   5.541   7.432 -0.5823 -0.5932  2.1464
  141OSM   H10T15434   4.609   5.457   7.377 -1.0302  1.0566 -0.2399
  141OSM   C11S15435   4.582   5.642   7.500 -0.5157  0.3369  0.6722
  141OSM   H11S15436   4.477   5.678   7.486 -0.0701  1.5656  0.2950
  141OSM   H11T15437   4.632   5.741   7.507  1.2595 -0.3965 -0.8261
  141OSM   C12S15438   4.584   5.580   7.642  0.0575  0.0877  0.5563
  141OSM   H12S15439   4.691   5.568   7.668  0.1482  1.4686  0.8919
  141OSM   H12T15440   4.530   5.483   7.644 -0.1700  0.2149  0.6628
  141OSM   C13S15441   4.519   5.672   7.744 -0.0699 -0.2256  0.8095
  141OSM   H13S15442   4.417   5.698   7.711 -0.2754  1.2854  2.4640
  141OSM   H13T15443   4.575   5.768   7.748 -2.2026  1.1603 -0.7242
  141OSM   C14S15444   4.506   5.613   7.883  0.5731 -0.1495 -0.3860
  141OSM   H14S15445   4.608   5.597   7.923  0.4012  1.1019  0.5794
  141OSM   H14T15446   4.468   5.512   7.855  1.4974 -0.3513 -0.9762
  141OSM   C15S15447   4.417   5.700   7.973 -0.2225  0.6930 -0.1145
  141OSM   H15S15448   4.318   5.677   7.928 -0.0978 -1.4244  0.5949
  141OSM   H15T15449   4.444   5.807   7.959 -0.9888  0.5979 -2.9264
  141OSM   C16S15450   4.408   5.650   8.119 -0.9519  0.5653  0.4672
  141OSM   H16S15451   4.508   5.663   8.167 -0.2301  0.4972 -0.9491
  141OSM   H16T15452   4.408   5.540   8.108  2.4343  0.5300 -0.4817
  141OSM   C17S15453   4.279   5.697   8.194  0.7805  0.0591  0.4537
  141OSM   H17S15454   4.244   5.610   8.253 -0.2788 -1.0132 -1.6497
  141OSM   H17T15455   4.207   5.715   8.111  1.0861  1.3893  0.4500
  141OSM   C18S15456   4.296   5.824   8.286  0.4077 -0.1077  0.1341
  141OSM   H18S15457   4.362   5.804   8.374 -0.4652  0.1696  0.8598
  141OSM   H18T15458   4.195   5.858   8.316  0.3259  1.4474 -1.7216
  141OSM   H18U15459   4.336   5.911   8.229 -1.1924  1.2195  0.9491
  141OSM    C1F15460   4.353   5.485   6.528  0.3320 -0.2249  0.6861
  141OSM     OF15461   4.356   5.400   6.436 -0.5398 -0.1281 -0.1145
  141OSM    C2F15462   4.233   5.509   6.622  0.1532  0.7060  0.2006
  141OSM    H2F15463   4.185   5.414   6.652 -0.6927  0.8953 -0.5235
  141OSM    H2G15464   4.156   5.559   6.560  0.7807  1.0949 -0.2753
  141OSM    C3F15465   4.258   5.601   6.743 -0.9512  0.3223  0.0579
  141OSM    H3F15466   4.165   5.610   6.803 -0.4167 -0.5729  1.0529
  141OSM    H3G15467   4.282   5.706   6.715  2.1378  0.2890  2.1375
  141OSM    C4F15468   4.359   5.551   6.845  0.3976 -0.7709  0.6040
  141OSM    H4F15469   4.393   5.637   6.908  2.2536  1.3431 -2.9665
  141OSM    H4G15470   4.455   5.514   6.803  0.4985  1.4242 -1.2840
  141OSM    C5F15471   4.306   5.437   6.926  0.0652  0.1625 -0.0167
  141OSM    H5F15472   4.283   5.352   6.859 -1.9925 -0.1128  0.9753
  141OSM    H5G15473   4.207   5.463   6.969 -0.6063 -3.1103  0.7024
  141OSM    C6F15474   4.397   5.396   7.047 -0.0724 -0.0504 -0.1441
  141OSM    H6F15475   4.415   5.483   7.114  1.8648 -1.0256  0.7127
  141OSM    H6G15476   4.494   5.367   7.000 -0.9877 -1.3996 -1.2777
  141OSM    C7F15477   4.341   5.279   7.129  0.7302  0.0910 -0.3311
  141OSM    H7F15478   4.418   5.234   7.195  0.3935  0.2919  0.2056
  141OSM    H7G15479   4.308   5.200   7.059 -2.3661  2.4901 -1.8535
  141OSM    C8F15480   4.217   5.305   7.215 -0.4629 -0.2216 -1.1658
  141OSM    H8F15481   4.159   5.216   7.246 -0.1795 -0.0778 -0.2000
  141OSM    H8G15482   4.147   5.370   7.158  0.1281  3.1947  1.6778
  141OSM    C9F15483   4.240   5.398   7.333 -0.1956  0.6514  0.3036
  141OSM    H9F15484   4.232   5.507   7.319  0.8990  0.6935 -0.1259
  141OSM   C10F15485   4.275   5.351   7.459  1.0791  0.7828  1.3850
  141OSM   H10F15486   4.315   5.423   7.532  1.1115  1.1755  0.9853
  141OSM   C11F15487   4.280   5.203   7.505 -0.4271  0.0136 -0.3697
  141OSM   H11F15488   4.383   5.182   7.540  0.2325  1.1031 -1.6026
  141OSM   H11G15489   4.250   5.123   7.434 -0.1362 -0.4852  0.0575
  141OSM   C12F15490   4.200   5.171   7.629 -0.1993  0.3966 -0.4964
  141OSM   H12F15491   4.177   5.063   7.643 -0.2201  0.5265  0.5469
  141OSM   H12G15492   4.101   5.221   7.626 -0.0636  0.6013 -1.6742
  141OSM   C13F15493   4.266   5.230   7.754  0.1043  0.3816  0.0220
  141OSM   H13F15494   4.308   5.332   7.742 -0.9407  1.0430  1.6858
  141OSM   H13G15495   4.355   5.169   7.781 -1.6862 -1.5239  1.9612
  141OSM   C14F15496   4.167   5.237   7.873 -0.9232 -0.1109 -0.1036
  141OSM   H14F15497   4.128   5.137   7.899  0.6188 -0.4711  1.0501
  141OSM   H14G15498   4.082   5.304   7.849 -1.4135 -0.6811  0.0479
  141OSM   C15F15499   4.246   5.270   8.000  0.2332  0.0609  0.2984
  141OSM   H15F15500   4.291   5.369   7.977  2.1126 -1.0683 -1.3005
  141OSM   H15G15501   4.329   5.196   8.012  0.0159 -0.2847 -0.2983
  141OSM   C16F15502   4.158   5.260   8.123  0.7495 -0.3596  0.6711
  141OSM   H16F15503   4.114   5.160   8.141 -1.5105  0.7030  1.5292
  141OSM   H16G15504   4.073   5.331   8.111 -0.5527 -1.8408  0.7696
  141OSM   C17F15505   4.237   5.312   8.244 -0.5420 -1.0302  0.5943
  141OSM   H17F15506   4.301   5.395   8.206 -0.6270 -1.2100  0.0454
  141OSM   H17G15507   4.310   5.236   8.278  1.0738  0.6397  1.0586
  141OSM   C18F15508   4.149   5.356   8.363 -0.4648 -0.0538  0.0728
  141OSM   H18F15509   4.083   5.271   8.391 -0.2961 -0.2358 -0.0752
  141OSM   H18G15510   4.086   5.446   8.347 -1.2408 -0.5306  0.3880
  141OSM   H18H15511   4.209   5.371   8.455 -2.3050 -0.8579  1.4666
  142OSM      N15512   5.980   0.109   6.031 -0.8136 -0.3271 -0.1376
  142OSM    C1515513   5.976   0.231   6.098 -0.0499 -0.1580 -0.3693
  142OSM   H15A15514   5.980   0.319   6.036 -0.4858 -0.8084 -1.3518
  142OSM   H15B15515   6.049   0.237   6.178 -1.6887 -2.1316  1.3894
  142OSM   H15C15516   5.879   0.234   6.146  0.3559  0.9257  0.4376
  142OSM    C1415517   5.860   0.115   5.939  0.1072 -0.4106 -0.5265
  142OSM   H14A15518   5.853   0.029   5.874  1.7463 -1.7031  0.9162
  142OSM   H14B15519   5.878   0.205   5.881 -2.0341  0.4811  0.0819
  142OSM   H14C15520   5.771   0.131   5.997  0.9345  1.5310  0.3053
  142OSM    C1315521   6.107   0.100   5.950 -0.3036 -0.0669 -0.2177
  142OSM   H13A15522   6.130   0.191   5.896  2.0718 -0.9860 -0.8982
  142OSM   H13B15523   6.121   0.016   5.883  0.7066  1.5793 -2.2172
  142OSM   H13C15524   6.183   0.098   6.026  0.1321 -2.6964 -0.6555
  142OSM    C1215525   5.964  -0.013   6.127 -0.0264  0.0702  0.0528
  142OSM   H12A15526   6.048  -0.029   6.193 -0.1202  1.0686  0.4339
  142OSM   H12B15527   5.934  -0.097   6.067 -0.4694  0.7056 -0.6411
  142OSM    C1115528   5.853   0.002   6.236 -0.3798  0.3053  0.0490
  142OSM   H11A15529   5.872   0.097   6.292  2.0797  0.0670 -0.2882
  142OSM   H11B15530   5.852  -0.083   6.308 -2.6395 -0.5554 -0.9147
  142OSM      P15531   5.600   0.102   6.214 -0.3182  0.0304  0.2870
  142OSM    O1315532   5.630   0.242   6.179 -0.2357  0.0267  1.0336
  142OSM    O1415533   5.471   0.045   6.171 -0.1746 -0.4426  0.4068
  142OSM    O1115534   5.594   0.089   6.370 -0.2255  0.1582 -0.5706
  142OSM    O1215535   5.725   0.005   6.172  0.2523  0.3900 -1.2517
  142OSM    C1S15536   5.617  -0.027   6.444  0.3192 -0.1651  0.6808
  142OSM    H1S15537   5.723  -0.042   6.474 -0.1872 -1.3725  1.9967
  142OSM    H1T15538   5.596  -0.121   6.387  2.9574 -0.4636  0.0787
  142OSM     NF15539   5.555  -0.115   6.669 -0.1499  0.2863 -0.3178
  142OSM    HNF15540   5.503  -0.199   6.680  1.6137 -0.6769  1.2221
  142OSM    C2S15541   5.516  -0.029   6.561  0.3833  0.2998  0.0604
  142OSM    H2S15542   5.523   0.072   6.606 -0.3224  0.0737  0.6943
  142OSM    C3S15543   5.371  -0.059   6.518 -0.1321 -0.2290 -0.1124
  142OSM    H3S15544   5.360  -0.170   6.512  0.1866 -0.3292  0.9736
  142OSM     O315545   5.329  -0.005   6.391 -0.0078 -0.2930  0.0529
  142OSM    HO315546   5.417   0.011   6.355 -0.5366 -0.7346 -1.5149
  142OSM    C4S15547   5.269  -0.017   6.626 -0.7786  0.1977 -0.1414
  142OSM    H4S15548   5.235  -0.104   6.685 -0.8880 -0.1485 -0.7027
  142OSM    C5S15549   5.214   0.098   6.656 -0.8487 -0.5493  0.1894
  142OSM    H5S15550   5.251   0.188   6.607  0.1417  1.0473  3.5730
  142OSM    C6S15551   5.127   0.125   6.773 -0.2771  0.8773 -0.1166
  142OSM    H6S15552   5.045   0.052   6.792  0.0524  0.6467  0.4456
  142OSM    H6T15553   5.079   0.225   6.760  1.9126  1.9575 -0.3534
  142OSM    C7S15554   5.201   0.146   6.906  0.1446  0.3607 -0.6363
  142OSM    H7S15555   5.123   0.187   6.973 -1.5314 -0.6713 -1.8779
  142OSM    H7T15556   5.280   0.222   6.888  0.2528  0.0391 -1.5916
  142OSM    C8S15557   5.260   0.016   6.965  0.1164 -1.0133 -0.7601
  142OSM    H8S15558   5.336  -0.026   6.896 -0.1967  0.8791 -2.3322
  142OSM    H8T15559   5.177  -0.056   6.985 -0.5978 -0.4633 -1.6673
  142OSM    C9S15560   5.333   0.033   7.098  0.0089  0.3464  0.3460
  142OSM    H9S15561   5.396   0.125   7.093 -0.1865  0.4385 -0.5102
  142OSM    H9T15562   5.409  -0.047   7.104 -0.6908 -0.3282  0.3375
  142OSM   C10S15563   5.245   0.030   7.224 -0.2395 -0.4618 -0.1667
  142OSM   H10S15564   5.179  -0.059   7.210 -0.7150  0.0736 -1.5107
  142OSM   H10T15565   5.187   0.124   7.230  2.0103  1.0221 -0.4689
  142OSM   C11S15566   5.324   0.031   7.355 -0.3249  0.4457 -0.3353
  142OSM   H11S15567   5.399   0.112   7.362 -0.6374  0.6374  1.2351
  142OSM   H11T15568   5.387  -0.060   7.369  0.1089  0.7411 -0.3655
  142OSM   C12S15569   5.235   0.033   7.484  0.7564  0.9321  0.1354
  142OSM   H12S15570   5.156  -0.044   7.478 -0.3612  2.0526 -0.1386
  142OSM   H12T15571   5.177   0.127   7.468 -0.1087  0.1227 -1.7060
  142OSM   C13S15572   5.309   0.029   7.619  0.5082  0.5826 -0.3818
  142OSM   H13S15573   5.381   0.114   7.614  1.1091  0.1180  0.1635
  142OSM   H13T15574   5.383  -0.054   7.630  0.1072  0.2064 -0.5161
  142OSM   C14S15575   5.224   0.044   7.749  0.8474 -0.0496  0.9596
  142OSM   H14S15576   5.152  -0.040   7.760  2.1235 -1.4308 -0.6581
  142OSM   H14T15577   5.163   0.136   7.734  2.0181  0.5860 -0.1414
  142OSM   C15S15578   5.311   0.034   7.872 -0.9460 -0.2425  0.1312
  142OSM   H15S15579   5.387   0.110   7.845 -1.8968  0.0483 -1.9100
  142OSM   H15T15580   5.353  -0.068   7.885 -1.4088 -1.1458 -4.0832
  142OSM   C16S15581   5.253   0.077   8.007 -0.4723  0.2568 -0.5655
  142OSM   H16S15582   5.151   0.034   8.009 -0.2323 -0.4281  2.5482
  142OSM   H16T15583   5.258   0.188   8.016  2.4222  0.0964  1.2599
  142OSM   C17S15584   5.347   0.030   8.116 -0.6182  1.1557  0.1790
  142OSM   H17S15585   5.347  -0.080   8.126 -0.5876  1.3015  2.2309
  142OSM   H17T15586   5.302   0.076   8.207 -0.9134  0.4712  0.3823
  142OSM   C18S15587   5.494   0.083   8.117  0.8645  0.2288  0.2448
  142OSM   H18S15588   5.495   0.192   8.095  1.2845  0.2927  0.5818
  142OSM   H18T15589   5.544   0.021   8.039 -0.1231 -1.5232  0.9512
  142OSM   H18U15590   5.550   0.067   8.211  0.0009 -3.1433  0.3134
  142OSM    C1F15591   5.660  -0.090   6.745  0.7570  0.4958 -0.3926
  142OSM     OF15592   5.736   0.000   6.717  0.2244 -0.4484  0.2378
  142OSM    C2F15593   5.682  -0.181   6.855 -0.0968 -0.0736 -0.1076
  142OSM    H2F15594   5.739  -0.270   6.821  2.4423  0.8758  1.3670
  142OSM    H2G15595   5.594  -0.227   6.906 -0.6575  1.0004 -0.0678
  142OSM    C3F15596   5.782  -0.121   6.954 -0.1252 -0.7286 -0.1237
  142OSM    H3F15597   5.882  -0.110   6.906  0.0334 -0.0304  0.3495
  142OSM    H3G15598   5.786  -0.195   7.037 -1.8035  0.3235  0.9503
  142OSM    C4F15599   5.724   0.007   7.028 -0.1581  0.2114  0.8078
  142OSM    H4F15600   5.625  -0.029   7.063 -0.3589 -1.3462 -1.1559
  142OSM    H4G15601   5.705   0.088   6.954 -0.9713 -0.0680  0.6991
  142OSM    C5F15602   5.810   0.051   7.139 -0.1234 -0.5882  0.0600
  142OSM    H5F15603   5.827  -0.035   7.207  0.3705 -0.4861  0.0719
  142OSM    H5G15604   5.763   0.128   7.203 -0.6948  0.5470 -1.6516
  142OSM    C6F15605   5.949   0.104   7.091  0.3228 -0.2890 -0.6472
  142OSM    H6F15606   5.951   0.200   7.034  0.6078 -1.0128 -1.8996
  142OSM    H6G15607   5.998   0.020   7.036  2.7304  0.9918 -0.5914
  142OSM    C7F15608   6.046   0.133   7.214  0.5334  0.0984 -0.2858
  142OSM    H7F15609   6.150   0.126   7.177  0.8839 -1.0720  0.8447
  142OSM    H7G15610   6.030   0.057   7.293 -0.3450 -1.7618 -2.1495
  142OSM    C8F15611   6.029   0.265   7.292  0.7390 -0.2738 -0.3214
  142OSM    H8F15612   5.920   0.263   7.313  0.7562  1.1188 -0.0630
  142OSM    H8G15613   6.039   0.345   7.215 -0.1686  1.0089  0.8542
  142OSM    C9F15614   6.120   0.289   7.412 -1.0138  0.5350 -0.0012
  142OSM    H9F15615   6.225   0.257   7.405 -0.9235  1.0152 -0.9671
  142OSM   C10F15616   6.083   0.366   7.519 -0.1078  0.3833 -1.0950
  142OSM   H10F15617   6.152   0.371   7.605 -1.0578 -1.4613 -0.1757
  142OSM   C11F15618   5.953   0.440   7.546  0.3143 -0.3462  0.0615
  142OSM   H11F15619   5.908   0.385   7.632 -0.9441 -1.0761 -1.0245
  142OSM   H11G15620   5.885   0.434   7.459  0.0025 -0.3905  0.3052
  142OSM   C12F15621   5.967   0.590   7.597 -0.1590 -0.3138  0.8727
  142OSM   H12F15622   5.866   0.635   7.591 -0.0775 -0.3060 -0.9878
  142OSM   H12G15623   6.031   0.647   7.527 -1.8556  0.4233 -0.1464
  142OSM   C13F15624   6.040   0.594   7.728 -0.0818  0.0155  0.9065
  142OSM   H13F15625   6.146   0.566   7.715 -0.3750 -0.4000 -0.9198
  142OSM   H13G15626   5.992   0.525   7.801  1.2326 -2.3159 -0.3348
  142OSM   C14F15627   6.028   0.734   7.788  0.4977  0.4779 -0.2626
  142OSM   H14F15628   5.919   0.749   7.802 -0.0534 -3.7941  1.5390
  142OSM   H14G15629   6.070   0.803   7.712  0.0491  1.5066  0.3989
  142OSM   C15F15630   6.094   0.761   7.923 -0.3305  0.2128  0.3316
  142OSM   H15F15631   6.099   0.868   7.950  0.1338 -0.1720  1.9328
  142OSM   H15G15632   6.196   0.717   7.921  0.3709  1.8164 -2.1355
  142OSM   C16F15633   6.020   0.677   8.028 -1.0529 -0.0233 -0.1908
  142OSM   H16F15634   6.027   0.569   8.006  1.5114  0.0847 -0.1781
  142OSM   H16G15635   5.913   0.706   8.038 -0.9818  0.7323 -1.3575
  142OSM   C17F15636   6.074   0.703   8.170 -0.0536  0.1543  0.6223
  142OSM   H17F15637   6.129   0.799   8.162 -1.1515  0.9397  2.0276
  142OSM   H17G15638   6.148   0.623   8.196 -0.8853 -0.6178  0.6681
  142OSM   C18F15639   5.969   0.710   8.279  0.9359  0.4363 -0.2868
  142OSM   H18F15640   5.906   0.799   8.258 -0.2596 -0.0479  1.1268
  142OSM   H18G15641   6.013   0.722   8.380  0.9017 -0.6441 -0.1284
  142OSM   H18H15642   5.912   0.615   8.272  1.5888 -0.0089  0.2658
  143OSM      N15643   2.025   2.238   6.212 -0.4378  0.7891 -0.0732
  143OSM    C1515644   2.154   2.223   6.277 -0.0628 -0.0466  0.2238
  143OSM   H15A15645   2.145   2.157   6.362  2.0062  1.2024  1.5128
  143OSM   H15B15646   2.199   2.314   6.317 -2.1924 -0.0736  2.9266
  143OSM   H15C15647   2.229   2.178   6.214 -0.1425 -3.5818  2.3739
  143OSM    C1415648   1.948   2.332   6.291  0.3468  0.3212 -0.3035
  143OSM   H14A15649   2.009   2.420   6.302  1.9657 -0.7939 -0.1055
  143OSM   H14B15650   1.938   2.291   6.390  0.7232  1.6417  0.2996
  143OSM   H14C15651   1.854   2.355   6.243  0.8802  0.6594 -1.1968
  143OSM    C1315652   2.031   2.277   6.067  0.5298  0.2889 -0.0757
  143OSM   H13A15653   2.113   2.221   6.023  1.2761  1.9787 -0.9274
  143OSM   H13B15654   2.068   2.377   6.050 -0.4120  0.6116 -0.2379
  143OSM   H13C15655   1.941   2.257   6.011  0.0860  0.4737  0.5591
  143OSM    C1215656   1.956   2.102   6.209 -0.2558  0.2498 -0.0795
  143OSM   H12A15657   2.018   2.046   6.141 -0.1522  0.5944 -0.2727
  143OSM   H12B15658   1.857   2.110   6.166 -1.7332  1.0565  3.2068
  143OSM    C1115659   1.940   2.029   6.347  0.3958  0.1501  0.8083
  143OSM   H11A15660   1.879   1.937   6.329  0.9065  0.3239 -2.6463
  143OSM   H11B15661   1.873   2.097   6.404  2.1450  3.5094 -0.8503
  143OSM      P15662   2.153   1.887   6.368 -0.5080  0.1096  0.0217
  143OSM    O1315663   2.173   1.885   6.225 -0.2275 -0.4278 -0.0085
  143OSM    O1415664   2.274   1.890   6.450  0.4707  0.4026 -0.6576
  143OSM    O1115665   2.052   1.769   6.406  0.1630 -0.4839 -0.1295
  143OSM    O1215666   2.053   2.000   6.422  0.1424 -0.3149  0.4253
  143OSM    C1S15667   2.005   1.752   6.542 -0.4987 -0.0387 -0.0465
  143OSM    H1S15668   2.049   1.830   6.607  0.0160  1.5236 -2.1470
  143OSM    H1T15669   2.031   1.651   6.581  0.7600  0.5386  0.6671
  143OSM     NF15670   1.809   1.739   6.700 -0.7939  1.0343 -0.1881
  143OSM    HNF15671   1.786   1.649   6.736 -1.7239  1.9251  1.5614
  143OSM    C2S15672   1.848   1.753   6.559  0.2345 -0.1072 -0.0251
  143OSM    H2S15673   1.818   1.855   6.527  0.7749  0.2078  0.4491
  143OSM    C3S15674   1.792   1.644   6.470 -0.4475 -0.0618 -0.0028
  143OSM    H3S15675   1.838   1.551   6.509  1.1176  0.6430 -0.1065
  143OSM     O315676   1.832   1.657   6.335 -0.0045  0.2824  0.2009
  143OSM    HO315677   1.912   1.706   6.358  1.6799 -1.4013 -1.6467
  143OSM    C4S15678   1.641   1.630   6.479  0.0320 -0.4347 -0.1556
  143OSM    H4S15679   1.588   1.725   6.465  0.1690 -0.1988  0.8636
  143OSM    C5S15680   1.582   1.513   6.518  0.0930  0.4105 -0.8842
  143OSM    H5S15681   1.658   1.435   6.534 -0.0060  0.6193  0.7753
  143OSM    C6S15682   1.435   1.495   6.555 -0.7084 -0.6521 -0.0152
  143OSM    H6S15683   1.379   1.445   6.474  0.2900 -0.6226 -0.7347
  143OSM    H6T15684   1.388   1.596   6.555 -0.8526 -0.7169  0.4871
  143OSM    C7S15685   1.417   1.409   6.679 -0.1197 -0.3678 -0.3387
  143OSM    H7S15686   1.456   1.307   6.659 -2.0936 -1.1887 -0.3245
  143OSM    H7T15687   1.308   1.393   6.697  0.2899  0.3571  3.8301
  143OSM    C8S15688   1.473   1.473   6.809  0.3895 -0.6445  0.1347
  143OSM    H8S15689   1.416   1.567   6.822  1.2817  0.1471 -1.4620
  143OSM    H8T15690   1.582   1.496   6.805  0.5217 -1.2042 -3.6608
  143OSM    C9S15691   1.457   1.385   6.931  0.3507  0.4362 -0.3145
  143OSM    H9S15692   1.508   1.288   6.919  0.2874  0.1269  1.5590
  143OSM    H9T15693   1.351   1.371   6.964  0.3437 -2.5444 -1.3160
  143OSM   C10S15694   1.553   1.451   7.040  0.3922 -0.4641 -0.1071
  143OSM   H10S15695   1.500   1.540   7.078 -0.4692 -1.5992  1.4751
  143OSM   H10T15696   1.651   1.486   7.001  0.0869  0.1160 -0.3727
  143OSM   C11S15697   1.561   1.357   7.158 -0.0742 -0.1529 -0.0701
  143OSM   H11S15698   1.626   1.271   7.130  0.2255 -0.2204  0.8018
  143OSM   H11T15699   1.461   1.314   7.178 -0.1334  0.2680  0.5569
  143OSM   C12S15700   1.635   1.407   7.286  0.0797 -0.4075  0.1686
  143OSM   H12S15701   1.727   1.460   7.253  0.3511  1.5361  3.4949
  143OSM   H12T15702   1.670   1.318   7.342  0.5988 -1.5022 -1.8192
  143OSM   C13S15703   1.553   1.504   7.373 -0.5094 -0.6640 -0.3826
  143OSM   H13S15704   1.476   1.439   7.420  0.6520 -1.7916  0.0431
  143OSM   H13T15705   1.510   1.583   7.308  1.6359  1.1277  0.2425
  143OSM   C14S15706   1.642   1.578   7.468  0.2279  0.8113 -0.2702
  143OSM   H14S15707   1.607   1.683   7.476 -1.3810  0.2187  1.1957
  143OSM   H14T15708   1.749   1.585   7.439  0.7435  0.4632  1.4382
  143OSM   C15S15709   1.632   1.515   7.610  0.5531 -0.2944  0.8687
  143OSM   H15S15710   1.674   1.413   7.607 -1.9936 -1.4084  0.3606
  143OSM   H15T15711   1.531   1.501   7.655  0.0453  1.2099  0.2814
  143OSM   C16S15712   1.710   1.596   7.712  0.3354  0.5155  0.4174
  143OSM   H16S15713   1.794   1.656   7.671 -0.3149  1.6349  0.6930
  143OSM   H16T15714   1.744   1.531   7.796 -0.7018  0.7330  1.0187
  143OSM   C17S15715   1.621   1.698   7.789  0.3696 -0.3327  0.0392
  143OSM   H17S15716   1.533   1.642   7.827  0.2500 -0.0902  0.1220
  143OSM   H17T15717   1.584   1.766   7.710  0.5790 -1.8908 -1.4570
  143OSM   C18S15718   1.695   1.769   7.900 -0.5266  0.0585 -0.0686
  143OSM   H18S15719   1.733   1.703   7.981  0.9197  0.6323 -0.2568
  143OSM   H18T15720   1.623   1.846   7.937  0.9637  1.8529 -0.7947
  143OSM   H18U15721   1.780   1.832   7.866  0.4006 -1.6421 -1.0353
  143OSM    C1F15722   1.834   1.829   6.792  0.3315  1.0354  0.3034
  143OSM     OF15723   1.880   1.936   6.749  0.7474 -0.4399 -0.6497
  143OSM    C2F15724   1.802   1.798   6.929 -0.1495  0.2434 -0.1277
  143OSM    H2F15725   1.820   1.689   6.942  3.0744  0.6320 -0.5046
  143OSM    H2G15726   1.695   1.816   6.950 -0.1443  0.4190 -0.2477
  143OSM    C3F15727   1.887   1.878   7.022  0.5393  0.8554 -0.7562
  143OSM    H3F15728   1.877   1.988   7.012 -2.5277  0.7380 -0.1884
  143OSM    H3G15729   1.996   1.860   7.011  0.6236 -0.7800  1.8291
  143OSM    C4F15730   1.844   1.850   7.172  0.1596 -0.2190  1.1304
  143OSM    H4F15731   1.838   1.741   7.195  1.5971 -0.2186  1.5842
  143OSM    H4G15732   1.738   1.876   7.194 -0.2680 -0.6440 -0.3182
  143OSM    C5F15733   1.929   1.925   7.280  0.3864  0.8992  0.0210
  143OSM    H5F15734   1.923   2.035   7.265 -3.0300  0.7087 -0.9447
  143OSM    H5G15735   2.034   1.891   7.280  0.1475  0.1086 -0.9684
  143OSM    C6F15736   1.878   1.910   7.427 -0.0426 -0.4197  0.5317
  143OSM    H6F15737   1.801   1.831   7.444  0.7443 -1.7693 -1.7623
  143OSM    H6G15738   1.828   2.000   7.469  1.0088  0.8758 -0.8857
  143OSM    C7F15739   1.992   1.896   7.529 -0.0952  0.0981  0.3290
  143OSM    H7F15740   2.073   1.837   7.481  1.0394  4.1701 -3.4218
  143OSM    H7G15741   1.949   1.836   7.612 -3.2999 -2.9138 -3.1655
  143OSM    C8F15742   2.053   2.026   7.572 -0.3816 -0.5517  0.5591
  143OSM    H8F15743   2.040   2.101   7.491  2.4828 -3.1986 -2.6728
  143OSM    H8G15744   2.162   2.019   7.592  0.3587  1.3310 -2.2297
  143OSM    C9F15745   1.989   2.078   7.700 -0.1142 -0.8013 -0.2489
  143OSM    H9F15746   1.937   2.173   7.684  0.3108 -0.3213  1.1163
  143OSM   C10F15747   2.006   2.040   7.830 -0.4456 -0.0538 -0.2758
  143OSM   H10F15748   1.959   2.094   7.913 -0.1882 -0.2843  0.0185
  143OSM   C11F15749   2.094   1.929   7.871  0.3773  0.3641 -0.0088
  143OSM   H11F15750   2.114   1.868   7.781 -1.3234 -0.3208  0.0495
  143OSM   H11G15751   2.057   1.858   7.948 -0.6446 -0.9894 -1.6982
  143OSM   C12F15752   2.234   1.975   7.923  0.3777 -0.6407 -0.8273
  143OSM   H12F15753   2.282   2.037   7.843  0.6824 -2.2990 -1.9898
  143OSM   H12G15754   2.303   1.891   7.947 -0.9841 -1.4321  0.4533
  143OSM   C13F15755   2.229   2.059   8.050 -0.3847  0.2987  0.8865
  143OSM   H13F15756   2.179   2.011   8.136  0.7141  1.3759  2.1627
  143OSM   H13G15757   2.198   2.164   8.035 -1.2638  0.0136  0.6605
  143OSM   C14F15758   2.369   2.071   8.115  0.0087  0.5228  0.8090
  143OSM   H14F15759   2.448   2.098   8.041 -1.0916  0.0069 -0.5914
  143OSM   H14G15760   2.391   1.968   8.148 -1.5461 -1.1547 -2.8376
  143OSM   C15F15761   2.391   2.172   8.235  0.0533  0.0554  0.6836
  143OSM   H15F15762   2.328   2.133   8.318 -3.6638  1.0308 -1.4913
  143OSM   H15G15763   2.356   2.273   8.208  0.1277 -0.4465 -1.4702
  143OSM   C16F15764   2.541   2.176   8.267 -0.3761  0.4824  0.3831
  143OSM   H16F15765   2.590   2.237   8.188 -3.0954 -0.0886 -1.9140
  143OSM   H16G15766   2.591   2.079   8.251 -2.1455 -0.0415 -3.1352
  143OSM   C17F15767   2.586   2.237   8.398  0.8598  0.9046 -0.1761
  143OSM   H17F15768   2.696   2.233   8.412  0.7233 -0.1881  0.7467
  143OSM   H17G15769   2.543   2.175   8.480  0.1075  1.9058  0.2105
  143OSM   C18F15770   2.550   2.378   8.420 -0.1097 -0.1171 -0.4677
  143OSM   H18F15771   2.446   2.398   8.384 -0.6706 -2.5877 -0.4145
  143OSM   H18G15772   2.618   2.446   8.365 -0.0098  0.2936  0.1528
  143OSM   H18H15773   2.571   2.400   8.527  3.5523 -0.7862 -0.9176
  144OSM      N15774   6.597   2.533   5.960 -0.5386 -1.3116  0.0994
  144OSM    C1515775   6.721   2.484   5.893 -0.8360  0.4046 -0.4734
  144OSM   H15A15776   6.687   2.429   5.807 -3.3822  0.4724  0.4044
  144OSM   H15B15777   6.771   2.409   5.952 -0.9817  0.1524 -0.6727
  144OSM   H15C15778   6.792   2.558   5.860  1.7116 -1.7014 -0.0153
  144OSM    C1415779   6.518   2.634   5.879  0.2280 -0.0001  0.2252
  144OSM   H14A15780   6.569   2.722   5.843 -2.0443  1.0100 -0.7358
  144OSM   H14B15781   6.433   2.666   5.937  0.9609  0.9948  0.7690
  144OSM   H14C15782   6.484   2.579   5.792 -0.4988 -0.0110  0.5068
  144OSM    C1315783   6.501   2.418   5.987 -0.4124  0.0900  0.2237
  144OSM   H13A15784   6.537   2.339   6.050  0.6917 -1.4030 -2.1446
  144OSM   H13B15785   6.476   2.370   5.894  2.3558  0.1479 -0.6180
  144OSM   H13C15786   6.415   2.450   6.044 -0.5023  0.0326  0.1200
  144OSM    C1215787   6.637   2.603   6.083 -0.5231  0.2981 -0.0627
  144OSM   H12A15788   6.669   2.702   6.051  1.9458  0.8010  3.3653
  144OSM   H12B15789   6.720   2.557   6.134 -0.6594 -0.4258 -0.4793
  144OSM    C1115790   6.536   2.618   6.197 -0.2603 -0.0405  0.1235
  144OSM   H11A15791   6.595   2.672   6.275 -2.6016 -1.3921  3.0574
  144OSM   H11B15792   6.499   2.522   6.238  0.3675 -0.8934 -1.2706
  144OSM      P15793   6.412   2.847   6.211 -0.0684  0.5103  0.1972
  144OSM    O1315794   6.540   2.919   6.181  0.5433 -0.0196  0.1442
  144OSM    O1415795   6.281   2.896   6.163  1.1555 -0.6055  0.5457
  144OSM    O1115796   6.400   2.821   6.365  0.1850  0.3173  0.4323
  144OSM    O1215797   6.426   2.700   6.155 -0.2826  0.1358  0.2377
  144OSM    C1S15798   6.275   2.767   6.424 -1.1903  0.3132 -0.1503
  144OSM    H1S15799   6.247   2.671   6.376 -2.5899  0.3213  0.6053
  144OSM    H1T15800   6.195   2.842   6.408 -0.3309  0.7681 -2.8903
  144OSM     NF15801   6.170   2.664   6.628  0.2425 -0.1494 -0.6641
  144OSM    HNF15802   6.100   2.718   6.672  0.6798 -1.3430  1.6452
  144OSM    C2S15803   6.289   2.736   6.579 -0.3689 -0.8441  0.5019
  144OSM    H2S15804   6.379   2.672   6.593  1.2628  0.9417 -1.2880
  144OSM    C3S15805   6.314   2.875   6.639  0.6067  0.6470 -0.0633
  144OSM    H3S15806   6.235   2.947   6.607 -0.9475 -1.9257 -2.5006
  144OSM     O315807   6.443   2.932   6.600  0.3129  0.0053  0.1104
  144OSM    HO315808   6.484   2.864   6.546 -2.7358  0.1489 -2.6888
  144OSM    C4S15809   6.288   2.877   6.788 -0.8112 -0.1072  0.0853
  144OSM    H4S15810   6.210   2.944   6.826  0.2823  1.0085  0.4185
  144OSM    C5S15811   6.369   2.812   6.875  0.0372 -0.4040  0.1366
  144OSM    H5S15812   6.460   2.766   6.834 -0.1220  2.0175 -3.3740
  144OSM    C6S15813   6.334   2.817   7.019  0.5475  0.0080 -0.1550
  144OSM    H6S15814   6.383   2.729   7.065 -1.0189 -1.3939 -1.0535
  144OSM    H6T15815   6.225   2.802   7.037  0.5935  1.7946  2.0846
  144OSM    C7S15816   6.388   2.940   7.096 -0.1234  0.8155 -0.1152
  144OSM    H7S15817   6.338   3.026   7.047 -0.0638  1.3523  0.7409
  144OSM    H7T15818   6.497   2.950   7.079 -0.2595  3.2518  0.1436
  144OSM    C8S15819   6.357   2.931   7.250  0.0711 -0.1261 -0.3443
  144OSM    H8S15820   6.405   2.845   7.302  0.1031 -0.5803 -1.1129
  144OSM    H8T15821   6.248   2.920   7.269  0.1999  0.7665  1.0652
  144OSM    C9S15822   6.394   3.060   7.331  0.5003 -0.6995  0.0982
  144OSM    H9S15823   6.334   3.145   7.291  0.1755 -0.6262  0.7309
  144OSM    H9T15824   6.499   3.085   7.302 -0.1790  1.9865 -0.2964
  144OSM   C10S15825   6.375   3.061   7.478 -0.1037 -0.9533 -0.7593
  144OSM   H10S15826   6.449   2.986   7.513  1.8508  2.0353  2.2030
  144OSM   H10T15827   6.272   3.033   7.510 -0.5821  2.0181  0.7498
  144OSM   C11S15828   6.441   3.194   7.545  0.0320  0.8562 -0.0102
  144OSM   H11S15829   6.376   3.282   7.526  0.4172  1.3310  0.8240
  144OSM   H11T15830   6.540   3.216   7.499 -0.2912 -0.3449 -1.3407
  144OSM   C12S15831   6.454   3.183   7.698 -0.0258 -0.0070  0.4293
  144OSM   H12S15832   6.552   3.142   7.732 -0.4293 -1.8497 -0.5159
  144OSM   H12T15833   6.384   3.108   7.741  0.9260 -1.0125  0.2773
  144OSM   C13S15834   6.440   3.314   7.767 -0.2657 -0.3656  0.6539
  144OSM   H13S15835   6.332   3.340   7.773 -0.5483 -0.9600 -1.1683
  144OSM   H13T15836   6.486   3.397   7.710  2.3089 -0.7520  2.0443
  144OSM   C14S15837   6.497   3.321   7.911 -0.8255 -0.0291 -0.4895
  144OSM   H14S15838   6.606   3.302   7.906 -0.3094  2.7624 -1.7269
  144OSM   H14T15839   6.442   3.249   7.976 -1.0076  2.7342  2.6611
  144OSM   C15S15840   6.487   3.453   7.976  0.0424  0.0633 -0.1760
  144OSM   H15S15841   6.379   3.475   7.988 -0.5161 -1.2412 -2.2980
  144OSM   H15T15842   6.528   3.537   7.914 -1.7661  1.4847  0.4789
  144OSM   C16S15843   6.564   3.458   8.109 -0.6434 -0.3713  0.1394
  144OSM   H16S15844   6.666   3.417   8.093 -1.2764 -1.6715 -0.8269
  144OSM   H16T15845   6.509   3.391   8.179  1.0996 -1.3062  0.6760
  144OSM   C17S15846   6.564   3.590   8.190 -0.1221  0.5191  0.5965
  144OSM   H17S15847   6.457   3.622   8.190 -0.6348 -1.0711 -0.2864
  144OSM   H17T15848   6.617   3.672   8.137 -1.4569  0.3584 -1.1177
  144OSM   C18S15849   6.620   3.586   8.334 -0.2077 -0.8642  0.1682
  144OSM   H18S15850   6.724   3.546   8.329 -0.1775 -1.0062  1.5293
  144OSM   H18T15851   6.556   3.522   8.399  0.4742 -0.5348  1.1922
  144OSM   H18U15852   6.623   3.688   8.377  2.2652 -0.4900 -0.7390
  144OSM    C1F15853   6.135   2.534   6.618  0.0599 -0.1657 -0.5186
  144OSM     OF15854   6.182   2.458   6.532  0.5975  0.5326 -1.0047
  144OSM    C2F15855   6.036   2.484   6.712  0.0821 -0.0368  0.2759
  144OSM    H2F15856   6.001   2.382   6.684 -1.5024  0.6611 -0.3738
  144OSM    H2G15857   5.939   2.537   6.714  0.2124  0.1987  1.3409
  144OSM    C3F15858   6.080   2.493   6.862  0.7830  0.2197 -0.6726
  144OSM    H3F15859   6.088   2.602   6.884  1.6097  0.3174 -1.4025
  144OSM    H3G15860   6.182   2.455   6.884  1.2953  2.7267  1.8656
  144OSM    C4F15861   5.979   2.423   6.953  0.2816  0.5042  0.3454
  144OSM    H4F15862   5.972   2.315   6.928 -1.4791  1.0322 -1.8297
  144OSM    H4G15863   5.877   2.461   6.933 -0.7515 -1.5395  1.4523
  144OSM    C5F15864   5.981   2.434   7.107 -0.7788  0.0639  0.1247
  144OSM    H5F15865   5.896   2.386   7.161 -1.2442 -0.5053 -1.0653
  144OSM    H5G15866   5.967   2.542   7.128 -1.1062  0.5173 -2.1060
  144OSM    C6F15867   6.113   2.378   7.159  0.5940 -0.0069 -0.5568
  144OSM    H6F15868   6.201   2.434   7.122 -0.5517  0.9969 -1.8731
  144OSM    H6G15869   6.145   2.281   7.116 -0.2086  0.0435 -1.3043
  144OSM    C7F15870   6.124   2.399   7.311  0.8100 -0.0701 -0.6783
  144OSM    H7F15871   6.023   2.386   7.355  1.7070  1.1279  1.8938
  144OSM    H7G15872   6.163   2.503   7.311  1.0129 -0.0802  2.0930
  144OSM    C8F15873   6.208   2.297   7.382 -0.4464  0.0947  0.2861
  144OSM    H8F15874   6.226   2.324   7.488 -0.8658 -0.2254  0.4436
  144OSM    H8G15875   6.309   2.305   7.338  0.0229 -0.7400  1.1803
  144OSM    C9F15876   6.163   2.158   7.388  0.2208 -0.1345  0.6600
  144OSM    H9F15877   6.228   2.091   7.330 -2.1327 -1.8629 -0.1452
  144OSM   C10F15878   6.063   2.109   7.465  0.5274  0.2305  0.4414
  144OSM   H10F15879   6.041   2.001   7.457 -1.8905  0.7155 -0.1249
  144OSM   C11F15880   5.962   2.177   7.554  0.1150 -0.3249  0.1309
  144OSM   H11F15881   5.866   2.122   7.560 -0.0165 -0.3221 -1.4802
  144OSM   H11G15882   5.940   2.280   7.517 -0.8613 -1.6544 -3.3569
  144OSM   C12F15883   6.023   2.195   7.698 -0.0340  0.0210 -0.6614
  144OSM   H12F15884   5.978   2.279   7.754  1.6854 -0.3258  1.4082
  144OSM   H12G15885   6.127   2.231   7.686  0.1216  0.9234  2.3650
  144OSM   C13F15886   6.014   2.067   7.771  0.3886  0.9525  0.1895
  144OSM   H13F15887   6.053   1.980   7.714  2.5236  1.6603  0.4823
  144OSM   H13G15888   5.911   2.038   7.798  0.6304 -1.6394 -1.3434
  144OSM   C14F15889   6.089   2.062   7.907 -0.4560  0.4178  0.5574
  144OSM   H14F15890   6.056   2.146   7.971  0.0823  1.1389 -0.0902
  144OSM   H14G15891   6.195   2.078   7.878 -1.2568  0.6875 -2.6700
  144OSM   C15F15892   6.083   1.929   7.985 -0.1258  0.0849  0.3953
  144OSM   H15F15893   6.096   1.853   7.905  1.9834  0.6282  0.1477
  144OSM   H15G15894   5.981   1.924   8.028 -0.9384  1.1598 -1.3336
  144OSM   C16F15895   6.187   1.924   8.092 -0.0137 -0.0401 -0.1979
  144OSM   H16F15896   6.169   1.994   8.177  0.1501 -0.7892  0.4603
  144OSM   H16G15897   6.283   1.949   8.042 -0.2553 -0.5298 -0.9223
  144OSM   C17F15898   6.199   1.787   8.159 -0.4823  0.2031  0.0466
  144OSM   H17F15899   6.224   1.710   8.083 -0.3966 -0.3269  0.5990
  144OSM   H17G15900   6.097   1.764   8.196 -0.5019  2.0952  1.3128
  144OSM   C18F15901   6.298   1.790   8.280  0.2576  0.0004  0.2371
  144OSM   H18F15902   6.294   1.689   8.324 -0.7261 -0.0317  0.0952
  144OSM   H18G15903   6.251   1.866   8.346 -2.8177  0.5343 -2.2850
  144OSM   H18H15904   6.404   1.811   8.252  0.9105 -2.7379  0.4220
  145SAPE     N15905   2.107   0.765  10.591  0.0417  0.0903 -0.1287
  145SAPE   HN115906   2.027   0.756  10.525  0.0220 -1.1717  0.0434
  145SAPE   HN215907   2.149   0.676  10.624 -0.7739 -0.3471 -0.2547
  145SAPE   HN315908   2.056   0.804  10.673  2.1703 -0.1606  1.4012
  145SAPE   C1215909   2.206   0.869  10.547 -0.0341  0.2313  0.4983
  145SAPE  H12A15910   2.263   0.917  10.629  1.7979  0.3577 -0.7746
  145SAPE  H12B15911   2.138   0.929  10.483 -0.6655 -1.3425 -0.3628
  145SAPE   C1115912   2.317   0.807  10.462  0.0126 -0.6883  0.0286
  145SAPE  H11A15913   2.389   0.884  10.428  1.8492 -1.4922  1.9160
  145SAPE  H11B15914   2.268   0.764  10.372  0.0081  0.7221 -0.6753
  145SAPE     P15915   2.362   0.556  10.532  0.0553 -0.6095 -0.0926
  145SAPE   O1315916   2.490   0.486  10.567  0.2671  0.0893  0.4785
  145SAPE   O1415917   2.244   0.537  10.622  0.2676 -0.7353 -0.5266
  145SAPE   O1215918   2.403   0.715  10.534  0.6551  0.0237 -0.0559
  145SAPE   O1115919   2.323   0.513  10.392 -0.2386  0.4482  0.2138
  145SAPE    C115920   2.419   0.510  10.284  0.6304  0.6654  1.0385
  145SAPE    HA15921   2.506   0.573  10.311  1.0117  0.2493  0.7981
  145SAPE    HB15922   2.464   0.410  10.268 -1.3675 -0.0355 -0.6360
  145SAPE    C215923   2.355   0.555  10.152 -0.5868  0.3718  0.0196
  145SAPE    HS15924   2.410   0.510  10.067 -0.2711  0.7171  0.0410
  145SAPE   O2115925   2.340   0.695  10.146 -0.7376  0.0846  0.1386
  145SAPE   C2115926   2.451   0.761  10.134  0.2000 -0.4987  0.3757
  145SAPE   O2215927   2.565   0.718  10.131  0.4680  0.5334 -0.6926
  145SAPE   C2215928   2.423   0.910  10.126 -0.3963 -0.2391 -0.3963
  145SAPE   H2R15929   2.356   0.929  10.213  0.3677  0.1302  0.1200
  145SAPE   H2S15930   2.515   0.970  10.142  1.1480 -1.9601 -2.2477
  145SAPE    C315931   2.216   0.482  10.132 -0.7507 -0.2620  0.0253
  145SAPE    HX15932   2.162   0.513  10.223 -2.9801 -0.8267 -1.0396
  145SAPE    HY15933   2.238   0.373  10.122 -0.5463 -0.3426  1.2145
  145SAPE   O3115934   2.146   0.531  10.021  0.6901 -0.0529 -0.9351
  145SAPE   C3115935   2.183   0.485   9.902  0.3596 -0.2327  0.1772
  145SAPE   O3215936   2.271   0.402   9.885  0.5040  0.3447  0.4469
  145SAPE   C3215937   2.105   0.559   9.793 -0.2366  0.1471  0.4037
  145SAPE   H2X15938   2.129   0.668   9.801 -1.5553  0.3977  1.2074
  145SAPE   H2Y15939   1.995   0.546   9.802 -0.2511  0.6842  1.1587
  145SAPE   C2315940   2.341   0.957  10.003 -0.2837  0.0312 -0.0648
  145SAPE   H3R15941   2.309   1.063  10.006  0.9431  0.4081  0.8804
  145SAPE   H3S15942   2.252   0.891   9.999  1.0278 -1.7992 -3.0006
  145SAPE   C2415943   2.412   0.948   9.866  0.1252 -0.3177  0.4503
  145SAPE   H4R15944   2.486   1.031   9.860  1.8798 -1.8968 -0.9341
  145SAPE   H4S15945   2.327   0.966   9.797 -1.9581 -0.1158  2.9311
  145SAPE   C2515946   2.465   0.813   9.824  0.0566 -0.3232  0.3619
  145SAPE   H5R15947   2.539   0.757   9.882  1.5783  0.3859 -0.8081
  145SAPE   C2615948   2.437   0.740   9.707 -0.4485  0.1144  0.2485
  145SAPE   H6R15949   2.477   0.639   9.687 -1.2935  0.2436 -2.3730
  145SAPE   C2715950   2.347   0.787   9.597 -0.3655 -0.8306 -0.1609
  145SAPE   H7R15951   2.246   0.806   9.638 -0.6318  0.3464 -1.2809
  145SAPE   H7S15952   2.342   0.708   9.519  2.0291 -0.7052 -0.5310
  145SAPE   C2815953   2.399   0.920   9.531 -0.0173  0.1084 -0.5070
  145SAPE   H8R15954   2.426   1.010   9.588  1.4628 -0.4350 -0.2923
  145SAPE   C2915955   2.421   0.939   9.398  0.3264 -0.1310 -0.0668
  145SAPE   H9R15956   2.457   1.041   9.375 -0.4471  0.3059  0.6010
  145SAPE  C21015957   2.404   0.832   9.285 -0.1681  0.6613  0.1197
  145SAPE  H10R15958   2.324   0.867   9.216  1.6463 -0.6382 -2.8445
  145SAPE  H10S15959   2.363   0.732   9.312  1.0850 -1.0813 -3.5922
  145SAPE  C21115960   2.521   0.796   9.202  0.0111 -0.5434 -0.2632
  145SAPE  H11R15961   2.542   0.688   9.189 -0.8019 -0.6922 -0.4301
  145SAPE  C21215962   2.583   0.878   9.117 -1.1325 -0.4074 -0.4180
  145SAPE  H12R15963   2.662   0.834   9.054  0.1640 -0.4406  1.1429
  145SAPE  C21315964   2.559   1.022   9.089  0.2980  0.4688 -0.1500
  145SAPE  H13R15965   2.623   1.074   9.164 -1.7010 -1.3977  3.0826
  145SAPE  H13S15966   2.457   1.047   9.127  0.8946  2.3709  0.3214
  145SAPE  C21415967   2.577   1.063   8.945 -0.6060  0.3930  0.0525
  145SAPE  H14R15968   2.655   1.139   8.931 -0.2270 -0.0429 -0.2452
  145SAPE  C21515969   2.504   1.031   8.836  0.0326  0.2484  0.6713
  145SAPE  H15R15970   2.512   1.094   8.746 -1.1058 -1.1354 -0.4368
  145SAPE  C21615971   2.387   0.940   8.842  0.0129  0.2603 -0.1721
  145SAPE  H16R15972   2.304   1.013   8.846  0.3150  0.5865  0.3330
  145SAPE  H16S15973   2.376   0.874   8.931 -0.2726 -0.2962 -0.6135
  145SAPE  C21715974   2.361   0.848   8.721 -0.4940 -0.0317  0.1547
  145SAPE  H17R15975   2.376   0.903   8.626  1.5180 -1.4853 -0.4439
  145SAPE  H17S15976   2.256   0.812   8.728 -0.2939 -0.2906  2.5912
  145SAPE  C21815977   2.451   0.722   8.702 -0.2099  0.7650  0.1634
  145SAPE  H18R15978   2.468   0.679   8.803 -1.3413  1.9556  0.8926
  145SAPE  H18S15979   2.558   0.748   8.682  0.1907 -0.2332  0.9327
  145SAPE  C21915980   2.404   0.621   8.598  0.1241  0.5408 -0.5785
  145SAPE  H19R15981   2.386   0.667   8.498  2.8874  1.3254 -0.7835
  145SAPE  H19S15982   2.301   0.593   8.631  1.0595 -0.5433  1.6287
  145SAPE  C22015983   2.487   0.493   8.577 -0.8913  0.0633  0.2726
  145SAPE  H20R15984   2.578   0.514   8.517 -0.0915 -2.5533  0.4864
  145SAPE  H20S15985   2.431   0.409   8.531  0.7270 -1.5147  1.0704
  145SAPE  H20T15986   2.509   0.451   8.677 -0.1565 -0.7866 -0.2286
  145SAPE   C3315987   2.124   0.501   9.650  0.4555 -0.3015 -0.3587
  145SAPE   H3X15988   2.104   0.392   9.641  0.5401 -0.3914  0.4907
  145SAPE   H3Y15989   2.230   0.521   9.622 -0.0045 -1.8050 -3.7259
  145SAPE   C3415990   2.057   0.572   9.526  0.0396  0.0198  0.7811
  145SAPE   H4X15991   2.061   0.681   9.547 -1.1102  0.0625  0.8524
  145SAPE   H4Y15992   1.950   0.541   9.528 -0.1681  0.7253  0.6600
  145SAPE   C3515993   2.108   0.523   9.383 -0.2024 -0.6094  0.0099
  145SAPE   H5X15994   2.106   0.413   9.368  0.6515 -0.3353 -2.4235
  145SAPE   H5Y15995   2.215   0.551   9.379 -0.0466 -1.2690 -0.5945
  145SAPE   C3615996   2.029   0.569   9.256  0.0022 -0.4341  0.0997
  145SAPE   H6X15997   2.046   0.679   9.254  1.7987 -0.6236  1.5951
  145SAPE   H6Y15998   1.921   0.547   9.256 -0.2997  0.7233  2.3437
  145SAPE   C3715999   2.087   0.503   9.131  0.6795 -0.1592 -0.4319
  145SAPE   H7X16000   2.079   0.392   9.139  0.8936 -0.2015 -0.7944
  145SAPE   H7Y16001   2.193   0.532   9.114  0.6056  0.6428  0.3863
  145SAPE   C3816002   2.024   0.552   8.995  0.0456  0.6165  0.1297
  145SAPE   H8X16003   2.061   0.649   8.957 -0.8798  0.9031 -0.0768
  145SAPE   H8Y16004   1.916   0.574   9.014 -0.0603 -0.5147  0.9164
  145SAPE   C3916005   2.062   0.455   8.883  0.4002 -0.1693 -0.0001
  145SAPE   H9X16006   2.031   0.352   8.913 -0.4054  0.3372  0.9552
  145SAPE   H9Y16007   2.170   0.469   8.862 -0.0445  1.0909 -1.6895
  145SAPE  C31016008   1.998   0.504   8.758  0.0926 -0.6471 -0.4039
  145SAPE  H10X16009   2.058   0.591   8.724  2.6439 -3.0467 -2.6243
  145SAPE  H10Y16010   1.894   0.537   8.774  0.0369 -1.0765  0.1784
  145SAPE  C31116011   1.999   0.396   8.653  0.7638 -0.3985 -0.4056
  145SAPE  H11X16012   1.965   0.433   8.553 -0.6418 -0.3055  0.0793
  145SAPE  H11Y16013   1.925   0.322   8.690  0.2491  0.1137 -0.4028
  145SAPE  C31216014   2.123   0.306   8.625  0.9746 -0.4863  0.2636
  145SAPE  H12X16015   2.150   0.269   8.726 -0.7348 -0.3570  0.8138
  145SAPE  H12Y16016   2.210   0.358   8.581  2.3331 -2.2185  0.8149
  145SAPE  C31316017   2.092   0.185   8.533 -0.1116 -0.3090 -0.5039
  145SAPE  H13X16018   2.058   0.228   8.437 -2.7227 -0.3396  0.3453
  145SAPE  H13Y16019   2.015   0.113   8.569  1.6603 -1.1522  1.8996
  145SAPE  C31416020   2.222   0.105   8.506  0.0505  0.5623  0.4017
  145SAPE  H14X16021   2.243   0.054   8.602  1.1553  0.4096  0.1020
  145SAPE  H14Y16022   2.312   0.168   8.485  0.7455 -0.9526 -1.4922
  145SAPE  C31516023   2.208  -0.005   8.393  0.5489  0.0521  0.9741
  145SAPE  H15X16024   2.124  -0.075   8.410 -1.2036  1.4302 -1.5121
  145SAPE  H15Y16025   2.292  -0.077   8.407 -0.2450 -1.1922 -0.3975
  145SAPE  C31616026   2.219   0.040   8.241  0.4253  0.4845 -0.2392
  145SAPE  H16X16027   2.313   0.088   8.207 -0.2550 -0.3332 -3.6789
  145SAPE  H16Y16028   2.140   0.118   8.234 -2.0406 -1.5053  2.8860
  145SAPE  C31716029   2.177  -0.067   8.141  0.3082  0.1532 -0.0117
  145SAPE  H17X16030   2.258  -0.143   8.136 -0.1541 -0.5494  2.2606
  145SAPE  H17Y16031   2.166  -0.020   8.040  2.6007  0.5335 -0.1341
  145SAPE  C31816032   2.041  -0.138   8.168  0.2104 -0.5621  0.0771
  145SAPE  H18X16033   2.041  -0.204   8.257  1.3399 -1.5304 -0.6204
  145SAPE  H18Y16034   2.010  -0.207   8.087  0.2492  1.4593 -1.7336
  145SAPE  H18Z16035   1.966  -0.056   8.158  0.1246 -0.7185 -0.6237
  146SAPE     N16036   0.571   0.995  10.753  0.2890  0.2981 -0.2954
  146SAPE   HN116037   0.669   0.968  10.777 -0.1575 -2.0422 -0.9262
  146SAPE   HN216038   0.527   1.015  10.845  1.9212  1.2176  0.3465
  146SAPE   HN316039   0.531   0.905  10.723  0.7340 -0.4317  1.1964
  146SAPE   C1216040   0.548   1.099  10.646  0.0458  0.0635 -0.3814
  146SAPE  H12A16041   0.437   1.100  10.632 -0.1428 -2.2099  0.5957
  146SAPE  H12B16042   0.586   1.062  10.548  0.0714  0.9725 -0.7300
  146SAPE   C1116043   0.612   1.236  10.664 -0.5984  0.0246 -0.2441
  146SAPE  H11A16044   0.610   1.252  10.774  0.3889  0.6879 -0.3083
  146SAPE  H11B16045   0.559   1.309  10.599 -2.7011 -1.2264 -0.0495
  146SAPE     P16046   0.833   1.327  10.558 -0.2317  0.2216  0.0022
  146SAPE   O1316047   0.774   1.462  10.580  0.7875 -0.3127 -0.2397
  146SAPE   O1416048   0.977   1.312  10.589 -0.0431 -0.1123 -0.4108
  146SAPE   O1216049   0.748   1.217  10.637  0.5965  0.0870  0.5182
  146SAPE   O1116050   0.808   1.283  10.413 -0.7275  0.1773  0.3458
  146SAPE    C116051   0.922   1.275  10.324  0.9694  0.4321  0.9677
  146SAPE    HA16052   0.979   1.371  10.324 -0.8611  1.5962 -0.3513
  146SAPE    HB16053   0.987   1.190  10.354  0.4417 -1.1390 -1.9431
  146SAPE    C216054   0.867   1.256  10.177 -0.4917  0.2630  0.5300
  146SAPE    HS16055   0.953   1.238  10.110 -0.9509  0.9164 -0.2484
  146SAPE   O2116056   0.786   1.363  10.129  0.4052 -0.1786 -0.5215
  146SAPE   C2116057   0.851   1.476  10.099 -0.1678 -0.0853 -0.0087
  146SAPE   O2216058   0.970   1.500  10.118 -0.0075  0.6560  0.8781
  146SAPE   C2216059   0.769   1.575  10.028  0.9204  0.1040  0.0995
  146SAPE   H2R16060   0.665   1.545  10.055  0.8774  0.7135  0.6258
  146SAPE   H2S16061   0.783   1.682  10.055 -1.4753  0.5910 -0.3235
  146SAPE    C316062   0.779   1.130  10.179  0.2736 -0.0043 -0.1034
  146SAPE    HX16063   0.671   1.155  10.189  0.2239  1.3233 -3.1264
  146SAPE    HY16064   0.808   1.061  10.262  1.2905  1.3358  0.7012
  146SAPE   O3116065   0.803   1.059  10.054  0.2562  0.0740  0.1644
  146SAPE   C3116066   0.712   0.973  10.023 -0.4388 -0.0981 -0.1408
  146SAPE   O3216067   0.615   0.932  10.088  0.4552 -0.2653  0.0760
  146SAPE   C3216068   0.734   0.931   9.872  0.3991  0.1859  0.5939
  146SAPE   H2X16069   0.784   1.009   9.810  0.5721 -0.6085 -0.2878
  146SAPE   H2Y16070   0.631   0.912   9.835  0.0920  0.1586  1.4484
  146SAPE   C2316071   0.782   1.555   9.875  0.0489  0.4109  0.0746
  146SAPE   H3R16072   0.703   1.620   9.832  0.4744 -0.0156 -1.4075
  146SAPE   H3S16073   0.750   1.459   9.829 -0.8609  2.2733 -3.5711
  146SAPE   C2416074   0.924   1.600   9.809 -0.1664  0.2828 -0.6656
  146SAPE   H4R16075   0.935   1.697   9.862  0.9152 -1.2260  2.0829
  146SAPE   H4S16076   0.916   1.616   9.699  2.4244 -1.9638 -1.3042
  146SAPE   C2516077   1.049   1.523   9.845  0.5249  0.5364 -0.0420
  146SAPE   H5R16078   1.121   1.578   9.906  0.6938  0.8195 -0.4928
  146SAPE   C2616079   1.080   1.397   9.816  0.1709  0.2977 -0.4523
  146SAPE   H6R16080   1.163   1.347   9.868 -1.7960 -4.0309 -1.0107
  146SAPE   C2716081   0.997   1.292   9.742 -0.1121  0.1599  0.2234
  146SAPE   H7R16082   0.907   1.345   9.703  1.0500  1.7815 -0.3994
  146SAPE   H7S16083   0.961   1.219   9.817  2.8518 -0.6609  0.9811
  146SAPE   C2816084   1.072   1.212   9.636 -0.4421  0.1242  0.1464
  146SAPE   H8R16085   1.149   1.136   9.656 -0.1251  0.0370 -1.2466
  146SAPE   C2916086   1.066   1.239   9.501  0.3463  0.1404  0.0648
  146SAPE   H9R16087   1.119   1.175   9.430 -2.2448 -2.4862  0.2883
  146SAPE  C21016088   0.979   1.351   9.445 -0.7763 -0.4803  0.4163
  146SAPE  H10R16089   0.962   1.433   9.518 -1.3854  1.1759 -1.4920
  146SAPE  H10S16090   0.876   1.312   9.436 -1.1027  0.1902  1.1016
  146SAPE  C21116091   1.032   1.409   9.314 -0.6150 -0.0520  0.3660
  146SAPE  H11R16092   1.139   1.434   9.306 -0.6285 -0.1789 -0.2093
  146SAPE  C21216093   0.954   1.453   9.216  0.2310  0.2678  0.9286
  146SAPE  H12R16094   0.993   1.493   9.121 -2.5514 -1.1596 -0.9364
  146SAPE  C21316095   0.809   1.451   9.195  0.3569 -0.6774 -0.5752
  146SAPE  H13R16096   0.785   1.556   9.169  0.0980 -1.1408 -2.2891
  146SAPE  H13S16097   0.759   1.434   9.293  2.5019 -1.3511  0.4616
  146SAPE  C21416098   0.778   1.361   9.081  0.1493 -0.1610 -0.2707
  146SAPE  H14R16099   0.797   1.255   9.101  0.0635 -0.3552 -1.1753
  146SAPE  C21516100   0.733   1.392   8.961  0.5232 -0.7148 -0.7790
  146SAPE  H15R16101   0.714   1.310   8.889  3.3071  0.4281 -3.0277
  146SAPE  C21616102   0.695   1.524   8.899 -0.5965 -0.2963 -0.2382
  146SAPE  H16R16103   0.753   1.609   8.941  1.3344 -0.0960 -3.0626
  146SAPE  H16S16104   0.585   1.542   8.897 -0.8001 -1.5301 -1.2950
  146SAPE  C21716105   0.730   1.515   8.745 -0.4007 -0.1954  0.3422
  146SAPE  H17R16106   0.682   1.600   8.693  0.5733 -0.7956 -1.6305
  146SAPE  H17S16107   0.679   1.427   8.700  0.7120 -1.0658  0.7247
  146SAPE  C21816108   0.887   1.501   8.723  0.1658  0.0211 -0.0581
  146SAPE  H18R16109   0.932   1.412   8.772  0.8680 -0.1703 -1.0098
  146SAPE  H18S16110   0.941   1.591   8.757  0.0842 -0.4281  1.2954
  146SAPE  C21916111   0.934   1.476   8.575  0.3167 -0.7087 -0.6309
  146SAPE  H19R16112   0.894   1.375   8.552 -0.7340 -0.7996  1.3630
  146SAPE  H19S16113   1.045   1.465   8.579  0.1819 -1.9212  1.3670
  146SAPE  C22016114   0.886   1.570   8.462 -0.3220 -0.7730 -0.0864
  146SAPE  H20R16115   0.778   1.547   8.446 -0.6768 -2.0147  3.2338
  146SAPE  H20S16116   0.934   1.541   8.366  0.0047 -2.2749  0.5022
  146SAPE  H20T16117   0.907   1.677   8.480  1.5236 -0.9820 -0.7955
  146SAPE   C3316118   0.803   0.800   9.860  0.6780  0.3009  0.2532
  146SAPE   H3X16119   0.763   0.726   9.932  2.8599 -0.6030  0.6060
  146SAPE   H3Y16120   0.903   0.823   9.902  0.6544  2.9557 -0.9157
  146SAPE   C3416121   0.806   0.759   9.710  0.5865 -0.1295 -0.3046
  146SAPE   H4X16122   0.875   0.830   9.659  0.4508  0.8490  0.8375
  146SAPE   H4Y16123   0.709   0.754   9.658  0.2925  0.8836  0.1198
  146SAPE   C3516124   0.855   0.608   9.705  0.5808  0.4739  0.3320
  146SAPE   H5X16125   0.940   0.602   9.777  0.2724 -0.3788  0.6278
  146SAPE   H5Y16126   0.877   0.584   9.599 -1.5077 -1.4364  0.2759
  146SAPE   C3616127   0.743   0.500   9.728 -0.0531 -0.2491  0.4898
  146SAPE   H6X16128   0.668   0.515   9.647 -0.9110  0.3691  1.3777
  146SAPE   H6Y16129   0.698   0.517   9.828  0.6149 -2.7189  1.2916
  146SAPE   C3716130   0.793   0.347   9.721  0.3120  0.1094  0.0935
  146SAPE   H7X16131   0.702   0.290   9.750 -0.8589  1.4792 -0.7681
  146SAPE   H7Y16132   0.875   0.339   9.796 -0.0765  1.6393  0.7190
  146SAPE   C3816133   0.839   0.310   9.580 -0.1357  0.2525 -0.2622
  146SAPE   H8X16134   0.893   0.215   9.599 -1.8808 -0.5545  0.9497
  146SAPE   H8Y16135   0.913   0.386   9.547 -0.4991 -0.3067 -2.5376
  146SAPE   C3916136   0.723   0.291   9.480  0.9468 -0.2079 -0.6598
  146SAPE   H9X16137   0.672   0.390   9.485  2.8777  0.7884  0.5046
  146SAPE   H9Y16138   0.658   0.212   9.521  1.4119 -0.8106 -1.0636
  146SAPE  C31016139   0.766   0.253   9.341  0.5054  0.1407 -0.5101
  146SAPE  H10X16140   0.678   0.211   9.288 -1.3470  2.0363  0.8760
  146SAPE  H10Y16141   0.839   0.170   9.332  0.3447 -0.1034  0.3599
  146SAPE  C31116142   0.821   0.370   9.254 -0.3204  0.2942 -0.5979
  146SAPE  H11X16143   0.921   0.409   9.281 -0.1291 -0.6474  0.1315
  146SAPE  H11Y16144   0.754   0.458   9.259  0.5887  1.0788 -1.8410
  146SAPE  C31216145   0.829   0.338   9.106  0.3208  0.2286  0.5888
  146SAPE  H12X16146   0.724   0.326   9.071 -0.2430 -1.0250  2.5068
  146SAPE  H12Y16147   0.893   0.248   9.093  3.0759  2.0942  0.5476
  146SAPE  C31316148   0.900   0.455   9.032 -0.8006 -0.4609  1.2328
  146SAPE  H13X16149   0.993   0.462   9.094  2.2637  1.0411 -3.0419
  146SAPE  H13Y16150   0.845   0.550   9.048 -0.0354  0.1223  0.4690
  146SAPE  C31416151   0.952   0.429   8.896 -0.1982 -0.2171 -0.0090
  146SAPE  H14X16152   1.039   0.360   8.890 -0.0393 -0.1963  1.6277
  146SAPE  H14Y16153   0.986   0.525   8.851 -1.3226  0.8513  1.3322
  146SAPE  C31516154   0.838   0.382   8.801 -0.3082  0.0939 -0.2640
  146SAPE  H15X16155   0.752   0.451   8.812  0.9051  2.1980 -2.8384
  146SAPE  H15Y16156   0.797   0.283   8.833 -0.8753  0.5927  0.5756
  146SAPE  C31616157   0.881   0.393   8.658 -0.0841  0.3709  1.0792
  146SAPE  H16X16158   0.813   0.334   8.592  1.2742 -2.0057  1.6590
  146SAPE  H16Y16159   0.974   0.334   8.646 -1.4542 -1.3694 -2.1257
  146SAPE  C31716160   0.915   0.527   8.593  0.1520  0.1255 -0.1081
  146SAPE  H17X16161   0.946   0.606   8.665 -0.2310  0.2312 -0.0583
  146SAPE  H17Y16162   0.820   0.563   8.548  0.5958 -0.2313 -1.3726
  146SAPE  C31816163   1.020   0.506   8.493 -0.2316 -0.8398 -0.0485
  146SAPE  H18X16164   0.989   0.421   8.429 -0.1425  0.5767 -2.0703
  146SAPE  H18Y16165   1.120   0.483   8.534 -0.4706 -0.8005  0.5577
  146SAPE  H18Z16166   1.020   0.595   8.425  0.5387  0.6459  1.8151
  147SAPE     N16167   2.766   5.246  11.053 -0.2281 -0.5380 -0.2530
  147SAPE   HN116168   2.849   5.290  11.098 -0.3268 -0.1145 -0.4813
  147SAPE   HN216169   2.713   5.177  11.110  0.9297 -2.3766 -1.2761
  147SAPE   HN316170   2.814   5.185  10.983  0.8167  1.1924 -1.1096
  147SAPE   C1216171   2.670   5.336  10.973 -0.2132 -0.2167 -0.5246
  147SAPE  H12A16172   2.596   5.382  11.041 -0.8733 -0.3843 -1.1116
  147SAPE  H12B16173   2.621   5.264  10.903 -1.2513 -0.3527  0.3140
  147SAPE   C1116174   2.739   5.456  10.889  0.6208  0.2088 -0.3626
  147SAPE  H11A16175   2.666   5.514  10.829  1.2927  2.4204  0.8402
  147SAPE  H11B16176   2.811   5.416  10.815 -0.0974 -1.8574  0.0010
  147SAPE     P16177   2.972   5.535  11.007 -0.0642  0.1996  0.0776
  147SAPE   O1316178   3.018   5.658  11.079  0.0563 -0.9046  0.0903
  147SAPE   O1416179   2.997   5.403  11.070 -0.8276  0.0479  0.7325
  147SAPE   O1216180   2.811   5.544  10.982  0.1080  0.1720 -0.2035
  147SAPE   O1116181   3.025   5.538  10.856 -0.1364  0.3471  0.0357
  147SAPE    C116182   2.989   5.655  10.773  0.0433 -0.6403  0.4768
  147SAPE    HA16183   2.905   5.630  10.704 -0.1375  0.1032  0.4246
  147SAPE    HB16184   2.956   5.749  10.822 -2.8607 -0.8435 -0.8380
  147SAPE    C216185   3.097   5.699  10.671 -0.1297 -0.0537  0.4278
  147SAPE    HS16186   3.068   5.798  10.630  0.0751 -1.0732 -2.3352
  147SAPE   O2116187   3.119   5.606  10.565  0.1090 -0.2981  0.3628
  147SAPE   C2116188   3.045   5.620  10.455 -0.2043 -1.3384  0.5433
  147SAPE   O2216189   2.988   5.728  10.421 -0.3080  0.3952  0.8170
  147SAPE   C2216190   3.079   5.506  10.357 -0.2379  1.1043 -0.4316
  147SAPE   H2R16191   3.177   5.462  10.386 -0.3709  0.1913 -1.3499
  147SAPE   H2S16192   3.001   5.427  10.357  0.4003  0.2020  4.0192
  147SAPE    C316193   3.241   5.723  10.737 -0.4063 -0.3719 -0.9155
  147SAPE    HX16194   3.268   5.641  10.806  0.8689  1.0681  0.3598
  147SAPE    HY16195   3.240   5.819  10.793 -1.2253 -0.3772 -0.9128
  147SAPE   O3116196   3.331   5.738  10.624 -0.0576  0.0311  0.0524
  147SAPE   C3116197   3.420   5.645  10.609 -0.1937  0.2278 -0.2784
  147SAPE   O3216198   3.431   5.546  10.683 -0.2793 -0.4550  0.2948
  147SAPE   C3216199   3.504   5.667  10.481  0.7517  0.1793 -0.4980
  147SAPE   H2X16200   3.607   5.645  10.516  1.0227 -0.9670 -1.9189
  147SAPE   H2Y16201   3.492   5.773  10.449 -0.2685  1.0398  2.4047
  147SAPE   C2316202   3.093   5.545  10.204 -0.5665 -0.3606  0.0452
  147SAPE   H3R16203   3.160   5.634  10.205  1.0615 -1.1414 -5.2886
  147SAPE   H3S16204   2.997   5.591  10.171 -0.7137 -1.3805 -1.0324
  147SAPE   C2416205   3.155   5.436  10.119  0.3699  0.4450 -0.1424
  147SAPE   H4R16206   3.194   5.358  10.188  0.9598  2.3061  1.7504
  147SAPE   H4S16207   3.247   5.468  10.066 -0.6774  2.7942 -0.6873
  147SAPE   C2516208   3.052   5.388  10.013  0.0944  0.0662 -0.7467
  147SAPE   H5R16209   2.948   5.381  10.048 -0.6701  3.2813 -2.0090
  147SAPE   C2616210   3.080   5.388   9.881 -0.0018 -0.8076  0.3324
  147SAPE   H6R16211   2.993   5.349   9.826 -1.4717  0.2143  1.8449
  147SAPE   C2716212   3.218   5.425   9.809  0.3459  0.1852  0.3334
  147SAPE   H7R16213   3.306   5.424   9.876 -1.2182  1.8869  2.5873
  147SAPE   H7S16214   3.205   5.525   9.762 -2.1864 -0.9568 -1.5806
  147SAPE   C2816215   3.248   5.324   9.699  0.0105 -0.2488 -0.7048
  147SAPE   H8R16216   3.216   5.223   9.731  0.2150  0.0432  0.4821
  147SAPE   C2916217   3.309   5.348   9.582 -0.5057  0.2643  0.3075
  147SAPE   H9R16218   3.329   5.266   9.512 -0.0757  0.5077  0.1376
  147SAPE  C21016219   3.365   5.488   9.534  0.0631 -0.1110 -0.1576
  147SAPE  H10R16220   3.392   5.553   9.621 -0.6287  1.3201 -0.9843
  147SAPE  H10S16221   3.281   5.537   9.481 -0.5441 -0.9379  0.0252
  147SAPE  C21116222   3.485   5.481   9.447  0.0910  0.5243  0.1018
  147SAPE  H11R16223   3.576   5.466   9.507  1.8792 -0.3586 -2.6509
  147SAPE  C21216224   3.482   5.462   9.314  0.0268  0.2118 -0.1031
  147SAPE  H12R16225   3.579   5.449   9.264  0.1553  1.9697 -0.3736
  147SAPE  C21316226   3.360   5.442   9.219  0.3724 -0.4198  0.7275
  147SAPE  H13R16227   3.385   5.500   9.128  1.1133 -1.2110  0.4116
  147SAPE  H13S16228   3.277   5.495   9.270  0.4643 -1.2823  1.8225
  147SAPE  C21416229   3.302   5.307   9.187  0.7297  0.2641  0.7495
  147SAPE  H14R16230   3.256   5.260   9.275  0.8774 -1.7497 -0.2048
  147SAPE  C21516231   3.295   5.237   9.075 -0.1924 -0.1176  0.0545
  147SAPE  H15R16232   3.249   5.138   9.085 -0.9787  0.2692  0.3563
  147SAPE  C21616233   3.362   5.269   8.943 -0.0693  0.2739  0.2038
  147SAPE  H16R16234   3.436   5.187   8.930  0.1908  0.2678  1.5727
  147SAPE  H16S16235   3.427   5.358   8.950  0.9531 -0.1426 -2.5720
  147SAPE  C21716236   3.267   5.292   8.826  0.1036  0.3873 -0.0835
  147SAPE  H17R16237   3.206   5.202   8.801  1.5610 -0.9819  1.0631
  147SAPE  H17S16238   3.327   5.306   8.733  1.7310 -2.5916  0.3736
  147SAPE  C21816239   3.180   5.415   8.861 -0.2844  0.2082  0.6591
  147SAPE  H18R16240   3.262   5.491   8.863  1.6741 -1.8170  0.5420
  147SAPE  H18S16241   3.129   5.403   8.959  0.2616  1.1662  1.0816
  147SAPE  C21916242   3.084   5.435   8.750 -0.2559  0.2405  0.1660
  147SAPE  H19R16243   3.030   5.343   8.718  0.2222  0.4347 -1.2285
  147SAPE  H19S16244   3.130   5.479   8.659 -0.7253 -0.2794 -0.3341
  147SAPE  C22016245   2.979   5.538   8.786  0.3516 -0.7003  0.1924
  147SAPE  H20R16246   2.904   5.500   8.859  0.7295  0.5795  1.2922
  147SAPE  H20S16247   2.920   5.562   8.695 -0.1024 -1.7154  0.2023
  147SAPE  H20T16248   3.028   5.631   8.823  1.8513 -0.8619 -1.2722
  147SAPE   C3316249   3.445   5.577  10.365  0.0936  0.0333 -0.5738
  147SAPE   H3X16250   3.348   5.620  10.332 -1.6925 -1.9009  1.7874
  147SAPE   H3Y16251   3.418   5.476  10.404  0.6509 -0.3418 -1.1342
  147SAPE   C3416252   3.543   5.540  10.257 -0.6454 -0.7377 -0.1756
  147SAPE   H4X16253   3.484   5.463  10.203  0.4065 -1.7011  0.0305
  147SAPE   H4Y16254   3.642   5.501  10.288  0.8620  2.3559 -0.6939
  147SAPE   C3516255   3.561   5.670  10.172  0.5494 -0.5237 -0.3471
  147SAPE   H5X16256   3.616   5.742  10.236  1.8873 -0.0655 -1.9644
  147SAPE   H5Y16257   3.463   5.709  10.137  2.3728  2.5872 -2.4779
  147SAPE   C3616258   3.630   5.647  10.040  0.4003 -0.0674  0.2783
  147SAPE   H6X16259   3.573   5.583   9.969 -1.7479  0.6180  1.3033
  147SAPE   H6Y16260   3.729   5.600  10.058  0.2856 -0.2594  0.4009
  147SAPE   C3716261   3.666   5.781   9.977  0.4107  0.0107  0.3306
  147SAPE   H7X16262   3.749   5.834  10.028 -0.3390  0.5880  0.9560
  147SAPE   H7Y16263   3.577   5.847   9.971  0.4048 -0.1048 -2.2194
  147SAPE   C3816264   3.715   5.764   9.833 -0.2068 -0.3261  0.3984
  147SAPE   H8X16265   3.629   5.725   9.774 -0.9067  1.1313  0.3981
  147SAPE   H8Y16266   3.806   5.701   9.828 -0.3612 -0.7076  1.9991
  147SAPE   C3916267   3.744   5.902   9.780 -0.0424  0.5052 -0.5037
  147SAPE   H9X16268   3.802   5.966   9.851 -2.2873 -1.6422  3.6472
  147SAPE   H9Y16269   3.648   5.957   9.778  0.1586  0.9185  0.4487
  147SAPE  C31016270   3.792   5.894   9.636 -0.0339 -0.0323 -0.3155
  147SAPE  H10X16271   3.885   5.834   9.635 -0.1771 -0.2890  0.7289
  147SAPE  H10Y16272   3.816   5.993   9.590 -2.2080  0.8796  0.4215
  147SAPE  C31116273   3.693   5.832   9.541 -0.1247  0.5743  0.3592
  147SAPE  H11X16274   3.591   5.872   9.561  0.1105  1.2753  0.1650
  147SAPE  H11Y16275   3.709   5.722   9.549 -0.0960  0.5613  0.1313
  147SAPE  C31216276   3.731   5.877   9.393  1.0243 -0.0998  0.8243
  147SAPE  H12X16277   3.837   5.851   9.372  1.6015  1.4491  1.6836
  147SAPE  H12Y16278   3.723   5.986   9.377 -2.0056 -0.5166 -1.4460
  147SAPE  C31316279   3.639   5.800   9.291 -1.0044  0.3468 -0.0139
  147SAPE  H13X16280   3.533   5.827   9.307 -1.3455 -1.2373  0.5606
  147SAPE  H13Y16281   3.643   5.689   9.300  1.6833  0.4427  0.9340
  147SAPE  C31416282   3.679   5.813   9.142 -0.4917  0.6982  0.2107
  147SAPE  H14X16283   3.774   5.756   9.134  0.7417  2.2714  2.4858
  147SAPE  H14Y16284   3.707   5.917   9.114 -1.6140  0.4567 -2.0213
  147SAPE  C31516285   3.572   5.742   9.045 -0.1436 -0.4230  0.3037
  147SAPE  H15X16286   3.473   5.783   9.075  0.0334  0.4997 -0.3223
  147SAPE  H15Y16287   3.575   5.632   9.061  1.0174 -0.2889  1.1471
  147SAPE  C31616288   3.597   5.769   8.896  0.5857 -0.8088 -0.1133
  147SAPE  H16X16289   3.706   5.750   8.881  0.6362 -1.0497  0.5424
  147SAPE  H16Y16290   3.566   5.876   8.892  0.4635 -0.8742 -1.2526
  147SAPE  C31716291   3.510   5.684   8.809  0.5151 -0.1956  0.7609
  147SAPE  H17X16292   3.412   5.670   8.859 -0.5471  0.9632 -0.8716
  147SAPE  H17Y16293   3.552   5.581   8.812 -1.5662 -1.0614  2.0761
  147SAPE  C31816294   3.476   5.749   8.677 -0.2202 -0.1110  0.5503
  147SAPE  H18X16295   3.391   5.821   8.680 -0.4483 -0.2771 -1.1928
  147SAPE  H18Y16296   3.447   5.676   8.599  1.1556 -0.1923  0.1017
  147SAPE  H18Z16297   3.563   5.801   8.633 -1.7524 -0.2355 -2.9431
  148SAPE     N16298   1.037   1.275  10.840  0.1656  0.5592 -0.0288
  148SAPE   HN116299   1.018   1.244  10.743  1.7012 -0.1676 -0.1274
  148SAPE   HN216300   0.969   1.353  10.856  0.4511  0.5424  1.4339
  148SAPE   HN316301   1.136   1.299  10.861  0.0462 -1.3082  3.4212
  148SAPE   C1216302   1.008   1.153  10.925 -0.2143  0.4726  0.0842
  148SAPE  H12A16303   0.899   1.134  10.912 -0.2229  1.6584 -2.0694
  148SAPE  H12B16304   1.030   1.184  11.029  0.8288 -0.2613  0.0947
  148SAPE   C1116305   1.097   1.036  10.885 -0.1169  0.2816  0.2306
  148SAPE  H11A16306   1.080   0.952  10.956 -1.0451  0.3583  0.1111
  148SAPE  H11B16307   1.199   1.079  10.877 -0.4226  1.4785  2.2397
  148SAPE     P16308   0.953   0.872  10.735  0.3729 -0.0130 -0.1480
  148SAPE   O1316309   1.003   0.750  10.805 -0.1631 -1.3073 -0.1991
  148SAPE   O1416310   0.826   0.931  10.783 -0.8442 -0.0746 -0.6843
  148SAPE   O1216311   1.063   0.983  10.752 -0.2977 -0.2486  0.5877
  148SAPE   O1116312   0.937   0.849  10.580  0.2594 -0.7614 -0.0463
  148SAPE    C116313   0.991   0.941  10.488  0.1984 -0.3827 -0.6043
  148SAPE    HA16314   0.907   0.980  10.425  0.7150  0.6159 -0.7028
  148SAPE    HB16315   1.025   1.038  10.531 -2.6639  1.0831 -1.4059
  148SAPE    C216316   1.100   0.880  10.400  0.1977 -0.0667  0.3120
  148SAPE    HS16317   1.136   0.955  10.326 -0.8100  1.4521  1.3196
  148SAPE   O2116318   1.043   0.760  10.343  0.4613 -0.0901  0.1863
  148SAPE   C2116319   0.997   0.776  10.222  0.0715  0.1274  0.0687
  148SAPE   O2216320   1.023   0.865  10.146 -0.2887 -0.1059  0.0182
  148SAPE   C2216321   0.912   0.655  10.183  0.2668 -0.1076 -0.2215
  148SAPE   H2R16322   0.896   0.592  10.273  0.1758  0.6188  0.2723
  148SAPE   H2S16323   0.810   0.693  10.162 -0.5842 -0.9256  2.1040
  148SAPE    C316324   1.227   0.844  10.476  0.6870  0.2561  0.1667
  148SAPE    HX16325   1.207   0.788  10.569  1.0590  0.1896  0.2072
  148SAPE    HY16326   1.263   0.943  10.512 -0.1065  0.4977  0.3392
  148SAPE   O3116327   1.329   0.787  10.398  0.0732 -0.1552 -0.6893
  148SAPE   C3116328   1.339   0.660  10.399 -0.0107 -0.4007  0.4719
  148SAPE   O3216329   1.258   0.577  10.437  0.0082 -0.6728  0.3854
  148SAPE   C3216330   1.467   0.625  10.344 -0.1471  0.1256  0.8297
  148SAPE   H2X16331   1.509   0.550  10.413 -1.2966 -0.0840  1.3269
  148SAPE   H2Y16332   1.539   0.710  10.339  2.2176 -1.8470 -2.0621
  148SAPE   C2316333   0.965   0.566  10.069 -0.0383 -0.0376 -0.3109
  148SAPE   H3R16334   1.010   0.637   9.997 -1.6032  1.4532  0.1192
  148SAPE   H3S16335   0.879   0.507  10.033 -1.7806  3.1557 -1.7277
  148SAPE   C2416336   1.076   0.478  10.117 -0.3415  1.1938 -0.4013
  148SAPE   H4R16337   1.153   0.543  10.165 -0.2511 -0.5804  2.0396
  148SAPE   H4S16338   1.138   0.431  10.037  4.3219  2.0304  2.3552
  148SAPE   C2516339   1.027   0.367  10.205  0.3224 -0.3382  0.3207
  148SAPE   H5R16340   0.998   0.398  10.307  0.7832  1.2559  0.0009
  148SAPE   C2616341   1.005   0.237  10.169  0.1512 -0.0883  0.7559
  148SAPE   H6R16342   0.974   0.156  10.236  1.1477 -1.0497  0.0917
  148SAPE   C2716343   1.038   0.182  10.034 -0.4019  0.2036 -0.4052
  148SAPE   H7R16344   1.011   0.255   9.954  0.1334  0.1015 -0.6853
  148SAPE   H7S16345   0.963   0.100  10.024 -0.8322 -0.1257  3.7489
  148SAPE   C2816346   1.175   0.128   9.998 -0.3888  0.2663  0.0552
  148SAPE   H8R16347   1.243   0.124  10.085 -1.4528  0.7603  0.9290
  148SAPE   C2916348   1.231   0.099   9.882 -0.5447 -0.2175 -0.1966
  148SAPE   H9R16349   1.340   0.086   9.875 -0.3936  1.7195 -3.8310
  148SAPE  C21016350   1.159   0.118   9.749  0.7089 -0.2548  0.4005
  148SAPE  H10R16351   1.050   0.137   9.758  0.6589 -0.0638 -0.5866
  148SAPE  H10S16352   1.173   0.022   9.696 -0.7359  1.0011 -2.4518
  148SAPE  C21116353   1.207   0.229   9.662 -0.3669 -1.4904  0.6206
  148SAPE  H11R16354   1.249   0.308   9.726 -0.7992 -0.3204 -0.4903
  148SAPE  C21216355   1.203   0.248   9.529  0.2337 -0.4299  0.1504
  148SAPE  H12R16356   1.244   0.337   9.480  0.9813 -0.6954  0.2911
  148SAPE  C21316357   1.156   0.153   9.431 -0.8890  0.6556  0.1878
  148SAPE  H13R16358   1.116   0.217   9.349 -0.7051  2.9521  1.8028
  148SAPE  H13S16359   1.065   0.098   9.463 -1.0144  1.5358  1.4043
  148SAPE  C21416360   1.250   0.044   9.377  0.4274  0.3533 -0.3582
  148SAPE  H14R16361   1.314  -0.009   9.450 -0.3549  0.0036  0.0911
  148SAPE  C21516362   1.252  -0.001   9.249  0.5796 -0.5517 -0.7052
  148SAPE  H15R16363   1.327  -0.078   9.227  0.5989 -1.1274  1.2236
  148SAPE  C21616364   1.162   0.040   9.138  0.4148 -0.0926  0.5584
  148SAPE  H16R16365   1.103   0.131   9.159 -2.2799 -1.7460  0.5526
  148SAPE  H16S16366   1.083  -0.038   9.128  0.5848 -0.0316 -2.0537
  148SAPE  C21716367   1.231   0.059   9.007  0.0065 -0.1733  0.4783
  148SAPE  H17R16368   1.317   0.127   9.021 -0.7752  0.8061  0.6933
  148SAPE  H17S16369   1.157   0.111   8.943 -1.1946 -1.0579  1.1011
  148SAPE  C21816370   1.263  -0.080   8.938 -0.7436 -0.0036  0.0174
  148SAPE  H18R16371   1.167  -0.135   8.948 -1.7590  1.9739  2.0067
  148SAPE  H18S16372   1.349  -0.131   8.987  0.4476  0.9142 -1.0389
  148SAPE  C21916373   1.306  -0.064   8.783  0.4160  0.1317  0.0689
  148SAPE  H19R16374   1.358  -0.156   8.749 -0.3317 -0.1326 -0.3852
  148SAPE  H19S16375   1.382   0.017   8.781  1.9372 -1.2449 -2.0391
  148SAPE  C22016376   1.193  -0.037   8.687  0.1309 -0.2342 -0.1771
  148SAPE  H20R16377   1.220  -0.025   8.580 -2.3535  1.3602 -0.6855
  148SAPE  H20S16378   1.139   0.053   8.723 -0.4580 -0.3816 -0.6901
  148SAPE  H20T16379   1.122  -0.123   8.689  1.7424 -1.6148  0.3752
  148SAPE   C3316380   1.457   0.573  10.198 -0.0275  0.3985  0.5671
  148SAPE   H3X16381   1.411   0.473  10.190  1.6855 -0.3075 -1.2546
  148SAPE   H3Y16382   1.553   0.548  10.147 -0.4836  1.7701 -1.0670
  148SAPE   C3416383   1.394   0.677  10.108 -0.1455  0.0594  0.3359
  148SAPE   H4X16384   1.459   0.767  10.105 -0.4955  0.3720  1.3225
  148SAPE   H4Y16385   1.297   0.715  10.149  0.3384  2.0176 -0.2391
  148SAPE   C3516386   1.367   0.632   9.965  0.5481  0.6520 -0.5806
  148SAPE   H5X16387   1.325   0.529   9.963 -1.9824  1.6097 -1.5535
  148SAPE   H5Y16388   1.466   0.620   9.915  0.3870  1.7821 -1.2059
  148SAPE   C3616389   1.284   0.716   9.867  0.2421  0.0227  0.0108
  148SAPE   H6X16390   1.343   0.808   9.848 -0.4362  0.3485 -0.5734
  148SAPE   H6Y16391   1.191   0.751   9.917  1.0849  0.0449  1.6308
  148SAPE   C3716392   1.252   0.649   9.735  0.0011 -0.3020 -0.3280
  148SAPE   H7X16393   1.161   0.585   9.746  0.2526 -0.5785  0.1809
  148SAPE   H7Y16394   1.332   0.578   9.705 -0.0706 -2.3219  3.5588
  148SAPE   C3816395   1.234   0.745   9.617  0.4587 -0.3237  0.7617
  148SAPE   H8X16396   1.328   0.797   9.591  1.0046 -0.9227  1.5012
  148SAPE   H8Y16397   1.161   0.826   9.638  0.6162 -0.2584  1.0623
  148SAPE   C3916398   1.173   0.676   9.489 -0.5107 -0.6318 -0.2798
  148SAPE   H9X16399   1.074   0.627   9.499 -0.3252 -1.7918 -3.1035
  148SAPE   H9Y16400   1.251   0.604   9.456 -0.9594 -0.3494 -2.1190
  148SAPE  C31016401   1.147   0.763   9.374 -0.1685 -0.0504  0.6227
  148SAPE  H10X16402   1.227   0.839   9.358 -1.2093  0.4799 -2.9836
  148SAPE  H10Y16403   1.048   0.812   9.386  0.1920  0.6686  0.7028
  148SAPE  C31116404   1.118   0.688   9.239  0.9011  0.5609  0.1156
  148SAPE  H11X16405   1.021   0.636   9.257  1.2967  0.0521  0.8193
  148SAPE  H11Y16406   1.196   0.612   9.219  1.6509  1.4372 -0.3306
  148SAPE  C31216407   1.104   0.778   9.118  0.4857  0.0496 -0.0077
  148SAPE  H12X16408   1.116   0.719   9.024 -0.2075 -1.0304  0.5742
  148SAPE  H12Y16409   1.190   0.848   9.126 -1.1934  2.1464  0.5443
  148SAPE  C31316410   0.973   0.863   9.112  0.4032 -0.4703  1.0507
  148SAPE  H13X16411   0.952   0.915   9.208  0.1033  0.9088  0.2682
  148SAPE  H13Y16412   0.891   0.789   9.097 -0.7578  1.0009 -0.1874
  148SAPE  C31416413   0.965   0.957   8.991  0.3237  0.7211 -0.0212
  148SAPE  H14X16414   1.045   1.030   9.017  0.0204 -0.2538  4.5026
  148SAPE  H14Y16415   0.870   1.014   8.979 -0.3566 -0.6684 -1.6807
  148SAPE  C31516416   0.996   0.892   8.850 -0.2799 -0.3139  0.1175
  148SAPE  H15X16417   0.921   0.813   8.825  2.2255 -3.1734  1.0379
  148SAPE  H15Y16418   1.098   0.849   8.851 -0.0267  0.2623 -0.7432
  148SAPE  C31616419   0.998   0.994   8.734  0.2251  0.4749 -0.0638
  148SAPE  H16X16420   1.104   1.024   8.717  0.7801 -0.5839  1.3255
  148SAPE  H16Y16421   0.935   1.084   8.748 -0.5652  0.7307 -4.1143
  148SAPE  C31716422   0.950   0.928   8.599 -0.2769 -0.3754  0.2089
  148SAPE  H17X16423   0.848   0.891   8.626  0.6520 -1.4249  2.6051
  148SAPE  H17Y16424   1.005   0.836   8.571 -0.6368 -0.5780  0.1601
  148SAPE  C31816425   0.960   1.022   8.478 -0.9686  0.8525 -0.3059
  148SAPE  H18X16426   0.908   1.116   8.506 -1.0610  1.0100 -1.0090
  148SAPE  H18Y16427   0.906   0.987   8.388 -0.2360  0.9552 -0.7920
  148SAPE  H18Z16428   1.066   1.044   8.456 -1.5985  2.1849 -2.2121
  149SAPE     N16429   5.194   4.900  10.993 -0.0269 -0.3117  0.3732
  149SAPE   HN116430   5.283   4.947  11.018 -1.1960  2.1083  0.2640
  149SAPE   HN216431   5.152   4.939  10.906 -0.4426  0.8152  1.0601
  149SAPE   HN316432   5.134   4.915  11.077  1.4934  3.2500  0.9870
  149SAPE   C1216433   5.232   4.762  10.961  0.0519 -0.3091  0.0341
  149SAPE  H12A16434   5.273   4.722  11.056  2.5640  1.0342 -0.4109
  149SAPE  H12B16435   5.325   4.768  10.900  0.2974 -0.7016  0.3698
  149SAPE   C1116436   5.126   4.689  10.874  0.3986 -0.4586 -0.5824
  149SAPE  H11A16437   5.173   4.598  10.831  0.9504 -0.7684  0.6572
  149SAPE  H11B16438   5.107   4.761  10.792 -1.2643  0.7443  0.7986
  149SAPE     P16439   4.926   4.543  11.001 -0.1720  0.2562  0.7329
  149SAPE   O1316440   4.996   4.417  10.969  0.4023  0.2124  0.2884
  149SAPE   O1416441   4.896   4.570  11.146 -0.3402  0.2125 -0.0591
  149SAPE   O1216442   5.015   4.666  10.954  0.3261 -0.4976  0.6844
  149SAPE   O1116443   4.801   4.567  10.906 -0.3415 -0.1495 -0.1918
  149SAPE    C116444   4.754   4.460  10.827  0.7357 -0.2314 -0.1348
  149SAPE    HA16445   4.770   4.358  10.868 -1.1172 -1.5261 -2.3825
  149SAPE    HB16446   4.643   4.463  10.826  0.7549  1.8461 -0.7967
  149SAPE    C216447   4.807   4.465  10.686  0.7038  0.0659  0.0113
  149SAPE    HS16448   4.916   4.447  10.679  0.6078 -0.2668 -0.7699
  149SAPE   O2116449   4.771   4.596  10.633  0.2464 -0.2078 -0.3669
  149SAPE   C2116450   4.870   4.678  10.610 -0.4780 -0.0157  0.7203
  149SAPE   O2216451   4.991   4.644  10.616  0.6902 -0.3983  0.4798
  149SAPE   C2216452   4.813   4.815  10.554 -0.3790  0.3760  0.0270
  149SAPE   H2R16453   4.707   4.812  10.585 -1.0599  0.8787 -2.0928
  149SAPE   H2S16454   4.858   4.898  10.612 -1.1518  0.2969  0.7599
  149SAPE    C316455   4.751   4.353  10.588 -0.9098  0.0215  0.2530
  149SAPE    HX16456   4.641   4.365  10.576 -0.9445 -0.6194 -0.1380
  149SAPE    HY16457   4.786   4.257  10.631 -0.4141  0.4132  0.7379
  149SAPE   O3116458   4.824   4.368  10.462 -0.2220  0.3044 -0.1545
  149SAPE   C3116459   4.778   4.283  10.370  0.3385 -0.4669  1.1109
  149SAPE   O3216460   4.691   4.199  10.385 -0.1940 -0.1827 -0.6426
  149SAPE   C3216461   4.836   4.314  10.235  0.4151 -0.5912 -0.0339
  149SAPE   H2X16462   4.939   4.277  10.217  0.8697  0.0561  1.1106
  149SAPE   H2Y16463   4.844   4.425  10.227  0.1140 -0.5200  0.5443
  149SAPE   C2316464   4.840   4.831  10.400  0.5358 -0.2456 -0.3080
  149SAPE   H3R16465   4.949   4.839  10.377  0.3983 -2.3693 -2.0213
  149SAPE   H3S16466   4.784   4.924  10.376 -1.2433 -1.3669 -0.6612
  149SAPE   C2416467   4.787   4.714  10.311  0.2214 -0.3061 -0.1606
  149SAPE   H4R16468   4.839   4.620  10.338 -0.4002 -0.4949  0.4114
  149SAPE   H4S16469   4.842   4.736  10.218 -0.3901 -1.3434 -0.7860
  149SAPE   C2516470   4.635   4.713  10.301  0.6523  0.2302  0.4732
  149SAPE   H5R16471   4.582   4.701  10.396  0.5670 -0.2939  0.3610
  149SAPE   C2616472   4.569   4.730  10.176 -0.1624  0.4935 -0.0824
  149SAPE   H6R16473   4.460   4.722  10.165 -0.0193 -4.1050 -0.2446
  149SAPE   C2716474   4.643   4.748  10.043 -0.4179 -0.1283  0.3640
  149SAPE   H7R16475   4.577   4.704   9.964 -1.0111  0.0826  0.7322
  149SAPE   H7S16476   4.736   4.688  10.045  1.1589  2.2176  0.3869
  149SAPE   C2816477   4.684   4.890  10.008  0.6757  0.1185 -0.7323
  149SAPE   H8R16478   4.667   4.970  10.081 -0.7366  1.6456 -2.6259
  149SAPE   C2916479   4.730   4.923   9.886  0.5314 -0.4891  0.1494
  149SAPE   H9R16480   4.757   5.028   9.866 -0.3386 -0.1057  0.9393
  149SAPE  C21016481   4.750   4.834   9.760 -0.8748  0.2353  0.4949
  149SAPE  H10R16482   4.769   4.730   9.794  1.5170 -0.5469 -2.7220
  149SAPE  H10S16483   4.843   4.863   9.707 -0.3289 -1.4172  0.4795
  149SAPE  C21116484   4.632   4.829   9.670  0.2662 -0.1451 -0.8421
  149SAPE  H11R16485   4.539   4.873   9.707  0.8463  0.2185  0.2062
  149SAPE  C21216486   4.636   4.781   9.545 -0.0197 -0.9307  0.5201
  149SAPE  H12R16487   4.547   4.777   9.480  0.4830  0.0560 -0.2528
  149SAPE  C21316488   4.753   4.720   9.477 -0.1809 -0.2525 -0.2788
  149SAPE  H13R16489   4.725   4.630   9.418  1.4091 -0.2028 -1.1797
  149SAPE  H13S16490   4.839   4.695   9.543  1.0881  3.3035 -0.3474
  149SAPE  C21416491   4.819   4.823   9.383 -0.9125  0.3543  0.0209
  149SAPE  H14R16492   4.845   4.916   9.436  0.0135  0.7038 -1.0077
  149SAPE  C21516493   4.859   4.799   9.257  0.7807  0.1355 -0.1691
  149SAPE  H15R16494   4.899   4.882   9.197 -0.9115  1.3246  0.2819
  149SAPE  C21616495   4.831   4.670   9.172 -0.1080 -0.7168 -0.4503
  149SAPE  H16R16496   4.735   4.622   9.201  0.3587 -0.2990  2.0114
  149SAPE  H16S16497   4.909   4.594   9.193  0.7737  0.5205  1.0119
  149SAPE  C21716498   4.839   4.684   9.016  0.2557  0.5721  0.0322
  149SAPE  H17R16499   4.944   4.664   8.988  0.0687 -0.2599 -0.0933
  149SAPE  H17S16500   4.792   4.779   8.983  0.3745  0.4890 -0.3783
  149SAPE  C21816501   4.757   4.567   8.961 -0.0170  0.9319 -0.0759
  149SAPE  H18R16502   4.659   4.547   9.010  0.5657  1.6036  1.4111
  149SAPE  H18S16503   4.815   4.476   8.987  0.7116  1.6563  0.9393
  149SAPE  C21916504   4.745   4.564   8.803  0.1056  0.1500 -0.2839
  149SAPE  H19R16505   4.709   4.460   8.788 -1.4008  0.7142 -0.7256
  149SAPE  H19S16506   4.843   4.590   8.758  0.3899  1.9663  1.2432
  149SAPE  C22016507   4.650   4.668   8.746  0.2183  0.2239  0.1780
  149SAPE  H20R16508   4.545   4.649   8.778  0.7089 -0.1915  1.6114
  149SAPE  H20S16509   4.649   4.673   8.635 -2.0815  2.9715  0.2322
  149SAPE  H20T16510   4.669   4.774   8.771 -2.6423  1.0436 -0.7383
  149SAPE   C3316511   4.737   4.272  10.122  0.3617  0.9990 -0.0943
  149SAPE   H3X16512   4.641   4.323  10.146 -0.2504  0.8888 -2.0785
  149SAPE   H3Y16513   4.702   4.167  10.115  0.8092  0.8665 -0.4037
  149SAPE   C3416514   4.778   4.330   9.990 -0.1973 -0.0150  0.3085
  149SAPE   H4X16515   4.882   4.292   9.977 -0.5651 -0.1267 -3.2606
  149SAPE   H4Y16516   4.782   4.441   9.985 -0.8930 -0.0409 -2.1500
  149SAPE   C3516517   4.687   4.278   9.870 -1.1356 -0.6721 -0.4526
  149SAPE   H5X16518   4.583   4.295   9.905 -1.3479 -1.4308 -0.6889
  149SAPE   H5Y16519   4.699   4.168   9.858 -1.7892 -0.8121  0.0688
  149SAPE   C3616520   4.727   4.342   9.744  0.1606  0.4757  0.1277
  149SAPE   H6X16521   4.838   4.345   9.740  0.2668  0.1271  2.0639
  149SAPE   H6Y16522   4.685   4.444   9.727 -0.0022  0.2396 -0.9699
  149SAPE   C3716523   4.673   4.247   9.638 -0.4909 -0.1184  0.4262
  149SAPE   H7X16524   4.563   4.258   9.648 -0.2919  0.2459  2.8133
  149SAPE   H7Y16525   4.719   4.147   9.653 -0.3751  0.1816  2.2657
  149SAPE   C3816526   4.714   4.292   9.493 -0.9257 -0.4795 -0.7302
  149SAPE   H8X16527   4.814   4.340   9.502 -0.5116 -1.4684  0.0924
  149SAPE   H8Y16528   4.638   4.362   9.452  1.8034  3.3254  0.1465
  149SAPE   C3916529   4.728   4.172   9.396 -0.1248 -0.5781 -0.6540
  149SAPE   H9X16530   4.630   4.121   9.408 -0.4550  0.2700  0.4666
  149SAPE   H9Y16531   4.814   4.105   9.420  1.8258  1.3304 -1.9709
  149SAPE  C31016532   4.739   4.217   9.245 -0.0232  0.1260 -0.2003
  149SAPE  H10X16533   4.813   4.298   9.230  1.2012 -0.5089  1.9227
  149SAPE  H10Y16534   4.639   4.260   9.225 -0.7613 -0.7351  1.4108
  149SAPE  C31116535   4.775   4.096   9.151  0.1247  0.2862 -0.0266
  149SAPE  H11X16536   4.697   4.017   9.158 -0.5413  0.9671  0.4653
  149SAPE  H11Y16537   4.874   4.062   9.186  0.3257  1.2750  0.4156
  149SAPE  C31216538   4.789   4.158   9.011  0.9331  0.0920 -0.4843
  149SAPE  H12X16539   4.858   4.245   9.001  2.1936 -0.9157 -0.8654
  149SAPE  H12Y16540   4.689   4.201   8.988  0.6965 -1.3261 -2.3601
  149SAPE  C31316541   4.821   4.062   8.900  0.4843 -0.1613  0.1089
  149SAPE  H13X16542   4.733   3.998   8.877  0.7701  0.1634 -2.0650
  149SAPE  H13Y16543   4.915   4.005   8.914  1.5348  1.3373 -0.5114
  149SAPE  C31416544   4.850   4.133   8.765 -0.1583  0.2139 -0.2531
  149SAPE  H14X16545   4.946   4.189   8.775  0.4325 -0.9839  1.2427
  149SAPE  H14Y16546   4.766   4.201   8.741  2.0445  3.0956 -0.3632
  149SAPE  C31516547   4.867   4.036   8.643 -0.0091  0.1783 -0.3823
  149SAPE  H15X16548   4.771   4.032   8.588  0.0576 -0.0385 -0.4818
  149SAPE  H15Y16549   4.908   3.937   8.674  2.8450  0.9949 -1.2814
  149SAPE  C31616550   4.966   4.086   8.539  0.2137 -0.4824  0.2405
  149SAPE  H16X16551   5.070   4.068   8.575 -0.0209 -1.2190  0.5496
  149SAPE  H16Y16552   4.957   4.193   8.509 -0.2771 -0.9717 -1.4621
  149SAPE  C31716553   4.947   4.024   8.407 -0.3854  0.5932 -0.5299
  149SAPE  H17X16554   4.921   3.917   8.423  1.3218  0.3668  0.9860
  149SAPE  H17Y16555   5.046   4.039   8.360 -0.3234  2.1397  0.0591
  149SAPE  C31816556   4.843   4.084   8.311 -0.4571 -0.4061 -0.1422
  149SAPE  H18X16557   4.745   4.088   8.364 -0.6773  1.3510 -0.6273
  149SAPE  H18Y16558   4.840   4.050   8.205  1.8063 -0.0893 -0.3379
  149SAPE  H18Z16559   4.862   4.193   8.310  0.4469 -0.5632 -1.5442
  150SAPE     N16560   6.552   1.038  10.906 -0.5935  0.0917  0.0428
  150SAPE   HN116561   6.553   1.021  11.008 -3.6213  2.0287  0.5385
  150SAPE   HN216562   6.591   1.132  10.886 -1.2288  0.0071 -1.7915
  150SAPE   HN316563   6.450   1.039  10.883 -0.3354 -0.7328 -1.2632
  150SAPE   C1216564   6.617   0.936  10.827 -0.2593 -0.1772 -0.2892
  150SAPE  H12A16565   6.601   0.954  10.719 -0.6315  0.7913 -0.0829
  150SAPE  H12B16566   6.582   0.834  10.856  1.0050 -0.4133  0.4640
  150SAPE   C1116567   6.774   0.940  10.858  0.4847  0.9640 -0.2851
  150SAPE  H11A16568   6.802   0.856  10.791 -2.3493 -0.5033  0.2239
  150SAPE  H11B16569   6.786   0.911  10.965 -0.0613 -1.2209 -0.7660
  150SAPE     P16570   6.976   1.091  10.816  0.9673  0.1529 -0.4488
  150SAPE   O1316571   7.019   1.158  10.943  0.5322  0.1728  0.0076
  150SAPE   O1416572   7.050   0.967  10.781  0.2582  0.1387  0.5306
  150SAPE   O1216573   6.818   1.069  10.823 -0.3026  0.2576 -0.0355
  150SAPE   O1116574   6.981   1.192  10.697 -0.2879  0.3197  0.0576
  150SAPE    C116575   6.863   1.224  10.635  0.6869 -0.5918  0.9239
  150SAPE    HA16576   6.822   1.140  10.576  1.0210  0.1714 -0.4239
  150SAPE    HB16577   6.787   1.262  10.707  1.4845  1.5546  0.7106
  150SAPE    C216578   6.892   1.332  10.528 -0.3833  0.1581  0.1254
  150SAPE    HS16579   6.913   1.424  10.587 -0.2398 -0.0156  0.3483
  150SAPE   O2116580   6.779   1.333  10.437  0.2061  0.2633 -0.0474
  150SAPE   C2116581   6.666   1.381  10.483 -0.2019  0.4567  0.3572
  150SAPE   O2216582   6.652   1.442  10.589  0.2037 -0.3548  0.1893
  150SAPE   C2216583   6.556   1.359  10.381  0.7229  0.5096  0.1107
  150SAPE   H2R16584   6.600   1.380  10.281  2.5637 -1.9018  0.3195
  150SAPE   H2S16585   6.526   1.252  10.384  0.8401  0.4320 -0.9990
  150SAPE    C316586   7.016   1.308  10.457 -0.2062  0.1833  0.1553
  150SAPE    HX16587   6.996   1.216  10.399 -2.5538  0.8659 -0.1984
  150SAPE    HY16588   7.096   1.295  10.533 -0.1147  2.3953  0.4953
  150SAPE   O3116589   7.045   1.414  10.369  0.3903  0.1363  0.2682
  150SAPE   C3116590   7.163   1.375  10.298 -0.9557  0.2267 -0.2426
  150SAPE   O3216591   7.234   1.283  10.336  0.1911 -1.0279 -0.1605
  150SAPE   C3216592   7.162   1.446  10.165  0.8180 -0.1741 -0.8828
  150SAPE   H2X16593   7.247   1.516  10.165  1.9009 -1.3728 -3.0924
  150SAPE   H2Y16594   7.064   1.497  10.154  0.7010  0.1729  1.4040
  150SAPE   C2316595   6.435   1.448  10.413  0.7948 -0.5056 -0.5852
  150SAPE   H3R16596   6.471   1.552  10.428  0.3846 -0.5555  0.8552
  150SAPE   H3S16597   6.379   1.414  10.503  3.5680 -0.7797  1.1479
  150SAPE   C2416598   6.342   1.466  10.289  0.1774  0.0003  0.1349
  150SAPE   H4R16599   6.407   1.497  10.204  0.4879 -1.7154 -0.3033
  150SAPE   H4S16600   6.273   1.551  10.304 -0.1063 -0.0789 -0.6486
  150SAPE   C2516601   6.253   1.349  10.253 -0.1580  0.1007 -0.4982
  150SAPE   H5R16602   6.166   1.325  10.316 -0.9298 -1.7237 -2.1503
  150SAPE   C2616603   6.267   1.257  10.157 -1.1544  0.3292  0.8304
  150SAPE   H6R16604   6.192   1.177  10.159 -1.8363  0.7865 -1.9163
  150SAPE   C2716605   6.385   1.248  10.055  0.2757  0.1871 -0.1932
  150SAPE   H7R16606   6.467   1.292  10.115  0.4617  0.3940 -0.5987
  150SAPE   H7S16607   6.353   1.311   9.970 -0.0236  3.6147  2.2483
  150SAPE   C2816608   6.414   1.104  10.017  0.3035  0.0764 -0.4390
  150SAPE   H8R16609   6.441   1.038  10.101  0.3991  3.1097  2.0883
  150SAPE   C2916610   6.428   1.052   9.896  0.3918 -0.4393  0.0950
  150SAPE   H9R16611   6.445   0.944   9.885  0.3877 -0.4560  0.2546
  150SAPE  C21016612   6.415   1.125   9.761  0.6286 -0.3590 -0.4954
  150SAPE  H10R16613   6.456   1.062   9.679  0.3807 -2.2576  0.7881
  150SAPE  H10S16614   6.489   1.208   9.766  0.3726  0.2533 -4.0365
  150SAPE  C21116615   6.281   1.188   9.720  0.7188  0.1078  0.6558
  150SAPE  H11R16616   6.227   1.239   9.801  0.8622 -1.2802  1.6646
  150SAPE  C21216617   6.246   1.206   9.591 -0.6016  1.1018 -0.5264
  150SAPE  H12R16618   6.145   1.249   9.581 -1.1719 -0.1424 -0.2997
  150SAPE  C21316619   6.313   1.165   9.465  0.7628  0.3927  0.2254
  150SAPE  H13R16620   6.417   1.202   9.477  0.4062  1.4688  0.0359
  150SAPE  H13S16621   6.258   1.200   9.375 -0.5704 -2.9141 -0.4012
  150SAPE  C21416622   6.296   1.013   9.440 -0.0543  0.2330 -0.6562
  150SAPE  H14R16623   6.195   0.971   9.457  0.5507 -0.6286  1.0606
  150SAPE  C21516624   6.394   0.936   9.401 -0.0880  0.2725 -0.1836
  150SAPE  H15R16625   6.369   0.831   9.377 -3.6593  0.3913  2.1674
  150SAPE  C21616626   6.535   0.978   9.366 -0.3606  0.0148 -0.0790
  150SAPE  H16R16627   6.611   0.904   9.400 -0.2737 -0.0251 -0.3609
  150SAPE  H16S16628   6.560   1.081   9.401  1.4590  0.1201 -1.5723
  150SAPE  C21716629   6.567   0.977   9.213  0.3258  0.5144 -0.4420
  150SAPE  H17R16630   6.506   1.056   9.166 -0.3440 -1.2620 -2.7489
  150SAPE  H17S16631   6.530   0.875   9.186  0.1964  0.4362  0.0126
  150SAPE  C21816632   6.717   0.988   9.182 -0.2551  0.1067  0.3919
  150SAPE  H18R16633   6.787   0.920   9.237  1.0905  0.6826 -0.5550
  150SAPE  H18S16634   6.745   1.091   9.214 -0.4996 -0.0042  0.9821
  150SAPE  C21916635   6.752   0.971   9.031  0.2978  0.0397  0.1090
  150SAPE  H19R16636   6.690   1.048   8.979 -1.7964 -1.1424  0.7498
  150SAPE  H19S16637   6.725   0.874   8.984 -0.5473 -0.1668  0.9997
  150SAPE  C22016638   6.899   1.003   9.004 -0.1239  0.2910  0.8150
  150SAPE  H20R16639   6.917   1.110   9.025 -1.5059  0.8433 -0.6307
  150SAPE  H20S16640   6.924   0.985   8.897  1.8058 -0.1367  1.2999
  150SAPE  H20T16641   6.959   0.938   9.071 -1.5150 -2.6019 -0.5758
  150SAPE   C3316642   7.185   1.344  10.056  0.3470 -0.0412 -0.1291
  150SAPE   H3X16643   7.126   1.251  10.067  0.4720 -0.5555 -3.0475
  150SAPE   H3Y16644   7.292   1.315  10.067  0.0863 -0.3551  2.1238
  150SAPE   C3416645   7.161   1.399   9.916 -0.2191  0.4215  0.6591
  150SAPE   H4X16646   7.231   1.485   9.913  0.4719 -0.0433 -4.1907
  150SAPE   H4Y16647   7.056   1.428   9.893 -0.1192 -1.0969 -2.0761
  150SAPE   C3516648   7.225   1.311   9.811  0.2738 -0.3481  0.1578
  150SAPE   H5X16649   7.175   1.212   9.813 -0.6304  0.0790 -0.7478
  150SAPE   H5Y16650   7.334   1.298   9.829  0.0586 -0.1510  1.7726
  150SAPE   C3616651   7.205   1.356   9.665 -0.6024  0.5087  0.2069
  150SAPE   H6X16652   7.268   1.447   9.653  0.5005 -0.4502 -1.9198
  150SAPE   H6Y16653   7.101   1.387   9.641 -0.3330  0.7082 -0.7935
  150SAPE   C3716654   7.261   1.256   9.559 -0.3488 -0.0202  0.4231
  150SAPE   H7X16655   7.182   1.177   9.557  1.0226 -1.4510  0.0471
  150SAPE   H7Y16656   7.355   1.211   9.599  0.8737  2.0588  0.0098
  150SAPE   C3816657   7.282   1.316   9.418  0.2860 -0.1616 -0.9166
  150SAPE   H8X16658   7.331   1.239   9.355  0.6628  0.3029 -1.1998
  150SAPE   H8Y16659   7.348   1.405   9.426  0.5820 -0.5019  0.8862
  150SAPE   C3916660   7.165   1.377   9.349  0.0258  0.4380  0.0520
  150SAPE   H9X16661   7.127   1.468   9.400 -3.3605 -2.9334  4.3800
  150SAPE   H9Y16662   7.088   1.298   9.353  1.3784 -0.9084  0.6896
  150SAPE  C31016663   7.194   1.410   9.207 -0.1157 -0.0173  0.1189
  150SAPE  H10X16664   7.260   1.336   9.158  1.3654  1.3080  0.0128
  150SAPE  H10Y16665   7.249   1.505   9.191  0.0978 -0.2725 -0.7101
  150SAPE  C31116666   7.065   1.429   9.119  0.3925 -0.4018  0.2647
  150SAPE  H11X16667   7.011   1.509   9.174  2.2684 -0.6901  2.7037
  150SAPE  H11Y16668   7.005   1.336   9.124  0.5086 -0.4178  1.7844
  150SAPE  C31216669   7.095   1.486   8.975 -0.2790  0.2035 -0.0261
  150SAPE  H12X16670   7.158   1.578   8.980 -0.4280  0.3217 -0.2968
  150SAPE  H12Y16671   6.997   1.512   8.929 -0.8339 -1.6144  0.0767
  150SAPE  C31316672   7.151   1.372   8.882 -0.0702  0.0158 -0.2525
  150SAPE  H13X16673   7.074   1.291   8.885  3.2908 -3.4827  0.3639
  150SAPE  H13Y16674   7.242   1.335   8.933 -1.3755 -1.2205  1.2893
  150SAPE  C31416675   7.158   1.408   8.728  0.1589  0.3677 -0.1073
  150SAPE  H14X16676   7.238   1.483   8.713 -1.4289  1.8974 -1.3075
  150SAPE  H14Y16677   7.068   1.458   8.686  1.5767  2.7542 -0.4907
  150SAPE  C31516678   7.197   1.280   8.636 -0.2087 -0.5964 -0.5948
  150SAPE  H15X16679   7.299   1.250   8.669  1.5197  3.1924 -1.8041
  150SAPE  H15Y16680   7.216   1.304   8.529  1.7653 -0.5813 -0.2818
  150SAPE  C31616681   7.113   1.156   8.658  0.7924  0.2868  0.2261
  150SAPE  H16X16682   7.005   1.175   8.677  0.3511 -0.9267 -0.9595
  150SAPE  H16Y16683   7.154   1.096   8.742 -1.0956  0.6988  1.5087
  150SAPE  C31716684   7.132   1.058   8.539 -0.8952 -0.4585 -0.3075
  150SAPE  H17X16685   7.241   1.037   8.542 -0.4998  1.4132 -0.0414
  150SAPE  H17Y16686   7.107   1.104   8.441 -1.4372  1.2876  0.5926
  150SAPE  C31816687   7.047   0.931   8.552 -0.1467  0.2751 -0.3268
  150SAPE  H18X16688   6.951   0.941   8.495 -0.7266 -0.5726  0.4842
  150SAPE  H18Y16689   7.024   0.921   8.660  0.3581 -1.4444 -0.3561
  150SAPE  H18Z16690   7.082   0.831   8.519 -1.9851 -0.0981 -1.3065
  151SAPE     N16691   4.517   6.305  10.496  0.0695  0.1023  0.6237
  151SAPE   HN116692   4.602   6.362  10.477  0.5538 -0.5798  0.7542
  151SAPE   HN216693   4.533   6.228  10.563 -0.8113 -1.3083 -0.7279
  151SAPE   HN316694   4.484   6.262  10.407 -3.0790  0.8829  1.2619
  151SAPE   C1216695   4.409   6.410  10.531 -0.5480  0.3858 -0.7607
  151SAPE  H12A16696   4.315   6.362  10.566  0.0668  0.9484  1.8909
  151SAPE  H12B16697   4.388   6.477  10.445  1.0138  2.9983  0.7571
  151SAPE   C1116698   4.454   6.502  10.644  0.1123 -0.4554  0.5494
  151SAPE  H11A16699   4.498   6.436  10.721  1.7678  1.7378  1.6116
  151SAPE  H11B16700   4.368   6.562  10.679 -1.3428 -1.3967 -1.2513
  151SAPE     P16701   4.629   6.676  10.720 -0.2618  0.2621 -0.3090
  151SAPE   O1316702   4.532   6.714  10.826  0.2889  0.6172 -0.4416
  151SAPE   O1416703   4.748   6.603  10.762 -0.4058 -0.0392  0.2995
  151SAPE   O1216704   4.563   6.591  10.612  0.0567 -0.0691  0.1876
  151SAPE   O1116705   4.667   6.800  10.641  0.1509  0.6427  0.4702
  151SAPE    C116706   4.575   6.898  10.591 -0.4569  0.5269 -0.7223
  151SAPE    HA16707   4.489   6.913  10.660  0.9175  1.6108  0.8222
  151SAPE    HB16708   4.635   6.990  10.578  2.8983 -1.1269  1.5197
  151SAPE    C216709   4.527   6.862  10.445 -0.3464  0.3578  0.1857
  151SAPE    HS16710   4.439   6.795  10.460 -0.6878  0.9275  0.8027
  151SAPE   O2116711   4.632   6.808  10.362  0.0785  0.2348 -0.0969
  151SAPE   C2116712   4.604   6.704  10.287 -0.1852 -0.1551  0.0913
  151SAPE   O2216713   4.503   6.630  10.295 -0.5219  0.0296  0.3194
  151SAPE   C2216714   4.709   6.697  10.171  0.3982  0.3581 -0.2031
  151SAPE   H2R16715   4.691   6.789  10.111  1.4460  1.8020  1.6076
  151SAPE   H2S16716   4.808   6.711  10.219  0.4309  0.1560 -0.2092
  151SAPE    C316717   4.478   6.984  10.372 -0.1305 -0.2303  0.9831
  151SAPE    HX16718   4.560   7.060  10.369 -0.3812  0.0168 -0.6507
  151SAPE    HY16719   4.400   7.035  10.433 -1.8621  1.0850 -2.0635
  151SAPE   O3116720   4.434   6.946  10.243  0.3575  0.0464  0.2609
  151SAPE   C3116721   4.317   7.004  10.204 -0.3407  0.2958  0.5309
  151SAPE   O3216722   4.267   7.097  10.261  0.1619 -0.1469  0.1130
  151SAPE   C3216723   4.279   6.957  10.064  0.1589  0.0279  0.1939
  151SAPE   H2X16724   4.221   7.042  10.024  0.4872  1.5950  2.8305
  151SAPE   H2Y16725   4.226   6.860  10.079 -0.9039  0.6089  0.2729
  151SAPE   C2316726   4.697   6.563  10.090 -0.4382  0.0688 -0.8680
  151SAPE   H3R16727   4.646   6.481  10.146 -1.2807 -0.5338 -2.4330
  151SAPE   H3S16728   4.802   6.536  10.066 -0.2014 -0.1263  0.3394
  151SAPE   C2416729   4.615   6.577   9.959 -0.3939 -0.6346 -0.2281
  151SAPE   H4R16730   4.518   6.623   9.987  0.2996 -0.5711  2.2543
  151SAPE   H4S16731   4.585   6.474   9.928  0.3945 -0.8137 -0.4003
  151SAPE   C2516732   4.689   6.650   9.850 -0.5724 -0.1599  0.1713
  151SAPE   H5R16733   4.704   6.756   9.875 -0.7814  0.0649 -0.6191
  151SAPE   C2616734   4.729   6.592   9.738 -0.8891 -0.2378 -0.6280
  151SAPE   H6R16735   4.793   6.644   9.664 -0.2026 -1.6134 -1.0403
  151SAPE   C2716736   4.702   6.446   9.694  0.0981 -0.1295  0.6228
  151SAPE   H7R16737   4.686   6.444   9.584 -1.1149  1.4027  0.7305
  151SAPE   H7S16738   4.599   6.429   9.731 -1.0002  4.6906  0.5375
  151SAPE   C2816739   4.806   6.351   9.746  0.5633 -0.4948  0.5894
  151SAPE   H8R16740   4.864   6.385   9.833 -1.0016 -0.5791  1.7086
  151SAPE   C2916741   4.839   6.231   9.696 -0.1404  0.0839 -0.1185
  151SAPE   H9R16742   4.911   6.170   9.752  0.9950 -0.0071 -1.5982
  151SAPE  C21016743   4.789   6.154   9.574 -0.0896 -1.1454  0.9184
  151SAPE  H10R16744   4.681   6.176   9.562 -0.7418 -2.9383  2.9222
  151SAPE  H10S16745   4.768   6.049   9.603 -0.4911 -1.2485  0.2641
  151SAPE  C21116746   4.862   6.196   9.449 -0.2004  0.4348  0.5293
  151SAPE  H11R16747   4.961   6.237   9.478  0.2252 -2.5328  3.9470
  151SAPE  C21216748   4.828   6.176   9.318  0.5400 -0.6463  0.6585
  151SAPE  H12R16749   4.890   6.196   9.229 -1.1871 -0.1841 -0.4884
  151SAPE  C21316750   4.701   6.114   9.274  0.2567  0.3815  0.1823
  151SAPE  H13R16751   4.622   6.135   9.350 -2.1029 -0.8252 -1.7719
  151SAPE  H13S16752   4.721   6.005   9.269  2.5404  0.6274  2.2667
  151SAPE  C21416753   4.658   6.172   9.137  0.3098 -0.5733 -0.1774
  151SAPE  H14R16754   4.613   6.272   9.142  0.1536 -0.6320 -0.4094
  151SAPE  C21516755   4.658   6.108   9.018 -0.8425 -0.2195  0.4410
  151SAPE  H15R16756   4.621   6.167   8.933 -1.7107 -1.2156  0.1091
  151SAPE  C21616757   4.685   5.968   8.981 -0.5235  0.1229  0.7948
  151SAPE  H16R16758   4.708   5.904   9.068 -1.7673 -1.1693  0.2239
  151SAPE  H16S16759   4.760   5.965   8.899 -0.1561 -1.3813  1.1516
  151SAPE  C21716760   4.561   5.898   8.913  0.1356 -0.2436 -0.3639
  151SAPE  H17R16761   4.483   5.869   8.987  0.3855  0.7483  0.3088
  151SAPE  H17S16762   4.603   5.810   8.860 -0.5661 -1.5397  1.1329
  151SAPE  C21816763   4.474   5.987   8.821 -0.5056  0.2953 -0.4831
  151SAPE  H18R16764   4.537   6.027   8.739  1.8847  1.9397  2.0072
  151SAPE  H18S16765   4.440   6.072   8.884  1.6838  1.4618 -0.7816
  151SAPE  C21916766   4.352   5.914   8.761 -0.5501 -0.7213  0.7355
  151SAPE  H19R16767   4.307   5.858   8.846  0.5616 -2.3475  0.3097
  151SAPE  H19S16768   4.383   5.829   8.696  1.3702 -0.2795  1.0226
  151SAPE  C22016769   4.256   6.005   8.689  0.1542  0.6444 -0.1446
  151SAPE  H20R16770   4.157   5.964   8.661  0.5104 -0.1554 -0.2540
  151SAPE  H20S16771   4.297   6.054   8.598 -0.2196  1.6159  0.1853
  151SAPE  H20T16772   4.225   6.096   8.746 -0.4133  1.1031 -1.1507
  151SAPE   C3316773   4.394   6.952   9.961  0.8710  0.4156  0.7135
  151SAPE   H3X16774   4.477   6.884   9.991 -1.4192 -1.5986  3.0474
  151SAPE   H3Y16775   4.414   7.060   9.945 -0.9981  0.8554  1.0849
  151SAPE   C3416776   4.325   6.900   9.828  0.0922  0.6280  0.5224
  151SAPE   H4X16777   4.245   6.973   9.799 -0.5583 -0.5858 -0.8876
  151SAPE   H4Y16778   4.276   6.800   9.824  0.0653  0.5649  1.9454
  151SAPE   C3516779   4.412   6.908   9.703 -0.9182  0.5676  0.0826
  151SAPE   H5X16780   4.493   6.832   9.712 -0.6758  0.9270  1.0199
  151SAPE   H5Y16781   4.455   7.004   9.667  0.7725 -0.1689  0.0237
  151SAPE   C3616782   4.340   6.834   9.582  0.1240 -0.1554  0.2031
  151SAPE   H6X16783   4.251   6.889   9.544  1.2937  1.2462 -0.5896
  151SAPE   H6Y16784   4.318   6.728   9.607  0.4772 -0.5584 -1.1286
  151SAPE   C3716785   4.429   6.831   9.452  0.4493 -0.8621 -0.1212
  151SAPE   H7X16786   4.486   6.736   9.450 -0.5268 -1.5713  2.1446
  151SAPE   H7Y16787   4.475   6.931   9.439 -1.1049  0.2392  2.1124
  151SAPE   C3816788   4.340   6.827   9.319 -0.1094 -0.3262 -0.6099
  151SAPE   H8X16789   4.286   6.923   9.303  1.1334  0.6135  0.5482
  151SAPE   H8Y16790   4.258   6.755   9.340 -0.9408  0.7331 -0.0828
  151SAPE   C3916791   4.417   6.785   9.199  0.3739 -0.4241 -0.5840
  151SAPE   H9X16792   4.410   6.674   9.202 -1.8000 -0.3125  0.0079
  151SAPE   H9Y16793   4.522   6.820   9.206  0.3423 -0.4927  0.3568
  151SAPE  C31016794   4.360   6.828   9.057  0.1385 -0.2026 -0.4726
  151SAPE  H10X16795   4.361   6.939   9.053 -1.7517 -0.1990 -1.9979
  151SAPE  H10Y16796   4.255   6.793   9.042  0.7596 -2.4952  0.0850
  151SAPE  C31116797   4.438   6.779   8.932  0.7947  0.6122 -0.3828
  151SAPE  H11X16798   4.432   6.668   8.928 -1.9831  0.7235 -1.5088
  151SAPE  H11Y16799   4.544   6.814   8.929  0.7961  0.8521  1.4241
  151SAPE  C31216800   4.369   6.854   8.813 -0.0106 -1.1069 -0.8511
  151SAPE  H12X16801   4.381   6.964   8.824  4.1004 -1.1987 -2.7505
  151SAPE  H12Y16802   4.260   6.835   8.821 -0.0798 -0.6501 -0.6308
  151SAPE  C31316803   4.391   6.812   8.675 -0.1232 -0.1158  0.9064
  151SAPE  H13X16804   4.402   6.703   8.658 -1.5235 -0.1253 -0.0890
  151SAPE  H13Y16805   4.488   6.855   8.642  1.2733 -0.0706  4.6139
  151SAPE  C31416806   4.283   6.862   8.573 -0.0645  0.0045 -0.5629
  151SAPE  H14X16807   4.323   6.851   8.470 -1.2696 -1.0206 -0.9516
  151SAPE  H14Y16808   4.260   6.970   8.588 -2.8937 -0.5595 -0.1422
  151SAPE  C31516809   4.147   6.782   8.576  0.2736 -0.2031  1.2573
  151SAPE  H15X16810   4.097   6.794   8.674 -0.7479 -2.4598  1.0675
  151SAPE  H15Y16811   4.177   6.676   8.566  0.1843 -0.3474  2.4308
  151SAPE  C31616812   4.059   6.819   8.456 -0.2051  0.0856  0.2341
  151SAPE  H16X16813   4.128   6.811   8.369 -0.6327 -0.4672 -0.0609
  151SAPE  H16Y16814   4.023   6.923   8.470 -0.2766  0.0475  0.3347
  151SAPE  C31716815   3.944   6.718   8.452 -0.2347 -0.5074  0.1138
  151SAPE  H17X16816   3.874   6.770   8.382 -0.0158 -0.5731 -0.1555
  151SAPE  H17Y16817   3.890   6.721   8.549 -3.0177  0.4667 -1.3342
  151SAPE  C31816818   3.974   6.577   8.389  0.4847 -0.3088 -0.3322
  151SAPE  H18X16819   3.876   6.530   8.365 -0.1819  1.6694 -1.7632
  151SAPE  H18Y16820   4.043   6.518   8.452 -0.0280 -1.7935 -1.1073
  151SAPE  H18Z16821   4.013   6.598   8.287  0.1837  0.2848 -0.3286
  152SAPE     N16822   0.453   2.994  10.886  0.2374 -0.7136  0.0517
  152SAPE   HN116823   0.513   3.069  10.926 -3.5393 -0.0565  5.6238
  152SAPE   HN216824   0.419   2.938  10.966 -1.6669  0.0363 -0.1735
  152SAPE   HN316825   0.507   2.931  10.822 -0.4350 -1.7572  0.4748
  152SAPE   C1216826   0.339   3.060  10.817 -0.0256  0.6085  0.1599
  152SAPE  H12A16827   0.291   3.125  10.893 -0.5771  0.6283 -0.1904
  152SAPE  H12B16828   0.279   2.969  10.794 -1.4055  1.1900  1.2632
  152SAPE   C1116829   0.395   3.151  10.703 -0.7106 -0.5204 -0.5289
  152SAPE  H11A16830   0.298   3.199  10.678 -0.2632  1.5510  1.3832
  152SAPE  H11B16831   0.429   3.085  10.621 -3.2144 -0.3548 -1.7841
  152SAPE     P16832   0.493   3.399  10.718 -0.3223  0.4409  0.3528
  152SAPE   O1316833   0.376   3.467  10.777  0.1246  0.0422 -0.4198
  152SAPE   O1416834   0.622   3.457  10.755 -0.3963 -0.1981 -0.1973
  152SAPE   O1216835   0.491   3.248  10.754 -0.0107  0.9052 -0.2506
  152SAPE   O1116836   0.484   3.415  10.564 -0.7066  0.1730 -0.1058
  152SAPE    C116837   0.553   3.337  10.472 -0.4617  0.0400  0.3170
  152SAPE    HA16838   0.663   3.347  10.489 -0.7447  2.0605  1.2237
  152SAPE    HB16839   0.515   3.233  10.483 -0.7900 -0.0153 -1.1224
  152SAPE    C216840   0.523   3.384  10.323  0.1133 -0.5780  0.3573
  152SAPE    HS16841   0.555   3.306  10.251  2.3498  1.6476 -1.2358
  152SAPE   O2116842   0.584   3.515  10.299  0.8949  0.0654 -0.7056
  152SAPE   C2116843   0.713   3.506  10.257  0.2433  0.3713  0.0467
  152SAPE   O2216844   0.772   3.399  10.224  0.1343 -0.2101  0.0505
  152SAPE   C2216845   0.773   3.645  10.239 -0.6725 -0.0823 -0.8559
  152SAPE   H2R16846   0.789   3.691  10.339 -0.6026  2.9725 -2.1679
  152SAPE   H2S16847   0.871   3.625  10.189 -0.3105  0.4023 -0.3505
  152SAPE    C316848   0.366   3.395  10.314  0.2682 -0.0467 -0.1517
  152SAPE    HX16849   0.322   3.475  10.377 -3.0664 -0.8031 -1.3173
  152SAPE    HY16850   0.320   3.303  10.356  1.5465  0.6570  3.0958
  152SAPE   O3116851   0.340   3.419  10.175  0.7365  0.6223 -0.2062
  152SAPE   C3116852   0.225   3.476  10.151 -0.4507 -0.3221 -0.5274
  152SAPE   O3216853   0.137   3.499  10.233  0.4458  0.0252 -0.3263
  152SAPE   C3216854   0.213   3.522  10.003 -0.4747  0.0073  0.2959
  152SAPE   H2X16855   0.249   3.450   9.926 -1.2543  1.4381 -1.5082
  152SAPE   H2Y16856   0.297   3.594   9.988  0.4172 -1.1262 -0.3270
  152SAPE   C2316857   0.666   3.742  10.175 -0.6151  0.0197 -0.1274
  152SAPE   H3R16858   0.695   3.849  10.181 -2.7236  0.5807  1.2719
  152SAPE   H3S16859   0.578   3.736  10.243 -0.0463  1.0760  0.7236
  152SAPE   C2416860   0.620   3.710  10.028 -0.1770 -0.2084 -0.2678
  152SAPE   H4R16861   0.558   3.796   9.993 -1.1030  0.2669  2.2795
  152SAPE   H4S16862   0.552   3.623  10.021  1.5164 -1.4895 -1.5631
  152SAPE   C2516863   0.745   3.700   9.936 -0.1310 -0.4427 -0.1308
  152SAPE   H5R16864   0.782   3.797   9.899  1.3147 -1.1309 -0.5741
  152SAPE   C2616865   0.788   3.588   9.878  0.2307  0.0318 -0.3430
  152SAPE   H6R16866   0.877   3.584   9.813  0.5979 -0.7211  0.1911
  152SAPE   C2716867   0.738   3.447   9.904  0.0181  0.2159 -0.4222
  152SAPE   H7R16868   0.639   3.435   9.953  0.0593 -0.5549 -0.5131
  152SAPE   H7S16869   0.811   3.392   9.967 -0.7987  1.3679  1.6065
  152SAPE   C2816870   0.710   3.374   9.772  0.4583 -0.6207 -0.3897
  152SAPE   H8R16871   0.786   3.378   9.693  1.3653 -1.1167  0.4444
  152SAPE   C2916872   0.598   3.306   9.739 -0.2750 -0.4674  0.7136
  152SAPE   H9R16873   0.599   3.247   9.646  0.3977 -0.1347  0.5015
  152SAPE  C21016874   0.474   3.291   9.827  0.2075 -0.8931  0.5219
  152SAPE  H10R16875   0.400   3.257   9.751 -0.4974  0.2339  0.6788
  152SAPE  H10S16876   0.438   3.392   9.855 -0.4552 -0.4547 -1.6614
  152SAPE  C21116877   0.479   3.203   9.949  0.3506 -0.0727 -0.0573
  152SAPE  H11R16878   0.508   3.264  10.036 -1.6057  3.4045 -1.6636
  152SAPE  C21216879   0.477   3.069   9.961 -0.6536 -0.1922  0.2864
  152SAPE  H12R16880   0.489   3.008  10.052  0.2747 -1.7877 -0.8487
  152SAPE  C21316881   0.448   2.967   9.860 -0.6464  0.5610 -0.2638
  152SAPE  H13R16882   0.350   3.003   9.823 -1.2145 -0.5095  0.1882
  152SAPE  H13S16883   0.425   2.865   9.896 -0.7357  0.4990 -0.4930
  152SAPE  C21416884   0.543   2.956   9.743 -0.8259  0.8501  0.0414
  152SAPE  H14R16885   0.644   2.934   9.782 -1.3483 -1.6488  0.1267
  152SAPE  C21516886   0.521   2.965   9.609  0.5710  0.2346 -0.0902
  152SAPE  H15R16887   0.595   2.939   9.532  0.0895 -0.8162 -0.2159
  152SAPE  C21616888   0.383   2.989   9.543  0.4205  0.0631 -0.0111
  152SAPE  H16R16889   0.307   3.020   9.618 -0.0042  0.1520 -0.4688
  152SAPE  H16S16890   0.351   2.896   9.491  0.9691 -0.1144 -0.0361
  152SAPE  C21716891   0.392   3.104   9.437  0.3804  0.0466  0.6105
  152SAPE  H17R16892   0.495   3.120   9.399  0.7007  0.2077  1.5222
  152SAPE  H17S16893   0.382   3.201   9.489 -1.0536  0.4967 -0.4184
  152SAPE  C21816894   0.289   3.083   9.318 -1.2731  0.2322  0.3954
  152SAPE  H18R16895   0.253   3.181   9.279 -1.6577  0.5239  1.4579
  152SAPE  H18S16896   0.200   3.031   9.357 -0.7240 -1.0067  0.0466
  152SAPE  C21916897   0.348   2.987   9.212 -0.2294 -0.5158 -0.5620
  152SAPE  H19R16898   0.378   2.896   9.268 -0.5677  0.4847  1.3679
  152SAPE  H19S16899   0.439   3.034   9.170 -1.1876  2.9021  0.7523
  152SAPE  C22016900   0.254   2.947   9.097 -0.1056  0.0615 -0.4207
  152SAPE  H20R16901   0.307   2.904   9.009 -0.4737  1.7197 -1.4956
  152SAPE  H20S16902   0.196   3.033   9.057 -1.1326 -1.3868 -2.2523
  152SAPE  H20T16903   0.175   2.881   9.141  1.0123 -0.0609  1.4931
  152SAPE   C3316904   0.085   3.594   9.959  0.2159  0.1802  0.4281
  152SAPE   H3X16905   0.052   3.658  10.043 -2.0109 -0.3043  0.0087
  152SAPE   H3Y16906  -0.014   3.542   9.960  0.2410  0.0804 -0.6996
  152SAPE   C3416907   0.111   3.681   9.846  0.4091 -0.4182  0.6652
  152SAPE   H4X16908   0.215   3.723   9.844  0.4474 -0.4339  1.8400
  152SAPE   H4Y16909   0.041   3.767   9.842  0.8814  0.1687  3.1890
  152SAPE   C3516910   0.084   3.616   9.702 -0.2949  1.1197 -0.3296
  152SAPE   H5X16911   0.097   3.698   9.628 -0.1933  1.0566 -0.3816
  152SAPE   H5Y16912  -0.024   3.591   9.704 -0.3240  1.2867  0.4098
  152SAPE   C3616913   0.168   3.495   9.660  0.2009 -0.4809 -0.7085
  152SAPE   H6X16914   0.179   3.426   9.746  0.9860  1.5648  0.9020
  152SAPE   H6Y16915   0.270   3.532   9.639  0.9881 -2.1104  0.0981
  152SAPE   C3716916   0.102   3.406   9.553  0.4406  0.2348 -0.8968
  152SAPE   H7X16917  -0.001   3.380   9.585  1.1430  0.4189  1.7707
  152SAPE   H7Y16918   0.144   3.308   9.521  1.8403  1.0401 -1.6062
  152SAPE   C3816919   0.090   3.477   9.420  0.0383 -0.1192  0.5080
  152SAPE   H8X16920   0.194   3.499   9.385 -0.7961  0.8918 -1.5184
  152SAPE   H8Y16921   0.044   3.578   9.429  1.3013  0.3123  2.9901
  152SAPE   C3916922   0.023   3.392   9.313 -0.3381  0.3245 -0.3059
  152SAPE   H9X16923  -0.087   3.404   9.307 -0.7781 -2.7530  0.0103
  152SAPE   H9Y16924   0.046   3.286   9.335 -0.3687  0.6458  1.3744
  152SAPE  C31016925   0.064   3.420   9.169 -0.0658  0.6546  0.0628
  152SAPE  H10X16926   0.002   3.360   9.099  0.5522  0.4819 -0.3401
  152SAPE  H10Y16927   0.169   3.387   9.156 -0.2966  0.1059 -0.4659
  152SAPE  C31116928   0.047   3.566   9.122 -0.1782  0.5669  0.3542
  152SAPE  H11X16929   0.100   3.633   9.192  0.2363  0.6161 -0.0002
  152SAPE  H11Y16930  -0.059   3.599   9.128 -1.0149 -1.8450 -0.0198
  152SAPE  C31216931   0.112   3.596   8.983 -0.2981  0.7541 -0.5815
  152SAPE  H12X16932   0.125   3.502   8.925  0.8907  0.2989  0.3636
  152SAPE  H12Y16933   0.214   3.638   8.997  0.4718 -1.2086  0.0481
  152SAPE  C31316934   0.037   3.706   8.910  0.0236 -0.7091  0.4667
  152SAPE  H13X16935   0.021   3.779   8.992  0.4206 -0.7096  0.5447
  152SAPE  H13Y16936  -0.054   3.663   8.864  0.2200 -1.4805  0.7663
  152SAPE  C31416937   0.127   3.772   8.805  0.8135 -0.3974  0.6209
  152SAPE  H14X16938   0.160   3.698   8.728  0.3566  0.2780 -0.2444
  152SAPE  H14Y16939   0.221   3.800   8.857  1.6744 -0.3591 -0.8804
  152SAPE  C31516940   0.063   3.888   8.725 -0.6889 -0.2919  0.2812
  152SAPE  H15X16941   0.013   3.958   8.796  1.2077  1.6283 -0.1753
  152SAPE  H15Y16942  -0.011   3.840   8.658 -0.8622 -0.7134  0.7625
  152SAPE  C31616943   0.156   3.976   8.638 -0.0592 -0.0274 -0.0692
  152SAPE  H16X16944   0.103   4.025   8.554 -1.7978 -1.2566  0.2724
  152SAPE  H16Y16945   0.221   3.910   8.577  0.2595 -0.9380  1.2255
  152SAPE  C31716946   0.250   4.077   8.708  0.2287  0.9302 -0.5346
  152SAPE  H17X16947   0.276   4.048   8.812 -0.7551 -0.4642 -0.6590
  152SAPE  H17Y16948   0.180   4.162   8.717 -0.9865  0.0041 -0.9805
  152SAPE  C31816949   0.376   4.120   8.634  0.0490  0.0269  0.0837
  152SAPE  H18X16950   0.441   4.034   8.608  0.5664  1.0400 -2.2705
  152SAPE  H18Y16951   0.442   4.187   8.694  1.5356 -0.2769 -1.1384
  152SAPE  H18Z16952   0.355   4.172   8.538 -2.5973  0.9275  1.0649
  153SAPE     N16953   6.752   4.406  11.033 -0.5037 -0.7444 -0.5737
  153SAPE   HN116954   6.820   4.482  11.056 -1.3483 -0.0821 -0.1960
  153SAPE   HN216955   6.673   4.445  10.978  0.3644 -0.0878 -1.3948
  153SAPE   HN316956   6.706   4.372  11.120  1.5932 -1.6489  0.2511
  153SAPE   C1216957   6.830   4.293  10.961  0.4721  0.0966  0.9054
  153SAPE  H12A16958   6.932   4.317  11.000 -0.3971  3.1897  1.5275
  153SAPE  H12B16959   6.828   4.321  10.853 -0.8979 -1.5876  0.4572
  153SAPE   C1116960   6.767   4.160  10.977  0.9644 -0.2019  0.1587
  153SAPE  H11A16961   6.777   4.129  11.083 -0.0820 -0.9040  0.0677
  153SAPE  H11B16962   6.824   4.084  10.920 -0.4581 -1.0452 -0.1891
  153SAPE     P16963   6.555   4.019  10.934  0.2224  0.0872 -0.2940
  153SAPE   O1316964   6.652   3.910  10.951 -0.2898  0.1151 -0.4040
  153SAPE   O1416965   6.441   4.025  11.028  0.4131  0.0892  0.4807
  153SAPE   O1216966   6.624   4.167  10.941  0.2930 -0.4678 -0.3677
  153SAPE   O1116967   6.495   4.013  10.792 -0.4260 -0.3084 -0.2629
  153SAPE    C116968   6.517   4.117  10.696 -0.2746 -0.3945  0.5232
  153SAPE    HA16969   6.435   4.192  10.706 -0.8507 -1.0855  1.0198
  153SAPE    HB16970   6.615   4.166  10.716 -0.0883 -1.1348  1.4827
  153SAPE    C216971   6.530   4.062  10.546 -0.1867  0.2742  0.3969
  153SAPE    HS16972   6.583   4.141  10.488 -0.9201  0.9675  0.6613
  153SAPE   O2116973   6.409   4.026  10.479  0.9956 -0.3328  0.4137
  153SAPE   C2116974   6.333   4.131  10.454  0.8123 -0.3035  0.6052
  153SAPE   O2216975   6.362   4.245  10.477  0.2090 -0.7334 -0.2276
  153SAPE   C2216976   6.205   4.097  10.373 -0.3690  0.0551  0.1745
  153SAPE   H2R16977   6.194   3.987  10.363  0.8083 -0.3119  2.3942
  153SAPE   H2S16978   6.115   4.117  10.435 -0.6858  3.1999 -1.1354
  153SAPE    C316979   6.634   3.942  10.552 -0.4723 -0.1922 -0.7669
  153SAPE    HX16980   6.590   3.864  10.618  1.2485  0.5240  1.3270
  153SAPE    HY16981   6.728   3.977  10.600 -1.8402  1.3474  0.9455
  153SAPE   O3116982   6.664   3.894  10.424 -0.0778  0.3007  0.2412
  153SAPE   C3116983   6.616   3.771  10.395  0.0342 -0.6108 -0.3638
  153SAPE   O3216984   6.556   3.698  10.476 -0.7912  0.5516 -0.4761
  153SAPE   C3216985   6.660   3.713  10.258  0.0615 -0.9572 -0.9252
  153SAPE   H2X16986   6.646   3.603  10.270  0.5165 -0.7638  2.1490
  153SAPE   H2Y16987   6.764   3.746  10.237 -0.4824  1.2672 -0.4404
  153SAPE   C2316988   6.200   4.179  10.236 -0.1616 -0.7672  0.5376
  153SAPE   H3R16989   6.296   4.162  10.183 -1.7604 -0.6637 -2.6105
  153SAPE   H3S16990   6.214   4.283  10.274 -1.1098 -0.2949 -0.3362
  153SAPE   C2416991   6.073   4.149  10.156  0.0525  0.1371  0.6925
  153SAPE   H4R16992   6.063   4.229  10.079  1.5199  1.1311  1.4756
  153SAPE   H4S16993   5.980   4.143  10.216 -0.2769  2.0981  0.4422
  153SAPE   C2516994   6.093   4.015  10.086 -0.2840  0.1924 -0.6947
  153SAPE   H5R16995   6.080   3.934  10.160 -1.5056  2.4683  1.7559
  153SAPE   C2616996   6.122   3.977   9.959 -0.1379 -0.1075  0.7414
  153SAPE   H6R16997   6.154   3.874   9.938 -0.1730 -0.0876  0.5909
  153SAPE   C2716998   6.150   4.071   9.839 -0.1088  0.1389  0.4178
  153SAPE   H7R16999   6.240   4.032   9.785  1.9027  0.4068  3.3231
  153SAPE   H7S17000   6.182   4.167   9.885 -1.7719  1.6277 -1.3711
  153SAPE   C2817001   6.032   4.096   9.750  0.3701  0.7821  0.7332
  153SAPE   H8R17002   5.947   4.160   9.779 -1.8928 -0.1172 -3.1213
  153SAPE   C2917003   6.005   4.054   9.624 -0.2211 -0.0261 -0.5498
  153SAPE   H9R17004   5.921   4.103   9.572 -0.9654  0.2337  0.8529
  153SAPE  C21017005   6.096   3.973   9.534 -1.1896 -0.3070  1.0341
  153SAPE  H10R17006   6.116   3.868   9.562 -1.9391 -0.7134  0.0896
  153SAPE  H10S17007   6.194   4.027   9.538 -0.4653 -1.2339 -1.8390
  153SAPE  C21117008   6.031   3.964   9.394 -0.6851  0.4755 -0.3083
  153SAPE  H11R17009   5.975   3.870   9.380 -2.0254  1.1638  0.3201
  153SAPE  C21217010   6.034   4.056   9.295 -0.3912  0.1075  0.4937
  153SAPE  H12R17011   5.977   4.031   9.204 -0.9923  2.0690  0.2890
  153SAPE  C21317012   6.110   4.190   9.290  0.6213  1.0827  0.3045
  153SAPE  H13R17013   6.192   4.173   9.216  0.3015  2.3070 -0.3511
  153SAPE  H13S17014   6.152   4.203   9.391 -1.4417  0.1646  1.3530
  153SAPE  C21417015   6.025   4.311   9.260  0.1009 -0.5452 -0.3898
  153SAPE  H14R17016   5.930   4.319   9.314  1.0410 -1.9026  1.5659
  153SAPE  C21517017   6.055   4.409   9.170  0.4208 -0.0909  0.1903
  153SAPE  H15R17018   5.990   4.498   9.171  1.5930  0.8023 -0.1045
  153SAPE  C21617019   6.176   4.440   9.080  0.4617 -0.0885 -0.5082
  153SAPE  H16R17020   6.247   4.357   9.060  1.5609  0.6799  0.0801
  153SAPE  H16S17021   6.246   4.498   9.144  0.8181 -1.7592  0.6830
  153SAPE  C21717022   6.140   4.524   8.956 -0.2058  0.3917  0.4701
  153SAPE  H17R17023   6.104   4.617   9.004 -1.1368 -0.4277  1.4353
  153SAPE  H17S17024   6.053   4.471   8.912 -0.2232  0.2172  0.7066
  153SAPE  C21817025   6.253   4.534   8.848 -0.0003  0.7706 -0.8539
  153SAPE  H18R17026   6.275   4.430   8.815 -0.5759  1.1059 -2.3764
  153SAPE  H18S17027   6.349   4.567   8.893  0.7467 -3.4397  1.1294
  153SAPE  C21917028   6.231   4.637   8.735  0.7611 -0.6322 -0.3336
  153SAPE  H19R17029   6.223   4.731   8.794 -0.2388 -0.2693 -1.0121
  153SAPE  H19S17030   6.132   4.618   8.687  1.1109 -0.3971 -1.1704
  153SAPE  C22017031   6.331   4.635   8.619  0.2338  0.6737  0.3545
  153SAPE  H20R17032   6.429   4.656   8.668  0.4551 -0.4022  0.3908
  153SAPE  H20S17033   6.313   4.718   8.547  1.9808 -0.6922 -1.7792
  153SAPE  H20T17034   6.328   4.539   8.563  3.7002  1.3347 -1.2341
  153SAPE   C3317035   6.568   3.754  10.141  0.5500  0.2867 -0.1603
  153SAPE   H3X17036   6.465   3.745  10.180  0.3442  0.3390 -0.6839
  153SAPE   H3Y17037   6.590   3.683  10.059  0.0549  0.7103 -0.6655
  153SAPE   C3417038   6.577   3.901  10.098 -1.0710 -1.2354  0.3344
  153SAPE   H4X17039   6.686   3.917  10.083 -1.2285  0.8382  1.0662
  153SAPE   H4Y17040   6.545   3.973  10.176  1.1802  1.5596 -1.1329
  153SAPE   C3517041   6.505   3.926   9.972  0.1067 -0.1458 -0.4618
  153SAPE   H5X17042   6.471   4.031   9.963 -1.4126 -0.6538 -1.0636
  153SAPE   H5Y17043   6.416   3.860   9.958  0.3812 -0.2751 -1.7529
  153SAPE   C3617044   6.582   3.891   9.849 -0.8023 -1.3367  0.5474
  153SAPE   H6X17045   6.624   3.789   9.848  0.3588 -0.8728 -0.5103
  153SAPE   H6Y17046   6.668   3.961   9.846 -1.1065 -0.8985  1.6196
  153SAPE   C3717047   6.498   3.915   9.723  0.1154 -0.7418 -0.1190
  153SAPE   H7X17048   6.460   4.018   9.740  0.0696 -0.8202  0.2669
  153SAPE   H7Y17049   6.418   3.839   9.721 -0.2046 -0.3919 -1.1951
  153SAPE   C3817050   6.571   3.913   9.590  0.1453  0.2716 -1.0085
  153SAPE   H8X17051   6.643   3.829   9.589  1.8923  1.6949 -0.8544
  153SAPE   H8Y17052   6.625   4.008   9.571  0.0130  0.6550  0.4059
  153SAPE   C3917053   6.472   3.904   9.477 -0.9477  0.0376  0.1731
  153SAPE   H9X17054   6.398   3.986   9.484 -1.9995 -1.0351  2.8226
  153SAPE   H9Y17055   6.409   3.813   9.485 -0.7326 -0.1900 -0.5565
  153SAPE  C31017056   6.517   3.875   9.329 -0.1690 -0.1618 -0.2864
  153SAPE  H10X17057   6.548   3.768   9.324 -1.7503 -0.7228  1.0914
  153SAPE  H10Y17058   6.597   3.952   9.316  1.2569 -1.3864  0.8609
  153SAPE  C31117059   6.400   3.898   9.229 -0.0412  0.2064 -0.0462
  153SAPE  H11X17060   6.335   3.968   9.286  0.4095  0.6357 -0.0530
  153SAPE  H11Y17061   6.350   3.799   9.220  0.5278 -0.1352  0.4660
  153SAPE  C31217062   6.456   3.963   9.101 -0.4229  0.0784 -0.1323
  153SAPE  H12X17063   6.559   3.923   9.086 -0.2165  0.2766  0.7235
  153SAPE  H12Y17064   6.457   4.073   9.116  0.8623  0.2061 -0.9999
  153SAPE  C31317065   6.362   3.922   8.984 -0.0293  0.3285 -0.4556
  153SAPE  H13X17066   6.342   3.815   9.006 -1.4141  0.5090 -0.7674
  153SAPE  H13Y17067   6.414   3.928   8.886 -0.8494  1.1592 -0.8516
  153SAPE  C31417068   6.233   3.995   8.983  0.3381 -0.9645  0.1516
  153SAPE  H14X17069   6.259   4.103   8.978  0.7707 -1.0655  0.1753
  153SAPE  H14Y17070   6.176   3.989   9.079 -0.1810 -1.1464 -0.1656
  153SAPE  C31517071   6.156   3.966   8.858  1.1220  0.5532  0.0196
  153SAPE  H15X17072   6.141   3.856   8.849  0.4632  0.5713  0.7541
  153SAPE  H15Y17073   6.212   4.004   8.770 -0.9397 -1.4820 -2.3460
  153SAPE  C31617074   6.024   4.037   8.840 -0.5038  0.5755  0.0037
  153SAPE  H16X17075   5.959   4.020   8.928 -0.8537 -0.1410 -0.3827
  153SAPE  H16Y17076   5.978   3.978   8.757 -1.0074 -0.4736  1.0045
  153SAPE  C31717077   6.041   4.183   8.797 -0.0220  0.2460  0.1879
  153SAPE  H17X17078   6.080   4.226   8.891  1.1937 -0.2536 -0.0686
  153SAPE  H17Y17079   5.940   4.230   8.785 -0.1569  0.2130  1.1256
  153SAPE  C31817080   6.134   4.216   8.681 -0.0557 -0.0114 -0.0094
  153SAPE  H18X17081   6.120   4.323   8.654  1.5204  0.2686  0.2002
  153SAPE  H18Y17082   6.123   4.164   8.583  3.8989  1.2839 -1.3319
  153SAPE  H18Z17083   6.240   4.208   8.713 -0.0294 -0.2124 -0.1427
  154SAPE     N17084   2.816   3.623  10.979 -0.0127 -0.1808  0.6835
  154SAPE   HN117085   2.785   3.722  10.973  0.2956 -0.0617  0.9912
  154SAPE   HN217086   2.909   3.626  11.025  0.4757  0.4498 -0.3348
  154SAPE   HN317087   2.829   3.590  10.882 -0.2984  0.9517  0.2488
  154SAPE   C1217088   2.709   3.549  11.066 -0.6667  0.0838 -1.0087
  154SAPE  H12A17089   2.699   3.612  11.158 -2.4985  0.0259 -1.1285
  154SAPE  H12B17090   2.744   3.446  11.084 -0.9430  0.2967  1.0649
  154SAPE   C1117091   2.572   3.529  10.997 -0.8962  0.0168  0.3178
  154SAPE  H11A17092   2.539   3.624  10.950 -4.0215 -0.8913  0.4363
  154SAPE  H11B17093   2.493   3.488  11.064  0.3464 -1.1455  1.1337
  154SAPE     P17094   2.461   3.398  10.803 -0.0511 -0.1389 -0.0537
  154SAPE   O1317095   2.392   3.291  10.875  0.0834 -0.1879  0.2770
  154SAPE   O1417096   2.371   3.510  10.776 -0.1565 -0.0547  0.3910
  154SAPE   O1217097   2.586   3.441  10.890 -0.2628  0.0298  0.4214
  154SAPE   O1117098   2.531   3.343  10.674 -0.1159 -0.1665 -0.3833
  154SAPE    C117099   2.618   3.423  10.601  0.4254 -0.4903  0.0446
  154SAPE    HA17100   2.607   3.532  10.613 -1.2176 -0.5911 -0.3085
  154SAPE    HB17101   2.718   3.391  10.638 -0.9196 -3.5812  1.4497
  154SAPE    C217102   2.612   3.420  10.449 -0.7755  0.5083  0.1381
  154SAPE    HS17103   2.694   3.477  10.399 -0.5546  1.0836  1.1210
  154SAPE   O2117104   2.484   3.450  10.404 -0.1080 -0.4002  0.5395
  154SAPE   C2117105   2.460   3.581  10.385 -0.2381 -0.0040  0.8074
  154SAPE   O2217106   2.534   3.673  10.412 -0.1835  0.6715  0.4881
  154SAPE   C2217107   2.313   3.576  10.327  0.2894  0.2642 -0.2713
  154SAPE   H2R17108   2.284   3.469  10.316 -0.4356  0.2989  1.0518
  154SAPE   H2S17109   2.236   3.614  10.398 -0.3266  2.3426 -1.9176
  154SAPE    C317110   2.650   3.271  10.399 -0.5222 -0.0326 -0.2791
  154SAPE    HX17111   2.573   3.196  10.427  1.6970 -2.0370  0.8231
  154SAPE    HY17112   2.743   3.261  10.459  0.0758  3.7315 -0.3125
  154SAPE   O3117113   2.683   3.285  10.258  1.3447  0.7015  0.3647
  154SAPE   C3117114   2.596   3.249  10.170 -0.1002 -0.3757  0.5073
  154SAPE   O3217115   2.488   3.190  10.183  0.1936 -0.0489  0.1482
  154SAPE   C3217116   2.646   3.313  10.039 -0.4070  0.1043 -0.6841
  154SAPE   H2X17117   2.749   3.277  10.018 -1.5087 -3.1059 -1.1421
  154SAPE   H2Y17118   2.650   3.424  10.045 -2.9777  0.2094  0.2589
  154SAPE   C2317119   2.288   3.638  10.188  0.0170 -0.7644 -0.0095
  154SAPE   H3R17120   2.344   3.732  10.168  3.2172 -2.9185 -2.1378
  154SAPE   H3S17121   2.180   3.661  10.177  0.3074  0.5453 -0.3107
  154SAPE   C2417122   2.344   3.547  10.072 -0.3426  0.2263  0.7621
  154SAPE   H4R17123   2.449   3.517  10.093 -0.3359  0.1106  0.5616
  154SAPE   H4S17124   2.359   3.617   9.987  0.8888  1.4503  1.9297
  154SAPE   C2517125   2.240   3.435  10.047 -0.3987  0.1266  0.7360
  154SAPE   H5R17126   2.233   3.358  10.126 -0.0309 -1.1567 -0.4451
  154SAPE   C2617127   2.154   3.424   9.950 -0.4160  0.2547  0.1564
  154SAPE   H6R17128   2.093   3.333   9.953  0.6719 -0.4735  0.7562
  154SAPE   C2717129   2.123   3.507   9.822 -0.0574  0.4373  1.0935
  154SAPE   H7R17130   2.169   3.608   9.835  2.0153 -0.3825  0.5287
  154SAPE   H7S17131   2.013   3.511   9.807  0.0918 -0.3321 -0.3653
  154SAPE   C2817132   2.162   3.448   9.689 -0.5569 -0.6890  1.0382
  154SAPE   H8R17133   2.187   3.341   9.698  1.5305 -0.4876 -1.3548
  154SAPE   C2917134   2.170   3.509   9.565  0.3993  0.3579 -0.3519
  154SAPE   H9R17135   2.218   3.456   9.481  4.2326  1.5419  0.8847
  154SAPE  C21017136   2.151   3.656   9.530  0.0175 -0.8704 -0.6051
  154SAPE  H10R17137   2.157   3.675   9.421  0.1476  1.8869 -0.2027
  154SAPE  H10S17138   2.239   3.718   9.558 -0.2669 -0.4189 -0.7014
  154SAPE  C21117139   2.015   3.707   9.586  0.3456 -0.8718 -0.5169
  154SAPE  H11R17140   1.992   3.692   9.692 -0.1347 -1.8431 -0.7513
  154SAPE  C21217141   1.935   3.789   9.520  0.0321  0.1215  0.4351
  154SAPE  H12R17142   1.846   3.832   9.568 -0.1043 -0.2936  0.5665
  154SAPE  C21317143   1.952   3.835   9.374 -0.8585  0.2776  0.5617
  154SAPE  H13R17144   1.858   3.883   9.339  0.4324  1.0070 -2.2595
  154SAPE  H13S17145   1.986   3.752   9.308 -1.2984  1.1781 -0.8401
  154SAPE  C21417146   2.042   3.955   9.360 -0.3310 -0.3120  0.1088
  154SAPE  H14R17147   2.018   4.042   9.423  1.2069  1.2665 -1.3928
  154SAPE  C21517148   2.140   3.970   9.269  0.2301 -0.3454  0.1262
  154SAPE  H15R17149   2.193   4.066   9.267 -2.4439  1.1885 -0.9688
  154SAPE  C21617150   2.184   3.871   9.169 -0.5073 -0.5008  1.1602
  154SAPE  H16R17151   2.127   3.777   9.186 -0.6943 -0.4996  0.5665
  154SAPE  H16S17152   2.290   3.842   9.185  1.3166  2.5366 -3.2854
  154SAPE  C21717153   2.160   3.913   9.028 -0.8943 -0.5850 -0.1243
  154SAPE  H17R17154   2.190   4.019   9.016 -1.4947 -0.4934 -0.9018
  154SAPE  H17S17155   2.053   3.896   9.004 -0.9531 -0.7910  0.2801
  154SAPE  C21817156   2.238   3.830   8.922  0.9531  0.1810  0.0435
  154SAPE  H18R17157   2.187   3.839   8.823  1.1384 -0.7807 -0.1517
  154SAPE  H18S17158   2.232   3.726   8.960 -0.4518  0.1690 -0.1806
  154SAPE  C21917159   2.383   3.864   8.912  0.1528  0.3041  0.3905
  154SAPE  H19R17160   2.421   3.880   9.015 -0.0312 -0.9021  0.6693
  154SAPE  H19S17161   2.389   3.968   8.875 -0.7518 -0.3586 -1.8379
  154SAPE  C22017162   2.467   3.765   8.835  0.2146  0.0288 -0.5215
  154SAPE  H20R17163   2.430   3.765   8.730 -0.2747 -3.2874 -0.4730
  154SAPE  H20S17164   2.457   3.664   8.881  1.1213  0.2805  0.2470
  154SAPE  H20T17165   2.574   3.793   8.829  0.2327 -0.1243 -1.0130
  154SAPE   C3317166   2.573   3.263   9.915  1.0005  0.2283 -0.6482
  154SAPE   H3X17167   2.485   3.325   9.890  0.4860 -0.8255 -1.5561
  154SAPE   H3Y17168   2.533   3.161   9.936 -1.3861  1.3440  0.5570
  154SAPE   C3417169   2.660   3.269   9.794 -0.3925 -0.0005  0.3444
  154SAPE   H4X17170   2.750   3.207   9.813  0.9856  1.6324 -0.6096
  154SAPE   H4Y17171   2.695   3.373   9.778  0.5788 -0.5623 -1.5139
  154SAPE   C3517172   2.593   3.209   9.664 -0.1332  0.4833  0.2298
  154SAPE   H5X17173   2.521   3.137   9.709 -1.3245  0.5507 -1.4690
  154SAPE   H5Y17174   2.669   3.147   9.612 -1.3593 -0.4745 -0.4700
  154SAPE   C3617175   2.526   3.307   9.576  0.4809  0.0243  0.0743
  154SAPE   H6X17176   2.601   3.384   9.549  0.6512  0.1541  0.8804
  154SAPE   H6Y17177   2.444   3.364   9.626 -1.0065 -1.3175 -0.7134
  154SAPE   C3717178   2.456   3.237   9.458  0.7460  0.3953 -0.1270
  154SAPE   H7X17179   2.412   3.307   9.384 -0.0913 -0.4939 -0.4853
  154SAPE   H7Y17180   2.367   3.186   9.499  1.0580  0.0648  0.1496
  154SAPE   C3817181   2.546   3.146   9.380  0.2377  0.2949 -0.3190
  154SAPE   H8X17182   2.587   3.059   9.435 -0.0781 -0.5281 -1.3535
  154SAPE   H8Y17183   2.630   3.217   9.363  0.2276  0.0387 -1.5438
  154SAPE   C3917184   2.501   3.095   9.242  0.8178 -0.0011 -0.0911
  154SAPE   H9X17185   2.436   3.177   9.204 -1.1590  0.2281  3.3607
  154SAPE   H9Y17186   2.428   3.012   9.255 -1.8448  2.2608  0.2726
  154SAPE  C31017187   2.606   3.049   9.146  0.6330  0.1495 -0.2673
  154SAPE  H10X17188   2.647   2.949   9.172  0.4646 -0.1426 -1.1165
  154SAPE  H10Y17189   2.691   3.120   9.149  1.3448 -0.7022  1.2541
  154SAPE  C31117190   2.540   3.036   9.004 -0.0282  0.6201  0.3734
  154SAPE  H11X17191   2.439   2.994   9.017 -0.2760  1.6365  2.0608
  154SAPE  H11Y17192   2.599   2.960   8.948  1.0038  1.2376  0.5882
  154SAPE  C31217193   2.529   3.163   8.922  0.2512  0.4598  0.5319
  154SAPE  H12X17194   2.623   3.217   8.901  0.4477 -0.3101 -0.6916
  154SAPE  H12Y17195   2.462   3.233   8.976 -1.6895 -2.2264  1.8925
  154SAPE  C31317196   2.462   3.132   8.787  0.6090  0.3064  0.5682
  154SAPE  H13X17197   2.418   3.227   8.749 -0.2673 -0.0193  0.7543
  154SAPE  H13Y17198   2.371   3.071   8.802  0.0435  1.0348  0.1750
  154SAPE  C31417199   2.566   3.065   8.694 -0.3777 -0.2279 -0.3399
  154SAPE  H14X17200   2.598   2.970   8.742 -2.8367  0.0573  2.1673
  154SAPE  H14Y17201   2.651   3.136   8.704 -0.5200 -0.0243 -0.5712
  154SAPE  C31517202   2.524   3.043   8.558  0.3795  0.3694 -0.4949
  154SAPE  H15X17203   2.613   2.995   8.511  1.2606  0.2329  1.2320
  154SAPE  H15Y17204   2.492   3.131   8.500 -0.4935  1.7577  1.9695
  154SAPE  C31617205   2.403   2.944   8.561 -0.0953  0.2204  0.0004
  154SAPE  H16X17206   2.382   2.916   8.456 -2.1634  2.4969 -0.2995
  154SAPE  H16Y17207   2.319   3.005   8.602 -0.3435 -0.7890  1.0307
  154SAPE  C31717208   2.418   2.814   8.645 -0.8784  0.8281 -0.9304
  154SAPE  H17X17209   2.435   2.839   8.752  1.2153 -0.8406 -0.8089
  154SAPE  H17Y17210   2.520   2.778   8.619 -0.7863  0.2419  0.1937
  154SAPE  C31817211   2.316   2.696   8.634 -0.1576  0.3781  0.8866
  154SAPE  H18X17212   2.315   2.653   8.532 -2.7790 -0.0820  1.0368
  154SAPE  H18Y17213   2.211   2.733   8.640 -0.0977  0.6813  0.2468
  154SAPE  H18Z17214   2.326   2.613   8.706 -1.0822  1.4380  2.2855
  155SAPE     N17215   5.653   0.677  10.705 -0.0309  0.2705  1.2265
  155SAPE   HN117216   5.720   0.603  10.733  2.6392  1.4664 -1.3377
  155SAPE   HN217217   5.580   0.632  10.646  1.8290 -1.4868  0.1445
  155SAPE   HN317218   5.702   0.745  10.643  2.0057 -1.7826  0.4110
  155SAPE   C1217219   5.602   0.738  10.839 -0.7607 -0.7846 -0.3197
  155SAPE  H12A17220   5.687   0.805  10.862 -1.0146 -1.7842  4.4911
  155SAPE  H12B17221   5.586   0.663  10.919 -1.6811  0.6586  0.9066
  155SAPE   C1117222   5.475   0.817  10.815 -0.5877  0.5314  0.2686
  155SAPE  H11A17223   5.444   0.862  10.913  0.8552  0.0675  0.9599
  155SAPE  H11B17224   5.397   0.740  10.796 -0.9568  1.6101 -3.3447
  155SAPE     P17225   5.518   1.068  10.752  0.0654  0.1601  0.0619
  155SAPE   O1317226   5.424   1.126  10.851 -0.4503  0.1758  0.5470
  155SAPE   O1417227   5.663   1.089  10.794  0.1409  0.0882 -0.1730
  155SAPE   O1217228   5.497   0.919  10.718 -0.3269  0.1197  0.2477
  155SAPE   O1117229   5.494   1.132  10.606 -0.1375  0.2154  0.3462
  155SAPE    C117230   5.538   1.063  10.484 -0.2504  0.1005 -0.4321
  155SAPE    HA17231   5.605   1.130  10.427 -1.7446  1.7966 -0.2662
  155SAPE    HB17232   5.601   0.975  10.511 -0.0331  0.3144 -0.2422
  155SAPE    C217233   5.418   1.019  10.398  0.0641 -0.2924  0.2600
  155SAPE    HS17234   5.357   0.937  10.442 -1.5389  1.4740  1.5382
  155SAPE   O2117235   5.454   0.985  10.265  0.2776  0.5319  0.2630
  155SAPE   C2117236   5.511   0.866  10.258 -0.4631  0.3123 -0.7152
  155SAPE   O2217237   5.529   0.790  10.354 -0.1784  0.4052 -0.1932
  155SAPE   C2217238   5.569   0.851  10.110 -0.1478  0.5896  0.1506
  155SAPE   H2R17239   5.577   0.952  10.066 -2.0121  0.8047  0.1879
  155SAPE   H2S17240   5.673   0.815  10.121  0.2865  1.9958  0.7152
  155SAPE    C317241   5.302   1.129  10.391 -0.3657  1.1940  0.9117
  155SAPE    HX17242   5.283   1.157  10.496 -0.4319  1.8472  0.7292
  155SAPE    HY17243   5.211   1.082  10.347  0.2892  1.5426 -0.9126
  155SAPE   O3117244   5.344   1.241  10.318 -0.1512 -0.2445 -0.9780
  155SAPE   C3117245   5.254   1.340  10.310  0.7900 -0.6786  0.2154
  155SAPE   O3217246   5.150   1.349  10.373  0.6333 -0.3812  0.5661
  155SAPE   C3217247   5.309   1.461  10.232  0.4844  0.0345  0.1308
  155SAPE   H2X17248   5.420   1.450  10.229  0.4249 -0.4447 -2.0417
  155SAPE   H2Y17249   5.274   1.554  10.279 -1.4123 -0.2016 -0.7271
  155SAPE   C2317250   5.490   0.748  10.018 -0.7169 -0.0569  0.5468
  155SAPE   H3R17251   5.494   0.646  10.060 -0.9536 -0.8226 -1.1945
  155SAPE   H3S17252   5.543   0.744   9.920 -0.1102  1.8832  0.7551
  155SAPE   C2417253   5.351   0.791   9.982  0.2876  0.4467  0.3807
  155SAPE   H4R17254   5.285   0.761  10.066  1.0392 -0.6400  0.6115
  155SAPE   H4S17255   5.313   0.719   9.907 -0.3304  1.6363 -0.4762
  155SAPE   C2517256   5.318   0.932   9.949  0.7774 -0.1875 -0.1730
  155SAPE   H5R17257   5.303   1.007  10.028  2.3725 -0.0149 -0.0068
  155SAPE   C2617258   5.294   0.986   9.829 -0.0319  0.4953  0.2231
  155SAPE   H6R17259   5.280   1.095   9.822 -0.7000  0.3262 -1.5364
  155SAPE   C2717260   5.304   0.914   9.695  0.5042  0.2680 -0.0989
  155SAPE   H7R17261   5.263   0.974   9.611 -2.8458 -0.6880  0.7091
  155SAPE   H7S17262   5.244   0.821   9.693  2.0573 -0.8086  0.8831
  155SAPE   C2817263   5.445   0.871   9.661 -0.1673  0.1416  0.3718
  155SAPE   H8R17264   5.527   0.885   9.733  2.1057 -0.4079 -1.9780
  155SAPE   C2917265   5.482   0.831   9.543  0.2675  0.6629  0.6753
  155SAPE   H9R17266   5.588   0.807   9.524  0.5348 -0.4361  3.1187
  155SAPE  C21017267   5.388   0.815   9.431 -0.1930  0.1596 -0.1276
  155SAPE  H10R17268   5.319   0.902   9.432  0.5938  0.7931  0.5329
  155SAPE  H10S17269   5.324   0.726   9.450  0.8630 -0.2499  1.7953
  155SAPE  C21117270   5.454   0.787   9.294  0.0060 -0.2150  0.2665
  155SAPE  H11R17271   5.517   0.697   9.293  0.3998  0.0600  0.1656
  155SAPE  C21217272   5.431   0.855   9.179 -0.4809  0.6317 -0.7485
  155SAPE  H12R17273   5.500   0.830   9.098  4.4727  0.3823  3.0465
  155SAPE  C21317274   5.352   0.980   9.171 -0.5775 -0.2429 -0.4511
  155SAPE  H13R17275   5.370   1.038   9.264 -1.4927  0.3439 -0.6235
  155SAPE  H13S17276   5.246   0.950   9.157 -0.5983  0.0582 -0.9591
  155SAPE  C21417277   5.391   1.070   9.059 -0.5880  0.3316  0.3781
  155SAPE  H14R17278   5.470   1.142   9.083  2.4276 -2.8835  1.0406
  155SAPE  C21517279   5.335   1.058   8.937  0.2555  0.7329  0.2165
  155SAPE  H15R17280   5.363   1.135   8.863 -0.1489  0.3903 -0.2962
  155SAPE  C21617281   5.234   0.954   8.888  0.0703 -0.1956 -0.8834
  155SAPE  H16R17282   5.156   0.942   8.967  1.6660  0.8054  0.9237
  155SAPE  H16S17283   5.293   0.861   8.879  0.0487 -0.1467 -1.5816
  155SAPE  C21717284   5.169   0.989   8.757  0.0058 -0.8742  0.7747
  155SAPE  H17R17285   5.109   1.082   8.764  1.5940  0.2402  0.0685
  155SAPE  H17S17286   5.105   0.904   8.725 -0.0874  0.4020 -2.9091
  155SAPE  C21817287   5.269   1.008   8.642 -0.1363  0.1393 -1.1391
  155SAPE  H18R17288   5.355   1.075   8.665  0.2811  0.1331 -2.5439
  155SAPE  H18S17289   5.228   1.061   8.553 -0.2081  1.5420 -0.3074
  155SAPE  C21917290   5.337   0.880   8.584  0.2010 -1.1921  0.6221
  155SAPE  H19R17291   5.257   0.808   8.559 -1.1028 -0.3461  2.1635
  155SAPE  H19S17292   5.391   0.834   8.670 -0.6561 -1.1181  1.2149
  155SAPE  C22017293   5.427   0.903   8.469 -0.7240 -0.9601  0.1264
  155SAPE  H20R17294   5.506   0.978   8.491  1.2323 -2.3804 -1.5735
  155SAPE  H20S17295   5.364   0.935   8.383  1.7241  0.5096 -1.2546
  155SAPE  H20T17296   5.479   0.811   8.435 -2.3857 -1.2083 -1.9335
  155SAPE   C3317297   5.241   1.462  10.089 -0.0080 -0.0887  0.2464
  155SAPE   H3X17298   5.133   1.487  10.100 -0.0195 -0.1366  0.2454
  155SAPE   H3Y17299   5.263   1.362  10.045  0.5419 -0.1243  0.5899
  155SAPE   C3417300   5.315   1.568   9.995  0.2220 -0.4048 -0.2646
  155SAPE   H4X17301   5.421   1.563  10.030  0.1041 -3.9116 -0.0732
  155SAPE   H4Y17302   5.279   1.672  10.010  0.9865 -0.1428 -0.1929
  155SAPE   C3517303   5.300   1.547   9.843 -0.3124 -0.1136 -0.4166
  155SAPE   H5X17304   5.196   1.571   9.812 -0.8835 -2.2676 -0.3014
  155SAPE   H5Y17305   5.301   1.437   9.827 -2.6370 -0.1693 -0.5065
  155SAPE   C3617306   5.394   1.624   9.755 -0.1373  0.0523  0.2442
  155SAPE   H6X17307   5.485   1.562   9.743 -0.0839 -0.3209  2.3092
  155SAPE   H6Y17308   5.423   1.722   9.799  0.5537  0.1598 -0.4201
  155SAPE   C3717309   5.350   1.657   9.617 -0.1887 -0.7243 -0.0702
  155SAPE   H7X17310   5.257   1.717   9.634 -0.8811 -1.9151  0.4397
  155SAPE   H7Y17311   5.326   1.562   9.565  0.7178 -1.7177  1.2657
  155SAPE   C3817312   5.460   1.726   9.532 -0.0008 -1.0542  0.0873
  155SAPE   H8X17313   5.556   1.676   9.557  0.5673 -0.3212 -0.5666
  155SAPE   H8Y17314   5.471   1.832   9.564 -0.4505 -1.8402  3.0983
  155SAPE   C3917315   5.439   1.700   9.382 -0.1035  0.1125 -0.1119
  155SAPE   H9X17316   5.331   1.717   9.363  0.0485  1.9725  0.4777
  155SAPE   H9Y17317   5.459   1.593   9.359 -0.0067 -0.1124  0.9756
  155SAPE  C31017318   5.504   1.798   9.290  0.2031  0.1259  0.8121
  155SAPE  H10X17319   5.614   1.791   9.300  0.0373 -2.3084  1.3257
  155SAPE  H10Y17320   5.480   1.899   9.331  1.4671  0.9403 -0.3741
  155SAPE  C31117321   5.441   1.783   9.144  0.7246 -0.1340 -0.2306
  155SAPE  H11X17322   5.334   1.812   9.150  1.1581  1.4474  0.5870
  155SAPE  H11Y17323   5.453   1.678   9.110 -1.3829 -0.3405 -0.4561
  155SAPE  C31217324   5.520   1.882   9.049  0.5022  0.6293 -0.5947
  155SAPE  H12X17325   5.574   1.963   9.103 -0.2925  1.0376 -0.3872
  155SAPE  H12Y17326   5.459   1.942   8.978 -0.2083 -1.1500 -1.5469
  155SAPE  C31317327   5.620   1.811   8.956 -0.0247  0.1286  0.4877
  155SAPE  H13X17328   5.680   1.746   9.023 -2.4770 -2.9892 -0.1187
  155SAPE  H13Y17329   5.688   1.885   8.909 -0.9839  2.1496  2.1388
  155SAPE  C31417330   5.554   1.726   8.838 -0.2743  0.2645 -0.8766
  155SAPE  H14X17331   5.498   1.790   8.766  0.9093 -0.4428 -2.4890
  155SAPE  H14Y17332   5.477   1.659   8.880 -0.9478  0.1647 -2.2238
  155SAPE  C31517333   5.652   1.648   8.752  0.0552 -0.5277 -0.1617
  155SAPE  H15X17334   5.593   1.578   8.689  1.1599 -0.7749 -0.9512
  155SAPE  H15Y17335   5.726   1.587   8.808  0.4169 -1.5658 -1.6957
  155SAPE  C31617336   5.738   1.738   8.657 -0.5884  0.5646  0.1046
  155SAPE  H16X17337   5.817   1.785   8.720 -1.4164 -0.2971  1.8549
  155SAPE  H16Y17338   5.675   1.824   8.624 -1.9933  0.0245  1.2775
  155SAPE  C31717339   5.777   1.661   8.524 -0.2862  0.3576  0.1040
  155SAPE  H17X17340   5.687   1.619   8.474  0.2478 -0.4968 -0.1428
  155SAPE  H17Y17341   5.829   1.565   8.545  0.6627  0.6097 -1.0341
  155SAPE  C31817342   5.863   1.757   8.443  0.2054  0.1459  0.3674
  155SAPE  H18X17343   5.805   1.850   8.423 -0.3576 -0.3811 -0.5068
  155SAPE  H18Y17344   5.895   1.706   8.349 -1.3008  2.2788 -1.4329
  155SAPE  H18Z17345   5.959   1.769   8.497 -0.2498  0.9304  1.0277
  156SAPE     N17346   5.261   6.015  10.344  0.2648 -0.6037 -0.5581
  156SAPE   HN117347   5.311   6.005  10.435 -0.5573  0.5597  0.0436
  156SAPE   HN217348   5.305   6.088  10.285 -1.4349  0.9075 -0.0473
  156SAPE   HN317349   5.169   6.053  10.375  0.5212 -1.1727  1.0101
  156SAPE   C1217350   5.270   5.879  10.281  0.3939 -0.1806 -0.7797
  156SAPE  H12A17351   5.367   5.871  10.228 -1.0258 -0.1355 -3.5599
  156SAPE  H12B17352   5.185   5.869  10.210  0.1812 -1.1782 -0.4092
  156SAPE   C1117353   5.273   5.767  10.394 -0.9516  0.7578  0.0628
  156SAPE  H11A17354   5.296   5.668  10.349 -0.1439  0.3332  1.3482
  156SAPE  H11B17355   5.174   5.764  10.444 -0.5921  0.3671  0.7596
  156SAPE     P17356   5.534   5.790  10.460 -0.2271  0.1333  0.1279
  156SAPE   O1317357   5.554   5.919  10.386 -0.6228  0.1112 -0.6080
  156SAPE   O1417358   5.601   5.771  10.594  0.0913  0.4271  0.9491
  156SAPE   O1217359   5.376   5.787  10.493 -0.2230  0.3222  0.3130
  156SAPE   O1117360   5.551   5.670  10.358 -0.6612 -0.1066  0.0128
  156SAPE    C117361   5.525   5.535  10.412  0.0840 -0.1162  0.0573
  156SAPE    HA17362   5.573   5.516  10.511 -1.7693 -1.7945  0.7087
  156SAPE    HB17363   5.417   5.519  10.433 -0.3415 -0.7277 -2.3561
  156SAPE    C217364   5.568   5.421  10.319 -0.3309 -0.2089  0.1706
  156SAPE    HS17365   5.677   5.420  10.295 -0.9343 -0.1082 -2.9823
  156SAPE   O2117366   5.505   5.426  10.193  0.4264 -0.0867  0.3937
  156SAPE   C2117367   5.379   5.421  10.179  0.2451  0.3707 -0.8238
  156SAPE   O2217368   5.292   5.417  10.266 -0.3143  0.2218  0.5604
  156SAPE   C2217369   5.343   5.442  10.038 -0.0838  0.0477 -0.0195
  156SAPE   H2R17370   5.232   5.434  10.031 -0.0711 -0.7285  0.5486
  156SAPE   H2S17371   5.368   5.542   9.996  0.3357 -0.5832 -1.3345
  156SAPE    C317372   5.555   5.277  10.385  0.6487  0.3436 -0.1856
  156SAPE    HX17373   5.450   5.258  10.418  1.2723  0.2349  1.8944
  156SAPE    HY17374   5.616   5.270  10.478  0.6553 -1.1585 -0.2687
  156SAPE   O3117375   5.593   5.179  10.289 -0.1088 -0.0444  0.4083
  156SAPE   C3117376   5.722   5.150  10.295  0.1535  1.1609  0.4853
  156SAPE   O3217377   5.806   5.202  10.360 -0.7726  0.2183 -0.1812
  156SAPE   C3217378   5.750   5.036  10.195  0.2841 -0.4480  0.3867
  156SAPE   H2X17379   5.756   4.938  10.246  0.9599 -0.1617  0.8743
  156SAPE   H2Y17380   5.852   5.059  10.157  0.1768 -0.1700  0.2594
  156SAPE   C2317381   5.409   5.342   9.943 -0.3093  0.0555  0.1610
  156SAPE   H3R17382   5.363   5.242   9.958  2.0940 -0.8020  2.5965
  156SAPE   H3S17383   5.518   5.339   9.964 -0.2689  1.8613  0.3462
  156SAPE   C2417384   5.394   5.381   9.795  0.1040 -0.3777  0.2207
  156SAPE   H4R17385   5.428   5.486   9.791  2.0771 -1.0091 -2.2153
  156SAPE   H4S17386   5.286   5.372   9.770 -0.0650  0.0154  0.7892
  156SAPE   C2517387   5.497   5.295   9.720  0.7537  0.6535 -0.1659
  156SAPE   H5R17388   5.476   5.187   9.724 -0.8474  0.9722  1.3542
  156SAPE   C2617389   5.609   5.331   9.665  0.1432  0.6521  0.0201
  156SAPE   H6R17390   5.663   5.249   9.615 -1.2210 -0.2262 -0.0648
  156SAPE   C2717391   5.668   5.468   9.660 -0.2485  0.2225 -0.3561
  156SAPE   H7R17392   5.691   5.496   9.765  1.1793  2.7307 -1.2546
  156SAPE   H7S17393   5.595   5.545   9.627  1.8387  2.0718 -0.9276
  156SAPE   C2817394   5.789   5.470   9.565 -0.8120 -0.0915  0.2415
  156SAPE   H8R17395   5.883   5.498   9.613  0.1057 -1.5953 -0.6052
  156SAPE   C2917396   5.797   5.452   9.431  0.1010 -0.6207  0.4045
  156SAPE   H9R17397   5.896   5.443   9.384  0.1426 -1.0781  0.5734
  156SAPE  C21017398   5.682   5.414   9.347  0.5282  0.4898  0.8248
  156SAPE  H10R17399   5.589   5.411   9.406  0.6470 -0.9523  0.9646
  156SAPE  H10S17400   5.692   5.309   9.314 -2.0210  0.9557 -1.8803
  156SAPE  C21117401   5.665   5.507   9.228  0.0803 -0.2574  0.1787
  156SAPE  H11R17402   5.691   5.610   9.255  2.7475 -1.4435  2.8498
  156SAPE  C21217403   5.630   5.473   9.099 -0.1748 -0.6757  0.1940
  156SAPE  H12R17404   5.608   5.549   9.022 -0.3867  0.5217  1.4030
  156SAPE  C21317405   5.602   5.333   9.052 -0.1045  0.0340  0.3742
  156SAPE  H13R17406   5.503   5.335   9.002 -1.2178  0.8290  2.4530
  156SAPE  H13S17407   5.600   5.261   9.137 -0.5729 -0.2720  0.1120
  156SAPE  C21417408   5.708   5.301   8.945  0.9355 -0.3693 -0.7884
  156SAPE  H14R17409   5.790   5.249   8.997 -1.4145 -2.9900  0.5585
  156SAPE  C21517410   5.700   5.305   8.809  0.3241  0.4222 -0.2420
  156SAPE  H15R17411   5.785   5.275   8.746  0.2587 -1.5047  0.5277
  156SAPE  C21617412   5.577   5.345   8.730 -0.8072 -0.0962  0.1422
  156SAPE  H16R17413   5.600   5.418   8.650  0.9177 -0.0528  0.6384
  156SAPE  H16S17414   5.511   5.405   8.795  0.9507 -0.1643  2.1058
  156SAPE  C21717415   5.510   5.219   8.674  0.7710  0.5681 -0.1488
  156SAPE  H17R17416   5.419   5.254   8.622  0.5317 -1.1319 -0.9334
  156SAPE  H17S17417   5.477   5.140   8.745  0.8274 -0.7152 -1.5086
  156SAPE  C21817418   5.594   5.144   8.576 -0.4088  0.3822  0.0601
  156SAPE  H18R17419   5.679   5.089   8.621  0.7973  2.4471  0.4389
  156SAPE  H18S17420   5.651   5.211   8.509 -0.6239  0.9967  0.4856
  156SAPE  C21917421   5.512   5.036   8.494 -0.3035 -0.5768 -0.7717
  156SAPE  H19R17422   5.425   5.085   8.446 -1.7852 -0.4323  1.8571
  156SAPE  H19S17423   5.484   4.957   8.567  0.1171  0.8650  1.0517
  156SAPE  C22017424   5.584   4.962   8.374 -0.6505 -1.2322  0.6729
  156SAPE  H20R17425   5.501   4.921   8.313  0.3464  0.9401 -2.4082
  156SAPE  H20S17426   5.648   4.882   8.418  1.0732  1.4497  3.5175
  156SAPE  H20T17427   5.651   5.030   8.317 -0.9295 -1.7736 -0.3222
  156SAPE   C3317428   5.666   5.035  10.068  0.0766 -0.6334  1.1564
  156SAPE   H3X17429   5.676   5.125  10.003  0.8455 -1.2763  0.3642
  156SAPE   H3Y17430   5.559   5.041  10.098 -0.5197 -0.6502 -0.8321
  156SAPE   C3417431   5.697   4.919   9.968 -0.3589  0.3059 -0.5417
  156SAPE   H4X17432   5.653   4.823  10.002 -2.3251 -0.2606 -4.1903
  156SAPE   H4Y17433   5.806   4.910   9.948 -0.4783  0.1368 -1.1191
  156SAPE   C3517434   5.633   4.948   9.830  0.0452 -0.2854 -0.8614
  156SAPE   H5X17435   5.674   5.043   9.790 -1.4142 -0.2017 -2.2973
  156SAPE   H5Y17436   5.525   4.969   9.847  0.7321  3.2473 -0.0135
  156SAPE   C3617437   5.648   4.838   9.728  0.3651 -0.1199  0.9560
  156SAPE   H6X17438   5.587   4.757   9.775  0.6127  0.1498  1.7513
  156SAPE   H6Y17439   5.751   4.803   9.705  1.3843  2.8859  0.5543
  156SAPE   C3717440   5.569   4.872   9.599 -1.0688 -0.1424  0.0155
  156SAPE   H7X17441   5.621   4.955   9.546 -1.6614  0.8834  0.9967
  156SAPE   H7Y17442   5.464   4.905   9.614 -1.6069 -1.8808  0.3359
  156SAPE   C3817443   5.559   4.746   9.512 -0.3186 -0.3149 -0.0030
  156SAPE   H8X17444   5.508   4.660   9.560 -1.7887 -0.7397 -2.1839
  156SAPE   H8Y17445   5.658   4.705   9.483  0.8397  3.0044 -1.2569
  156SAPE   C3917446   5.486   4.783   9.386 -0.8263  0.8638 -0.1394
  156SAPE   H9X17447   5.543   4.861   9.331  0.8886 -1.0153 -1.1706
  156SAPE   H9Y17448   5.386   4.826   9.407 -1.5427 -0.7444 -0.1576
  156SAPE  C31017449   5.466   4.658   9.294  0.6025 -0.1826  0.0522
  156SAPE  H10X17450   5.409   4.697   9.206 -1.6516 -0.3446  1.3638
  156SAPE  H10Y17451   5.409   4.577   9.344  3.3499 -0.1921  3.5967
  156SAPE  C31117452   5.601   4.616   9.222 -0.0313  0.4215 -0.7777
  156SAPE  H11X17453   5.646   4.544   9.292 -0.2052  0.1679 -0.9270
  156SAPE  H11Y17454   5.662   4.709   9.224  0.1268  0.3200 -0.8274
  156SAPE  C31217455   5.581   4.558   9.082 -0.1065  0.0613 -0.7562
  156SAPE  H12X17456   5.549   4.642   9.017 -4.2747 -0.3878  0.3790
  156SAPE  H12Y17457   5.509   4.473   9.074  1.5362 -1.3388 -1.2681
  156SAPE  C31317458   5.709   4.488   9.040 -0.2249  0.4136 -0.5262
  156SAPE  H13X17459   5.731   4.405   9.110 -0.5683 -0.1502 -1.0738
  156SAPE  H13Y17460   5.797   4.557   9.041  0.9717 -0.9604 -2.3802
  156SAPE  C31417461   5.725   4.423   8.906  0.2749 -0.6066  0.5490
  156SAPE  H14X17462   5.631   4.369   8.885 -1.5588  1.6237  2.4594
  156SAPE  H14Y17463   5.815   4.358   8.910  1.2075  0.5679 -0.4177
  156SAPE  C31517464   5.746   4.537   8.799  0.4880  0.3860 -0.2636
  156SAPE  H15X17465   5.856   4.552   8.803  0.7232 -1.2603  0.2936
  156SAPE  H15Y17466   5.681   4.625   8.814 -3.5200 -1.7677 -3.2226
  156SAPE  C31617467   5.730   4.484   8.660  0.3853  0.8118  0.7801
  156SAPE  H16X17468   5.642   4.417   8.653  1.1676 -0.0809 -1.2153
  156SAPE  H16Y17469   5.815   4.418   8.633 -0.9774 -0.6711 -0.0336
  156SAPE  C31717470   5.712   4.604   8.556 -0.1351  0.7771  0.0213
  156SAPE  H17X17471   5.615   4.656   8.568 -0.4512 -0.1605  1.9049
  156SAPE  H17Y17472   5.717   4.561   8.453  0.5959 -1.7527  1.0160
  156SAPE  C31817473   5.828   4.707   8.571  0.6864  0.2859  0.5667
  156SAPE  H18X17474   5.817   4.757   8.669 -1.8691  0.6806  0.1438
  156SAPE  H18Y17475   5.823   4.782   8.489 -2.6516  1.4087  1.6552
  156SAPE  H18Z17476   5.923   4.648   8.575  0.1399 -0.9018 -1.7543
  157SAPE     N17477   3.929   6.034  11.193  0.4444  0.3356 -0.7088
  157SAPE   HN117478   3.987   6.074  11.116  1.5567  0.0917 -0.0223
  157SAPE   HN217479   3.993   6.043  11.274  0.1401 -0.5196 -0.3648
  157SAPE   HN317480   3.916   5.932  11.174 -1.8702  0.4681 -0.1083
  157SAPE   C1217481   3.809   6.131  11.209  0.1776  1.0084  0.1304
  157SAPE  H12A17482   3.843   6.235  11.227 -0.0565  1.1868 -0.4342
  157SAPE  H12B17483   3.763   6.096  11.304 -0.6025 -0.3166 -0.6943
  157SAPE   C1117484   3.716   6.132  11.086 -0.5503 -0.1946  0.4610
  157SAPE  H11A17485   3.638   6.204  11.119  1.3280  0.9992  2.5751
  157SAPE  H11B17486   3.669   6.036  11.055 -4.0462  1.4983  0.0924
  157SAPE     P17487   3.849   6.101  10.864  0.0496  0.1465 -0.1698
  157SAPE   O1317488   3.975   6.171  10.832 -0.8584  0.1268  0.5112
  157SAPE   O1417489   3.860   5.960  10.912 -0.2352 -0.8461  0.0060
  157SAPE   O1217490   3.782   6.185  10.976  0.4660 -0.3557 -0.0866
  157SAPE   O1117491   3.741   6.117  10.755 -0.2990 -0.0218  0.5443
  157SAPE    C117492   3.636   6.217  10.762  0.2962 -0.4904 -0.2668
  157SAPE    HA17493   3.539   6.179  10.802 -1.7667  1.0209 -3.4142
  157SAPE    HB17494   3.666   6.316  10.804 -2.4705  1.3644 -2.3282
  157SAPE    C217495   3.579   6.249  10.620 -0.4373 -0.1434  0.0546
  157SAPE    HS17496   3.502   6.328  10.639 -0.4499  0.3958 -1.9775
  157SAPE   O2117497   3.511   6.138  10.560  0.3563  0.0068 -0.1080
  157SAPE   C2117498   3.406   6.171  10.479  0.3176  0.0865  0.0447
  157SAPE   O2217499   3.349   6.280  10.471  0.1572 -0.2011  0.4182
  157SAPE   C2217500   3.364   6.050  10.391  0.3315  0.2119 -0.5086
  157SAPE   H2R17501   3.462   6.023  10.345  0.7030  1.6394 -0.5943
  157SAPE   H2S17502   3.323   5.968  10.453  1.9661 -1.0090 -0.9499
  157SAPE    C317503   3.692   6.297  10.525 -0.3158 -0.8132  0.1134
  157SAPE    HX17504   3.739   6.203  10.487  0.1427 -0.6390  0.2485
  157SAPE    HY17505   3.766   6.352  10.587  1.5021 -2.8189 -0.1390
  157SAPE   O3117506   3.637   6.370  10.420  0.5533 -0.2030  0.6824
  157SAPE   C3117507   3.590   6.490  10.458  0.6227  0.1116 -0.3486
  157SAPE   O3217508   3.628   6.553  10.554  0.1323 -0.5450 -0.5478
  157SAPE   C3217509   3.504   6.544  10.354  0.2626  0.1092 -0.0870
  157SAPE   H2X17510   3.548   6.642  10.326  1.9312 -1.1103 -1.9774
  157SAPE   H2Y17511   3.405   6.545  10.405 -0.2465 -0.4615 -1.0346
  157SAPE   C2317512   3.275   6.083  10.270  0.7484  1.6913  0.5952
  157SAPE   H3R17513   3.321   6.134  10.183 -0.5462  1.2673 -0.3811
  157SAPE   H3S17514   3.184   6.139  10.298 -3.8927 -2.8651 -3.1840
  157SAPE   C2417515   3.221   5.941  10.218 -0.4258  0.2597 -0.0427
  157SAPE   H4R17516   3.176   5.882  10.301  0.9582 -0.1376  0.4492
  157SAPE   H4S17517   3.312   5.891  10.178 -0.2760  1.0229 -0.6808
  157SAPE   C2517518   3.116   5.948  10.109 -0.3976  0.0953 -0.9167
  157SAPE   H5R17519   3.013   5.938  10.148 -0.8041 -0.3258 -2.0391
  157SAPE   C2617520   3.143   5.962   9.975  0.1144 -0.1662  0.1148
  157SAPE   H6R17521   3.056   5.982   9.911  0.2850  3.1137  0.7316
  157SAPE   C2717522   3.279   5.970   9.909 -0.4353  0.2943  0.5816
  157SAPE   H7R17523   3.361   5.950   9.981 -1.8426 -0.1200  2.1403
  157SAPE   H7S17524   3.285   6.076   9.875 -0.9263 -0.4805 -2.2163
  157SAPE   C2817525   3.290   5.878   9.785  0.3447  0.5903 -0.2970
  157SAPE   H8R17526   3.310   5.773   9.812 -1.0296  0.3336 -0.2037
  157SAPE   C2917527   3.266   5.908   9.653 -0.4028 -0.7365 -1.3709
  157SAPE   H9R17528   3.288   5.830   9.579  2.2410 -1.3487 -0.0622
  157SAPE  C21017529   3.229   6.036   9.585  0.7361 -1.1126 -0.2624
  157SAPE  H10R17530   3.208   6.119   9.655  0.1045 -0.1726 -1.5165
  157SAPE  H10S17531   3.135   6.032   9.525 -0.3671 -1.7894  1.4289
  157SAPE  C21117532   3.339   6.083   9.494  0.7667  0.1178 -0.8873
  157SAPE  H11R17533   3.428   6.129   9.541 -0.4691  1.9859 -0.2624
  157SAPE  C21217534   3.339   6.064   9.366 -0.1700  0.5506  0.3753
  157SAPE  H12R17535   3.431   6.101   9.318  0.4876 -1.8817 -0.3526
  157SAPE  C21317536   3.237   5.998   9.276 -0.3975  0.6607 -0.0446
  157SAPE  H13R17537   3.145   6.058   9.263 -1.0432 -0.1768  0.5389
  157SAPE  H13S17538   3.218   5.901   9.328  0.0695  0.5691 -0.0329
  157SAPE  C21417539   3.285   5.977   9.134  0.1834  0.3227 -0.5666
  157SAPE  H14R17540   3.379   6.030   9.112  0.2208  0.1143 -0.9136
  157SAPE  C21517541   3.213   5.920   9.036  0.3598  0.3834  0.6352
  157SAPE  H15R17542   3.259   5.911   8.936 -1.8917  1.0976 -0.5263
  157SAPE  C21617543   3.079   5.847   9.043 -0.3507 -0.1090 -0.3814
  157SAPE  H16R17544   3.064   5.828   9.152  5.2641  1.2843  0.9582
  157SAPE  H16S17545   3.103   5.754   8.987  2.2549 -1.1065  2.0901
  157SAPE  C21717546   2.952   5.913   8.985  0.0029 -0.5636  0.2542
  157SAPE  H17R17547   2.926   6.008   9.036  1.4298 -0.1349  0.2198
  157SAPE  H17S17548   2.867   5.843   8.997 -0.1634 -0.5441 -0.7250
  157SAPE  C21817549   2.964   5.935   8.836  0.1132  0.2250  0.2627
  157SAPE  H18R17550   2.993   5.838   8.789  0.8334  0.3410  0.4472
  157SAPE  H18S17551   3.042   6.013   8.823 -1.1661  1.5408  0.2786
  157SAPE  C21917552   2.837   5.979   8.756 -0.3631 -0.0827 -1.0424
  157SAPE  H19R17553   2.779   6.063   8.800 -0.1554  0.5255 -1.9031
  157SAPE  H19S17554   2.762   5.899   8.746 -1.0035  0.3419  0.1978
  157SAPE  C22017555   2.883   6.040   8.618  0.3782  0.4966  0.0076
  157SAPE  H20R17556   2.807   6.026   8.538  1.9357 -0.6743 -1.3191
  157SAPE  H20S17557   2.971   5.984   8.582 -0.7951 -4.2990  3.6211
  157SAPE  H20T17558   2.912   6.148   8.617 -0.3986  0.7126 -0.9120
  157SAPE   C3317559   3.494   6.460  10.228 -0.7375  0.3447 -0.6524
  157SAPE   H3X17560   3.502   6.352  10.254  0.9717 -0.1906 -3.0543
  157SAPE   H3Y17561   3.582   6.482  10.164 -0.3611  0.5835 -0.0629
  157SAPE   C3417562   3.371   6.504  10.148 -0.4508 -0.1090 -0.2038
  157SAPE   H4X17563   3.389   6.609  10.118  1.9380 -0.7356 -1.1477
  157SAPE   H4Y17564   3.288   6.505  10.222  2.0827  0.3462  2.8658
  157SAPE   C3517565   3.340   6.414  10.029  0.2628  0.1364 -0.6181
  157SAPE   H5X17566   3.232   6.389  10.023  0.7466 -1.7691 -3.5317
  157SAPE   H5Y17567   3.395   6.319  10.040 -1.5607 -0.7742  1.3213
  157SAPE   C3617568   3.372   6.497   9.895  0.1370  0.1134 -0.6208
  157SAPE   H6X17569   3.472   6.542   9.908 -1.6019  3.6711  2.1152
  157SAPE   H6Y17570   3.307   6.587   9.904  0.3205  0.2674 -0.8307
  157SAPE   C3717571   3.373   6.412   9.769 -0.5535  0.1649 -0.0020
  157SAPE   H7X17572   3.282   6.349   9.762 -0.5864  0.0676  1.0559
  157SAPE   H7Y17573   3.454   6.336   9.781 -0.8808 -0.0988  0.5909
  157SAPE   C3817574   3.395   6.487   9.633  0.3452  0.0662  0.3794
  157SAPE   H8X17575   3.396   6.426   9.541  3.3020 -0.3341  0.5869
  157SAPE   H8Y17576   3.498   6.524   9.651  0.4700  0.6274 -1.3558
  157SAPE   C3917577   3.293   6.598   9.615  0.0519  0.3557 -0.8314
  157SAPE   H9X17578   3.316   6.670   9.697  0.1017 -2.8188  2.1692
  157SAPE   H9Y17579   3.187   6.565   9.620  0.7147 -1.9281 -0.7264
  157SAPE  C31017580   3.308   6.672   9.479 -0.0147  0.5577  0.5964
  157SAPE  H10X17581   3.273   6.614   9.392 -0.5438 -0.0198  1.1844
  157SAPE  H10Y17582   3.418   6.680   9.462 -0.3623  0.7111 -1.9420
  157SAPE  C31117583   3.257   6.812   9.485 -1.2554 -0.1074 -0.5584
  157SAPE  H11X17584   3.176   6.826   9.560 -0.4743  1.5959  0.0258
  157SAPE  H11Y17585   3.208   6.846   9.391 -1.8066  0.6707 -0.0051
  157SAPE  C31217586   3.349   6.922   9.505 -0.5807  0.2351 -1.0345
  157SAPE  H12X17587   3.285   7.013   9.494 -0.3422  0.4782 -0.4393
  157SAPE  H12Y17588   3.421   6.919   9.420  0.2438 -0.1307 -0.3345
  157SAPE  C31317589   3.420   6.932   9.646  0.9068  0.0103  0.0710
  157SAPE  H13X17590   3.501   7.007   9.635  0.8808  0.3412  1.8617
  157SAPE  H13Y17591   3.451   6.827   9.667 -1.5107 -0.8788 -0.4557
  157SAPE  C31417592   3.331   6.963   9.761 -0.3046 -0.3813 -0.3576
  157SAPE  H14X17593   3.242   6.897   9.769 -1.8056  1.7272  2.7316
  157SAPE  H14Y17594   3.286   7.065   9.758  1.2545  0.3120 -0.9205
  157SAPE  C31517595   3.408   6.945   9.889 -0.5292 -0.0805 -0.1498
  157SAPE  H15X17596   3.492   7.018   9.894 -1.1209  0.6089 -0.1805
  157SAPE  H15Y17597   3.446   6.841   9.904 -1.8038 -0.3893  1.1239
  157SAPE  C31617598   3.321   6.991  10.015 -0.2471  0.5238 -0.5808
  157SAPE  H16X17599   3.240   6.916  10.022  0.1626  0.1782  0.6104
  157SAPE  H16Y17600   3.291   7.096   9.998 -0.2294  0.9304  1.6376
  157SAPE  C31717601   3.389   6.979  10.151  0.3017 -0.5070 -0.6431
  157SAPE  H17X17602   3.487   7.029  10.137  0.2239  0.0232  0.5740
  157SAPE  H17Y17603   3.404   6.871  10.172  1.3799 -0.2980 -0.3137
  157SAPE  C31817604   3.314   7.059  10.262 -0.1234  0.7926 -0.5370
  157SAPE  H18X17605   3.310   7.168  10.242 -0.7423  1.3524  2.3004
  157SAPE  H18Y17606   3.367   7.056  10.360 -0.9677  3.4613  0.0608
  157SAPE  H18Z17607   3.214   7.018  10.285  1.2931 -1.1719  2.9425
  158SAPE     N17608   6.278   6.009  10.906  0.4641 -0.2593 -0.0404
  158SAPE   HN117609   6.317   6.067  10.830 -1.2753 -0.7572 -1.3784
  158SAPE   HN217610   6.306   6.057  10.994  2.0310 -0.1039 -0.6052
  158SAPE   HN317611   6.328   5.918  10.908  2.5221  0.7837 -1.5132
  158SAPE   C1217612   6.134   5.998  10.898 -0.0879  0.1124  0.2039
  158SAPE  H12A17613   6.086   6.098  10.907  1.7401  0.9823  0.5902
  158SAPE  H12B17614   6.110   5.925  10.979  2.4798 -0.2594  0.7127
  158SAPE   C1117615   6.077   5.950  10.760  0.1060  0.2784 -0.7168
  158SAPE  H11A17616   6.088   6.038  10.693  0.7854  0.8562  0.1304
  158SAPE  H11B17617   5.974   5.920  10.789  0.4574 -2.6026 -2.0632
  158SAPE     P17618   6.205   5.817  10.572 -0.1960 -0.3566  0.4058
  158SAPE   O1317619   6.348   5.856  10.577  0.6000  0.1010 -0.3150
  158SAPE   O1417620   6.175   5.681  10.532  0.0799 -0.1010 -0.1545
  158SAPE   O1217621   6.150   5.834  10.719 -0.2885 -0.0801 -0.4757
  158SAPE   O1117622   6.123   5.916  10.488 -0.1417  0.0141 -0.1185
  158SAPE    C117623   5.979   5.905  10.464  0.0756  0.3209  0.6682
  158SAPE    HA17624   5.932   5.818  10.515  0.3342  0.4375  1.1219
  158SAPE    HB17625   5.920   5.979  10.521  0.1494 -0.5288  1.8956
  158SAPE    C217626   5.939   5.887  10.317 -0.3563  1.4666  0.5485
  158SAPE    HS17627   5.837   5.927  10.302 -1.8997 -1.3956  2.5702
  158SAPE   O2117628   5.941   5.749  10.289  0.2862  0.3554 -0.5477
  158SAPE   C2117629   5.874   5.707  10.181 -0.1684  0.1671 -0.7534
  158SAPE   O2217630   5.804   5.781  10.119 -0.2708  0.0987  0.1960
  158SAPE   C2217631   5.902   5.558  10.152  0.1370  0.1251 -0.7699
  158SAPE   H2R17632   5.979   5.522  10.224  1.4582  1.2656 -1.5556
  158SAPE   H2S17633   5.802   5.512  10.166 -0.4381  1.8989  1.6256
  158SAPE    C317634   6.040   5.963  10.222 -0.2097  0.4657  0.1468
  158SAPE    HX17635   6.137   5.908  10.221 -1.0763 -1.1805 -2.3300
  158SAPE    HY17636   6.071   6.059  10.268  1.3563  0.8666 -1.6265
  158SAPE   O3117637   6.000   5.977  10.082 -0.0260  0.4232 -0.0790
  158SAPE   C3117638   5.918   6.086  10.067 -0.9081  0.5052 -0.0079
  158SAPE   O3217639   5.881   6.160  10.153 -0.1641  0.6635 -0.0473
  158SAPE   C3217640   5.849   6.052   9.935  0.0110 -0.0690  0.1437
  158SAPE   H2X17641   5.806   6.145   9.892  1.8452  0.9657  0.4525
  158SAPE   H2Y17642   5.768   5.981   9.963 -1.2888  0.8676 -1.0941
  158SAPE   C2317643   5.961   5.535  10.013  0.1460 -0.0101  0.2762
  158SAPE   H3R17644   6.069   5.556   9.999  0.0002  0.2992 -0.4002
  158SAPE   H3S17645   5.900   5.594   9.942 -1.5167 -1.9792 -0.0225
  158SAPE   C2417646   5.925   5.381   9.980 -0.4904 -0.5535 -0.4417
  158SAPE   H4R17647   5.929   5.389   9.870  1.7122  1.4954 -0.3054
  158SAPE   H4S17648   5.822   5.357  10.016 -0.1243 -2.0694 -0.3504
  158SAPE   C2517649   6.019   5.277  10.039  0.0222 -1.1002 -0.9179
  158SAPE   H5R17650   6.055   5.302  10.140 -0.9637  0.0006 -0.8260
  158SAPE   C2617651   6.079   5.171   9.977  0.1149 -0.5712 -0.3209
  158SAPE   H6R17652   6.139   5.104  10.040  1.5895 -0.4365 -1.5265
  158SAPE   C2717653   6.071   5.136   9.836  0.0384 -0.3022  0.3832
  158SAPE   H7R17654   5.994   5.200   9.787  2.0484  1.6919 -0.3539
  158SAPE   H7S17655   6.021   5.038   9.820 -0.4590 -0.2568  1.5013
  158SAPE   C2817656   6.210   5.143   9.777  0.3022  0.6426  0.2590
  158SAPE   H8R17657   6.251   5.043   9.753  2.3218  1.0698  1.6673
  158SAPE   C2917658   6.293   5.250   9.753 -0.3293  0.5101  0.0050
  158SAPE   H9R17659   6.384   5.226   9.695 -0.6606  0.8182 -0.6522
  158SAPE  C21017660   6.275   5.396   9.779  0.0513 -0.2332  0.5378
  158SAPE  H10R17661   6.289   5.407   9.889  2.5919 -0.9882  0.3698
  158SAPE  H10S17662   6.170   5.425   9.760 -0.0786 -1.3426 -0.6268
  158SAPE  C21117663   6.363   5.489   9.700  0.1851 -0.0448  0.5573
  158SAPE  H11R17664   6.453   5.531   9.748  0.5966 -0.3308  0.0547
  158SAPE  C21217665   6.322   5.544   9.581  0.3493  0.3446  0.3206
  158SAPE  H12R17666   6.380   5.618   9.525 -0.7105  0.4770 -0.6566
  158SAPE  C21317667   6.186   5.507   9.522 -0.1328  0.2597 -0.8757
  158SAPE  H13R17668   6.153   5.594   9.461  2.9273  3.0639  1.1405
  158SAPE  H13S17669   6.101   5.513   9.592 -0.4835  1.7891 -1.4058
  158SAPE  C21417670   6.190   5.387   9.433  0.7682 -0.0155 -0.2143
  158SAPE  H14R17671   6.199   5.295   9.493 -1.6533 -0.0524  0.1979
  158SAPE  C21517672   6.192   5.378   9.301 -0.5327  0.3482  0.1497
  158SAPE  H15R17673   6.192   5.277   9.257 -0.3146  0.1906  0.5072
  158SAPE  C21617674   6.193   5.500   9.203 -0.8026  0.6941 -0.2476
  158SAPE  H16R17675   6.276   5.479   9.132  0.4092  2.0083  0.7079
  158SAPE  H16S17676   6.222   5.587   9.266 -1.1847 -0.9170  2.3098
  158SAPE  C21717677   6.056   5.533   9.143  0.2959  0.2638  0.1029
  158SAPE  H17R17678   5.982   5.563   9.220 -2.2255 -1.8217 -1.3528
  158SAPE  H17S17679   6.017   5.445   9.088 -0.2190  0.2877  0.4325
  158SAPE  C21817680   6.049   5.656   9.051 -0.4870 -0.1041 -0.0212
  158SAPE  H18R17681   6.107   5.628   8.960  0.0017 -0.1180  0.2894
  158SAPE  H18S17682   6.098   5.745   9.096 -1.0049  0.2107 -0.0738
  158SAPE  C21917683   5.904   5.686   9.019 -0.0735 -1.2535 -0.6283
  158SAPE  H19R17684   5.848   5.698   9.114 -0.2144 -3.0920 -0.4455
  158SAPE  H19S17685   5.869   5.600   8.959  2.0921 -1.1303 -2.2126
  158SAPE  C22017686   5.885   5.807   8.932  0.5087 -0.1047 -0.2799
  158SAPE  H20R17687   5.917   5.784   8.828 -0.3689 -1.3900 -0.2871
  158SAPE  H20S17688   5.943   5.896   8.965  1.9583 -0.2038 -2.3546
  158SAPE  H20T17689   5.775   5.824   8.923  0.6515  0.3355 -1.3883
  158SAPE   C3317690   5.931   5.984   9.824 -0.4475  0.3164  0.5285
  158SAPE   H3X17691   5.915   5.874   9.824 -0.1930  0.2467 -1.5282
  158SAPE   H3Y17692   6.039   6.007   9.834 -0.5205  1.3984 -0.8710
  158SAPE   C3417693   5.872   6.025   9.686  0.2725 -0.5854 -0.4259
  158SAPE   H4X17694   5.766   6.056   9.698  0.2181 -0.7671 -0.4358
  158SAPE   H4Y17695   5.875   5.934   9.622  0.4804 -0.0954 -1.1166
  158SAPE   C3517696   5.954   6.142   9.617 -0.0058  0.0391  0.2329
  158SAPE   H5X17697   6.057   6.109   9.594 -0.1085 -0.9821  1.1572
  158SAPE   H5Y17698   5.957   6.234   9.678 -1.9025  0.4975 -0.2823
  158SAPE   C3617699   5.874   6.190   9.504  0.1477  0.7270  1.2328
  158SAPE   H6X17700   5.775   6.228   9.538 -0.2928 -0.2353  1.0779
  158SAPE   H6Y17701   5.850   6.103   9.439  1.2247  1.5327 -0.2869
  158SAPE   C3717702   5.942   6.295   9.410  0.4623  0.2939 -0.5835
  158SAPE   H7X17703   6.046   6.258   9.397 -0.5851 -3.2107 -0.0607
  158SAPE   H7Y17704   5.943   6.390   9.467  0.4584 -0.8560  1.4296
  158SAPE   C3817705   5.873   6.315   9.275  0.3544  1.7010 -0.4897
  158SAPE   H8X17706   5.768   6.338   9.299 -0.5975 -0.1686 -2.4847
  158SAPE   H8Y17707   5.886   6.215   9.228  0.5651  1.9079 -0.8816
  158SAPE   C3917708   5.923   6.430   9.185 -0.3854 -0.6382 -0.0949
  158SAPE   H9X17709   5.894   6.528   9.228  1.0932 -0.1031 -0.2466
  158SAPE   H9Y17710   5.859   6.434   9.094  0.5906 -1.4048 -0.8247
  158SAPE  C31017711   6.075   6.430   9.155 -0.1145  0.6127  0.6203
  158SAPE  H10X17712   6.122   6.370   9.236 -1.3033  1.9805  2.4078
  158SAPE  H10Y17713   6.115   6.533   9.166  0.6350  0.2521  1.4448
  158SAPE  C31117714   6.095   6.364   9.017 -0.0603  0.4583 -0.0047
  158SAPE  H11X17715   6.038   6.269   9.006  1.4029 -0.5124  0.5729
  158SAPE  H11Y17716   6.199   6.324   9.014 -0.3484 -0.2595 -1.2645
  158SAPE  C31217717   6.072   6.458   8.900 -0.8362 -0.2946  0.1041
  158SAPE  H12X17718   6.131   6.550   8.920 -0.2598 -0.3926 -1.0670
  158SAPE  H12Y17719   5.966   6.487   8.884 -1.5985 -3.1177 -0.4920
  158SAPE  C31317720   6.115   6.392   8.763  0.3273 -0.4769 -1.0558
  158SAPE  H13X17721   6.072   6.289   8.759  1.0679 -0.8437 -0.0023
  158SAPE  H13Y17722   6.223   6.366   8.763  0.5482  0.3833  0.0587
  158SAPE  C31417723   6.081   6.473   8.639 -0.7126 -0.4365  0.3250
  158SAPE  H14X17724   5.983   6.521   8.656 -0.9784  0.2662 -2.6182
  158SAPE  H14Y17725   6.067   6.408   8.550 -1.9761  0.9362 -0.5235
  158SAPE  C31517726   6.181   6.587   8.622 -0.0662  0.4748 -0.1577
  158SAPE  H15X17727   6.277   6.547   8.582 -0.1770  0.9707 -0.9243
  158SAPE  H15Y17728   6.197   6.616   8.728  0.5974  0.0888 -0.1460
  158SAPE  C31617729   6.129   6.703   8.530  0.8381 -0.0628  0.3206
  158SAPE  H16X17730   6.143   6.801   8.581  1.1465  1.6456 -2.8362
  158SAPE  H16Y17731   6.020   6.682   8.517  0.5537  1.1508  0.6073
  158SAPE  C31717732   6.212   6.727   8.400 -0.1364  0.8014 -0.0935
  158SAPE  H17X17733   6.317   6.749   8.428 -0.5123  1.6877  0.6991
  158SAPE  H17Y17734   6.183   6.821   8.348  2.5504  0.5711 -2.2502
  158SAPE  C31817735   6.208   6.615   8.288 -0.5888  0.0781  0.1155
  158SAPE  H18X17736   6.112   6.608   8.233 -0.4463  0.4714 -0.1841
  158SAPE  H18Y17737   6.229   6.521   8.344 -0.4374 -0.0276 -0.1212
  158SAPE  H18Z17738   6.281   6.642   8.210 -1.9564  2.0900 -0.5470
  159SAPE     N17739   0.654   5.000   6.360 -0.7181  0.6758 -0.2237
  159SAPE   HN117740   0.722   5.068   6.399  1.1810 -1.8475  1.1775
  159SAPE   HN217741   0.681   4.910   6.404  0.3305 -0.2577 -2.5970
  159SAPE   HN317742   0.673   4.992   6.258 -2.6874 -0.3966 -0.5520
  159SAPE   C1217743   0.508   5.037   6.374 -0.3151  0.5238  0.0847
  159SAPE  H12A17744   0.461   5.007   6.279  0.2916  0.1148 -0.0935
  159SAPE  H12B17745   0.493   5.147   6.375 -3.2551  0.2402  2.4558
  159SAPE   C1117746   0.452   4.974   6.506 -0.4691 -0.1565 -0.3338
  159SAPE  H11A17747   0.342   4.990   6.509 -0.5966 -0.7579 -1.2440
  159SAPE  H11B17748   0.493   5.028   6.593 -0.5150 -1.0818  0.2783
  159SAPE     P17749   0.379   4.721   6.527  0.1581  0.0512  0.4752
  159SAPE   O1317750   0.310   4.727   6.392 -0.0409  0.2814  0.2723
  159SAPE   O1417751   0.437   4.586   6.557  0.0501 -0.2770 -0.0578
  159SAPE   O1217752   0.490   4.838   6.529 -0.2108  0.8744  0.3365
  159SAPE   O1117753   0.271   4.774   6.637  0.4440  0.7649 -0.2561
  159SAPE    C117754   0.310   4.819   6.765 -1.0896  0.7498  0.1719
  159SAPE    HA17755   0.369   4.912   6.744  2.1296 -1.4562 -1.4328
  159SAPE    HB17756   0.220   4.840   6.827 -2.6436 -1.4157 -1.2291
  159SAPE    C217757   0.403   4.720   6.859  0.5697 -0.1828 -0.0043
  159SAPE    HS17758   0.502   4.710   6.811  0.4094 -2.4838  0.0366
  159SAPE   O2117759   0.331   4.595   6.862 -0.5247  0.7599 -0.1953
  159SAPE   C2117760   0.380   4.489   6.911  1.2294  0.3694  0.3040
  159SAPE   O2217761   0.484   4.480   6.970  0.0760  0.7899 -0.1427
  159SAPE   C2217762   0.295   4.368   6.882 -0.2077 -0.3664  0.0272
  159SAPE   H2R17763   0.228   4.393   6.796 -0.7788  0.3629  0.6752
  159SAPE   H2S17764   0.377   4.297   6.859 -0.2740 -0.1956 -0.7762
  159SAPE    C317765   0.420   4.787   6.993  0.2585  0.1593  0.1114
  159SAPE    HX17766   0.500   4.732   7.047  0.8760 -1.4946 -2.3184
  159SAPE    HY17767   0.334   4.790   7.064  1.6047  1.8441  1.7711
  159SAPE   O3117768   0.488   4.915   6.970 -0.5634 -0.0259  0.2942
  159SAPE   C3117769   0.424   5.022   7.025  0.0231  0.9561  0.2182
  159SAPE   O3217770   0.315   5.026   7.068  0.1212 -0.4169  0.3741
  159SAPE   C3217771   0.526   5.136   7.025 -0.4379 -0.0989  0.6236
  159SAPE   H2X17772   0.587   5.139   6.933  2.9743  1.6761  2.7518
  159SAPE   H2Y17773   0.598   5.114   7.107  1.2547  0.7742 -0.5892
  159SAPE   C2317774   0.221   4.301   7.001 -0.0913 -0.0491  0.0560
  159SAPE   H3R17775   0.284   4.331   7.087  0.1782  1.6339 -0.6882
  159SAPE   H3S17776   0.215   4.191   6.989  0.0099 -0.2300  1.5135
  159SAPE   C2417777   0.088   4.368   7.014  0.4632 -0.4245 -0.7260
  159SAPE   H4R17778   0.033   4.322   7.099 -0.1635  0.5617 -0.5768
  159SAPE   H4S17779   0.026   4.346   6.925 -2.8742  0.2414  1.2519
  159SAPE   C2517780   0.084   4.518   7.033  0.1822  0.8795 -0.4255
  159SAPE   H5R17781   0.008   4.554   6.961 -1.5922 -2.2147 -0.2996
  159SAPE   C2617782   0.134   4.596   7.124  0.0622  0.0006  0.0836
  159SAPE   H6R17783   0.120   4.705   7.117  2.4399  0.3189 -0.7818
  159SAPE   C2717784   0.218   4.549   7.234 -0.6410  0.1787 -0.2527
  159SAPE   H7R17785   0.326   4.547   7.210  0.0927 -0.2094  2.7012
  159SAPE   H7S17786   0.189   4.442   7.248 -2.0913  0.4427 -1.0571
  159SAPE   C2817787   0.192   4.629   7.360 -0.4070  0.1529  0.0027
  159SAPE   H8R17788   0.092   4.669   7.380  0.1990  0.7945  2.0224
  159SAPE   C2917789   0.280   4.688   7.437  0.1122 -0.4145 -0.9519
  159SAPE   H9R17790   0.236   4.751   7.515 -1.0438 -2.6684  0.3083
  159SAPE  C21017791   0.433   4.693   7.428  0.2515  0.2045  0.1397
  159SAPE  H10R17792   0.468   4.731   7.330  0.0197 -0.6758 -0.2988
  159SAPE  H10S17793   0.469   4.588   7.437 -1.9504 -0.4509  2.2803
  159SAPE  C21117794   0.488   4.771   7.540 -0.3749  0.2860 -0.7244
  159SAPE  H11R17795   0.419   4.819   7.611  0.5119  0.9802 -0.3045
  159SAPE  C21217796   0.619   4.775   7.560  0.2806 -0.0681  0.8431
  159SAPE  H12R17797   0.662   4.829   7.646  0.7687 -0.4042  0.8129
  159SAPE  C21317798   0.730   4.719   7.469 -0.2280  0.3222  0.5823
  159SAPE  H13R17799   0.817   4.787   7.477 -1.8059  2.9677 -2.3673
  159SAPE  H13S17800   0.711   4.741   7.361 -0.4398 -0.2664  0.4897
  159SAPE  C21417801   0.753   4.569   7.502  0.1281 -0.3931  0.4112
  159SAPE  H14R17802   0.689   4.493   7.455  1.1939 -0.8339 -0.3522
  159SAPE  C21517803   0.851   4.521   7.576  0.3095  0.4599 -0.0649
  159SAPE  H15R17804   0.851   4.415   7.603 -0.1007  0.5368  0.2529
  159SAPE  C21617805   0.963   4.594   7.646  0.5363 -1.1936  0.0888
  159SAPE  H16R17806   0.953   4.705   7.646 -1.6003 -1.3555  0.1498
  159SAPE  H16S17807   1.054   4.579   7.584  2.0702  3.3322  0.8768
  159SAPE  C21717808   1.000   4.534   7.782  0.6956  1.3118  0.5325
  159SAPE  H17R17809   1.105   4.568   7.799  0.8761  0.9794  0.1145
  159SAPE  H17S17810   1.010   4.426   7.756 -3.4812  0.9415 -0.1534
  159SAPE  C21817811   0.894   4.554   7.890 -0.0648 -0.0089  0.3036
  159SAPE  H18R17812   0.791   4.547   7.848 -1.6768  1.9107  3.5445
  159SAPE  H18S17813   0.899   4.653   7.939  0.3488  0.0420  0.1547
  159SAPE  C21917814   0.897   4.461   8.010  0.6091 -0.2509  0.6904
  159SAPE  H19R17815   0.897   4.357   7.972  0.2846  0.1248 -0.3807
  159SAPE  H19S17816   0.801   4.478   8.063  0.3329  0.0721  0.1047
  159SAPE  C22017817   1.035   4.486   8.079  0.2574 -0.2463 -0.0266
  159SAPE  H20R17818   1.021   4.575   8.143 -1.7081 -0.0266 -0.6867
  159SAPE  H20S17819   1.111   4.495   7.998 -2.2838 -0.4766 -2.6271
  159SAPE  H20T17820   1.058   4.401   8.147 -1.3967 -0.5140  0.2555
  159SAPE   C3317821   0.469   5.281   7.050 -0.2271  0.1881  0.5221
  159SAPE   H3X17822   0.426   5.317   6.955  1.0831 -0.1431 -0.2255
  159SAPE   H3Y17823   0.552   5.353   7.067 -2.6301  2.8339  1.7666
  159SAPE   C3417824   0.378   5.296   7.172  0.3209  0.5641  0.9582
  159SAPE   H4X17825   0.271   5.271   7.156  0.4284 -0.5748  1.8803
  159SAPE   H4Y17826   0.380   5.406   7.188  0.2273  0.9116 -1.2032
  159SAPE   C3517827   0.432   5.231   7.306 -0.1061 -0.1954 -0.0338
  159SAPE   H5X17828   0.456   5.123   7.293 -1.7563 -0.5401 -0.4096
  159SAPE   H5Y17829   0.356   5.234   7.386 -0.6275 -0.8099 -0.4985
  159SAPE   C3617830   0.560   5.284   7.367  0.4560  0.1581 -0.3411
  159SAPE   H6X17831   0.566   5.392   7.388 -0.3501  0.0383  0.5491
  159SAPE   H6Y17832   0.636   5.275   7.286  1.2625  2.2196  0.1485
  159SAPE   C3717833   0.610   5.197   7.494  0.3532 -1.4108  0.6267
  159SAPE   H7X17834   0.711   5.235   7.522 -0.8887  1.6111  1.4957
  159SAPE   H7Y17835   0.619   5.092   7.462 -0.6147 -1.6317  1.0486
  159SAPE   C3817836   0.520   5.221   7.610 -0.2418  0.7610  0.0199
  159SAPE   H8X17837   0.424   5.170   7.584  0.2537  0.6740 -1.7737
  159SAPE   H8Y17838   0.507   5.325   7.647  1.5006  1.5570 -1.4597
  159SAPE   C3917839   0.563   5.143   7.734 -0.1628  0.1285 -0.1331
  159SAPE   H9X17840   0.617   5.212   7.801  2.0642 -1.9026  0.3331
  159SAPE   H9Y17841   0.630   5.060   7.701  0.9323  1.8373 -2.4742
  159SAPE  C31017842   0.434   5.083   7.802  0.5813 -0.5175 -0.6360
  159SAPE  H10X17843   0.386   5.011   7.733  0.5205 -0.7535 -0.3508
  159SAPE  H10Y17844   0.367   5.169   7.822  0.2808 -0.7865 -0.4633
  159SAPE  C31117845   0.471   5.005   7.934  0.2547  0.2107 -1.2848
  159SAPE  H11X17846   0.554   5.061   7.981 -1.3582  1.0783  0.6661
  159SAPE  H11Y17847   0.501   4.898   7.927 -3.0335 -1.2435  2.6637
  159SAPE  C31217848   0.359   5.015   8.039 -0.5217  0.1056 -0.5472
  159SAPE  H12X17849   0.261   4.993   7.991 -1.2452 -0.6837  1.2157
  159SAPE  H12Y17850   0.347   5.122   8.068  1.5827 -0.0905  1.2166
  159SAPE  C31317851   0.385   4.922   8.161  0.0413  0.0580  0.1623
  159SAPE  H13X17852   0.416   4.822   8.121  0.5129 -0.8032  2.5326
  159SAPE  H13Y17853   0.299   4.928   8.231  0.6231  0.3984  0.8613
  159SAPE  C31417854   0.493   4.975   8.256 -0.3421  0.2443  0.4527
  159SAPE  H14X17855   0.469   5.077   8.294  0.3742  0.4054  0.4985
  159SAPE  H14Y17856   0.591   4.988   8.207 -1.1633  3.3577 -0.5468
  159SAPE  C31517857   0.508   4.890   8.388 -0.9485 -0.2516 -0.5056
  159SAPE  H15X17858   0.597   4.923   8.447 -1.8784  2.6058 -0.5542
  159SAPE  H15Y17859   0.512   4.784   8.357 -5.5318 -0.9572  0.6335
  159SAPE  C31617860   0.388   4.909   8.487 -0.0112 -0.1012  1.0834
  159SAPE  H16X17861   0.331   5.000   8.457 -0.5069 -0.3250  1.3255
  159SAPE  H16Y17862   0.414   4.945   8.589 -0.9967 -1.5999  1.9018
  159SAPE  C31717863   0.305   4.782   8.492 -0.6401 -0.1158  0.1079
  159SAPE  H17X17864   0.358   4.710   8.557 -0.3292  0.7384  0.8171
  159SAPE  H17Y17865   0.287   4.735   8.393 -0.7409 -1.0205  0.5487
  159SAPE  C31817866   0.168   4.801   8.550  0.5726 -0.1776  0.4047
  159SAPE  H18X17867   0.177   4.862   8.642 -0.8572  1.1726 -0.3024
  159SAPE  H18Y17868   0.106   4.714   8.579 -0.6040  0.7353  0.7115
  159SAPE  H18Z17869   0.119   4.852   8.464  2.0124 -1.3811 -1.2270
  160SAPE     N17870   6.509   6.305   6.497  0.5072  0.0351 -0.2411
  160SAPE   HN117871   6.543   6.403   6.502  0.4548  0.1333 -1.4787
  160SAPE   HN217872   6.585   6.246   6.536  0.1427  0.4149  1.1006
  160SAPE   HN317873   6.481   6.283   6.399 -0.9345 -1.2593  0.4188
  160SAPE   C1217874   6.381   6.296   6.575  0.4506  0.5514 -0.4417
  160SAPE  H12A17875   6.397   6.358   6.666 -2.3241  2.0400 -0.8650
  160SAPE  H12B17876   6.355   6.191   6.603 -1.1457  1.5014  1.9493
  160SAPE   C1117877   6.251   6.352   6.509 -1.0816 -0.0956  0.6526
  160SAPE  H11A17878   6.187   6.375   6.596 -1.1268 -0.9790  0.8666
  160SAPE  H11B17879   6.200   6.272   6.451  0.5563 -2.2804  2.0700
  160SAPE     P17880   6.164   6.564   6.385 -0.0235  0.2962 -0.2361
  160SAPE   O1317881   6.231   6.677   6.320 -0.1736 -0.3065  0.0422
  160SAPE   O1417882   6.081   6.483   6.293  0.8156  0.0321  0.1238
  160SAPE   O1217883   6.279   6.471   6.441 -0.6088  0.3966  0.3836
  160SAPE   O1117884   6.083   6.608   6.517 -0.1424  0.7632 -0.0301
  160SAPE    C117885   6.062   6.739   6.553  0.2344 -0.4363  0.6302
  160SAPE    HA17886   6.064   6.799   6.460 -2.0744  0.1899  0.9325
  160SAPE    HB17887   5.958   6.746   6.591 -0.0793 -2.7499  0.3783
  160SAPE    C217888   6.152   6.793   6.671 -0.5511  0.8599  0.0258
  160SAPE    HS17889   6.253   6.810   6.628 -0.2639 -0.9761 -0.0934
  160SAPE   O2117890   6.145   6.693   6.782  0.4681 -0.1445 -0.1226
  160SAPE   C2117891   6.248   6.610   6.785  0.3188 -0.0948  0.2127
  160SAPE   O2217892   6.346   6.606   6.715  0.5403 -0.9097  0.2761
  160SAPE   C2217893   6.222   6.501   6.896  0.8601 -0.7221  0.1689
  160SAPE   H2R17894   6.121   6.514   6.939  1.7013  0.3905  1.9783
  160SAPE   H2S17895   6.232   6.408   6.837 -1.7288 -0.7663 -0.2868
  160SAPE    C317896   6.079   6.926   6.721 -1.0040 -0.2092  0.5477
  160SAPE    HX17897   5.980   6.890   6.758 -1.1765 -1.0334 -0.6701
  160SAPE    HY17898   6.070   6.996   6.635 -1.5418  0.5864  1.2355
  160SAPE   O3117899   6.140   6.991   6.834  0.1417 -0.2109  0.6239
  160SAPE   C3117900   6.240   7.077   6.820 -0.0472 -0.2482  0.0082
  160SAPE   O3217901   6.289   7.118   6.720  0.2417 -0.7715  0.4039
  160SAPE   C3217902   6.270   7.131   6.961 -0.0599  0.0487 -0.0488
  160SAPE   H2X17903   6.345   7.061   7.004 -0.4435 -0.8035 -0.7381
  160SAPE   H2Y17904   6.170   7.137   7.009 -0.6378 -0.3433 -1.1719
  160SAPE   C2317905   6.330   6.498   7.008 -0.3471  0.5857 -0.1736
  160SAPE   H3R17906   6.428   6.512   6.958 -0.9642 -0.9230 -1.9057
  160SAPE   H3S17907   6.318   6.406   7.070 -2.9477  1.0953  0.1868
  160SAPE   C2417908   6.319   6.614   7.105 -0.3966 -0.0637 -0.6766
  160SAPE   H4R17909   6.297   6.705   7.046 -2.2697  0.1357  0.2492
  160SAPE   H4S17910   6.420   6.619   7.150 -0.5639  0.3029 -0.3309
  160SAPE   C2517911   6.212   6.590   7.212 -0.2510 -0.5755  0.8773
  160SAPE   H5R17912   6.115   6.560   7.171  0.7864 -1.6610 -0.9228
  160SAPE   C2617913   6.218   6.602   7.344  0.1502  0.4111 -0.1818
  160SAPE   H6R17914   6.123   6.593   7.400  0.5735  0.3824  0.5465
  160SAPE   C2717915   6.336   6.658   7.431  0.0450  0.7029  0.5085
  160SAPE   H7R17916   6.303   6.729   7.509  1.2834  1.1252  0.6800
  160SAPE   H7S17917   6.404   6.704   7.356 -0.6299 -1.2323 -1.4018
  160SAPE   C2817918   6.432   6.553   7.485 -0.0645  0.3865 -0.4259
  160SAPE   H8R17919   6.470   6.478   7.415 -0.6242 -1.8977  1.5721
  160SAPE   C2917920   6.483   6.548   7.613  0.0308 -0.2450  0.4995
  160SAPE   H9R17921   6.542   6.461   7.646  1.6067  0.5321 -0.1656
  160SAPE  C21017922   6.460   6.654   7.719 -0.8577  0.6298  0.4107
  160SAPE  H10R17923   6.422   6.746   7.668 -0.5750  0.7148  0.3534
  160SAPE  H10S17924   6.560   6.681   7.759 -0.6538  0.8675 -0.2350
  160SAPE  C21117925   6.357   6.615   7.820 -0.5644 -0.1402 -0.3165
  160SAPE  H11R17926   6.386   6.519   7.864  3.1675  0.6700 -0.7229
  160SAPE  C21217927   6.251   6.688   7.851 -0.8810  0.2110 -0.0988
  160SAPE  H12R17928   6.197   6.642   7.935  0.2072 -1.6608 -0.3754
  160SAPE  C21317929   6.195   6.821   7.791 -0.3537  0.4126  0.5607
  160SAPE  H13R17930   6.147   6.796   7.694 -2.7276 -0.8106  1.9546
  160SAPE  H13S17931   6.284   6.884   7.773 -0.5407  0.8407  1.0751
  160SAPE  C21417932   6.108   6.918   7.873  0.3169  0.1193  0.2832
  160SAPE  H14R17933   6.165   7.009   7.894  0.2441  0.3124 -0.3458
  160SAPE  C21517934   5.973   6.915   7.900  0.0144 -0.0167 -0.0743
  160SAPE  H15R17935   5.934   6.994   7.965  2.4628  0.0392  1.4879
  160SAPE  C21617936   5.884   6.798   7.867 -0.3115  0.3942 -0.2172
  160SAPE  H16R17937   5.852   6.744   7.958  1.8025  0.8665  0.8703
  160SAPE  H16S17938   5.937   6.723   7.804 -1.0126  0.6279 -1.1044
  160SAPE  C21717939   5.751   6.842   7.788  0.2671 -0.0752  0.6785
  160SAPE  H17R17940   5.726   6.935   7.844  0.4239  1.0688 -1.0551
  160SAPE  H17S17941   5.668   6.768   7.786 -1.5585  1.8903 -0.3025
  160SAPE  C21817942   5.769   6.884   7.642  0.2794 -0.3448  0.2663
  160SAPE  H18R17943   5.831   6.977   7.642  1.4462 -1.0949  0.3644
  160SAPE  H18S17944   5.678   6.928   7.596  1.2851  0.5453 -0.9530
  160SAPE  C21917945   5.817   6.780   7.545 -0.2740  0.2463 -0.3740
  160SAPE  H19R17946   5.915   6.742   7.579 -0.8225 -0.0392  0.9363
  160SAPE  H19S17947   5.833   6.827   7.445 -1.8000 -0.1233 -0.8217
  160SAPE  C22017948   5.721   6.662   7.528 -0.1257  0.1500  0.3109
  160SAPE  H20R17949   5.753   6.589   7.451 -0.3200  0.9171 -0.5147
  160SAPE  H20S17950   5.621   6.700   7.498 -0.0582  0.7015  0.7680
  160SAPE  H20T17951   5.720   6.610   7.626  1.6552  0.7121  0.6731
  160SAPE   C3317952   6.333   7.271   6.960  0.3026 -0.0539  0.3519
  160SAPE   H3X17953   6.261   7.343   6.915 -0.0759 -1.2619 -1.0675
  160SAPE   H3Y17954   6.421   7.271   6.892  0.1231  2.4683  0.0422
  160SAPE   C3417955   6.362   7.312   7.103 -0.3057 -0.1652  0.6014
  160SAPE   H4X17956   6.448   7.256   7.144  2.2211  1.5455 -1.9742
  160SAPE   H4Y17957   6.266   7.289   7.154 -0.0074 -0.0132  1.2477
  160SAPE   C3517958   6.400   7.461   7.112 -0.1473 -0.5056  0.0381
  160SAPE   H5X17959   6.319   7.505   7.051 -0.4403 -1.3505 -0.1894
  160SAPE   H5Y17960   6.497   7.468   7.058 -0.3209 -1.6980 -0.4378
  160SAPE   C3617961   6.413   7.516   7.260 -0.2352  0.2059  0.4419
  160SAPE   H6X17962   6.414   7.626   7.240 -2.7186  0.2465  0.1675
  160SAPE   H6Y17963   6.519   7.493   7.285  0.1216 -0.1556 -1.2887
  160SAPE   C3717964   6.302   7.486   7.362 -0.3638  0.7942  1.0602
  160SAPE   H7X17965   6.310   7.378   7.388 -0.8410  0.1066 -1.4456
  160SAPE   H7Y17966   6.200   7.507   7.324 -0.0481 -0.2240 -0.3970
  160SAPE   C3817967   6.333   7.567   7.483  0.0903 -0.1939 -0.4473
  160SAPE   H8X17968   6.238   7.579   7.539 -0.6843 -2.1160 -1.2278
  160SAPE   H8Y17969   6.365   7.671   7.461 -0.7957  0.2000  0.0603
  160SAPE   C3917970   6.439   7.504   7.565 -0.3019 -0.0184 -0.3895
  160SAPE   H9X17971   6.544   7.529   7.538 -0.6376 -0.0216 -1.7548
  160SAPE   H9Y17972   6.425   7.394   7.560  2.5028 -0.4121 -1.6884
  160SAPE  C31017973   6.431   7.551   7.710  0.3715 -0.0230 -0.4492
  160SAPE  H10X17974   6.333   7.517   7.750  0.1664 -0.1073 -1.0083
  160SAPE  H10Y17975   6.435   7.661   7.719  1.6230 -0.2220  2.7425
  160SAPE  C31117976   6.534   7.506   7.813  0.7357  0.4314 -0.8477
  160SAPE  H11X17977   6.638   7.540   7.795  0.4678  2.1692  0.6378
  160SAPE  H11Y17978   6.542   7.395   7.810  0.2385  0.3758 -0.1458
  160SAPE  C31217979   6.501   7.541   7.957 -0.0232  0.4212  0.5522
  160SAPE  H12X17980   6.415   7.480   7.993  0.9432 -1.0854  0.3889
  160SAPE  H12Y17981   6.470   7.647   7.961 -1.3702  0.2070 -2.1280
  160SAPE  C31317982   6.617   7.530   8.053  0.6074 -0.3805  0.3664
  160SAPE  H13X17983   6.716   7.535   8.002  0.7207 -3.6503  0.0708
  160SAPE  H13Y17984   6.615   7.433   8.108  0.3329 -0.0454  0.9579
  160SAPE  C31417985   6.612   7.636   8.164 -0.2516  0.3154  0.2580
  160SAPE  H14X17986   6.612   7.744   8.141  0.3547  0.2932  0.1351
  160SAPE  H14Y17987   6.702   7.619   8.226 -0.4612  0.5583  0.6261
  160SAPE  C31517988   6.497   7.610   8.260 -0.2737  0.5172  0.9398
  160SAPE  H15X17989   6.477   7.502   8.274 -2.5446  0.6360 -0.7125
  160SAPE  H15Y17990   6.412   7.658   8.206  1.0282  0.4221 -1.3043
  160SAPE  C31617991   6.515   7.667   8.396 -0.6028 -0.5625  0.3199
  160SAPE  H16X17992   6.522   7.777   8.380 -2.0224 -0.7701 -2.3002
  160SAPE  H16Y17993   6.610   7.637   8.445 -0.5309 -0.3504  0.3145
  160SAPE  C31717994   6.406   7.637   8.502  0.1265  0.4416 -0.5134
  160SAPE  H17X17995   6.375   7.530   8.494  1.6911  0.0599 -1.9678
  160SAPE  H17Y17996   6.318   7.699   8.472 -0.2436  0.0860 -0.1802
  160SAPE  C31817997   6.454   7.682   8.637  0.1541 -0.4718 -0.1183
  160SAPE  H18X17998   6.516   7.601   8.680  0.3565 -0.3460 -0.1718
  160SAPE  H18Y17999   6.365   7.692   8.703  0.1550 -0.4919 -0.1144
  160SAPE  H18Z18000   6.500   7.783   8.630 -0.9779  0.0686 -0.1364
  161SAPE     N18001   3.295   2.595   6.479  0.1011 -0.0045  0.8342
  161SAPE   HN118002   3.296   2.662   6.559  0.7504  1.9025 -0.7057
  161SAPE   HN218003   3.227   2.517   6.493 -1.2291  1.1103  0.8477
  161SAPE   HN318004   3.390   2.554   6.479  0.7597  1.3216  3.3405
  161SAPE   C1218005   3.279   2.658   6.347  0.4706 -0.7085  0.0847
  161SAPE  H12A18006   3.227   2.582   6.284 -2.2543  0.6380  0.5748
  161SAPE  H12B18007   3.375   2.684   6.298 -0.3884 -0.2811 -1.4473
  161SAPE   C1118008   3.184   2.781   6.347  0.3306 -0.5165 -0.3256
  161SAPE  H11A18009   3.080   2.749   6.367  0.2301 -0.1400 -0.2430
  161SAPE  H11B18010   3.174   2.805   6.239 -0.5989 -1.6249 -0.5094
  161SAPE     P18011   3.291   3.020   6.391 -0.3188 -0.1334  0.2795
  161SAPE   O1318012   3.281   3.044   6.247  0.5708 -0.1714  0.1547
  161SAPE   O1418013   3.251   3.132   6.478 -0.0949 -0.6072 -0.3900
  161SAPE   O1218014   3.229   2.881   6.437  0.3172  0.6867 -0.2858
  161SAPE   O1118015   3.446   3.004   6.417  0.8213  0.8691  0.0682
  161SAPE    C118016   3.506   2.903   6.494  0.1892 -0.2377  0.3398
  161SAPE    HA18017   3.467   2.802   6.470 -1.3364  0.0973  1.2941
  161SAPE    HB18018   3.612   2.898   6.462 -0.6361 -2.2805 -2.5278
  161SAPE    C218019   3.510   2.954   6.642  0.3584 -0.0748 -0.4578
  161SAPE    HS18020   3.566   2.879   6.701  0.2123 -0.1417 -0.4041
  161SAPE   O2118021   3.376   2.969   6.695 -0.3524  0.5397  0.4595
  161SAPE   C2118022   3.302   2.861   6.711  0.8568  1.1676  0.6316
  161SAPE   O2218023   3.337   2.747   6.682  0.2957  0.2984 -0.3469
  161SAPE   C2218024   3.161   2.908   6.749 -0.5762 -0.2675  0.2928
  161SAPE   H2R18025   3.167   2.978   6.835  0.3924  0.4245 -0.3110
  161SAPE   H2S18026   3.125   2.971   6.664 -0.3017 -1.5309 -0.7892
  161SAPE    C318027   3.593   3.088   6.659  0.4535  0.4032 -0.0581
  161SAPE    HX18028   3.529   3.165   6.611 -1.4077  0.2169  2.0182
  161SAPE    HY18029   3.678   3.051   6.597 -0.9257 -2.8323 -0.2039
  161SAPE   O3118030   3.630   3.110   6.798  0.2469 -0.5811  0.2118
  161SAPE   C3118031   3.563   3.203   6.859 -0.6380  0.1415 -0.5126
  161SAPE   O3218032   3.499   3.293   6.810 -0.1823  0.2885 -0.0310
  161SAPE   C3218033   3.597   3.181   7.004  0.2798  0.0176 -0.3577
  161SAPE   H2X18034   3.700   3.216   7.027 -0.1170  1.0920 -0.1494
  161SAPE   H2Y18035   3.599   3.075   7.037  0.7188  0.4735  1.1914
  161SAPE   C2318036   3.073   2.785   6.774  0.7155  0.5018 -0.2699
  161SAPE   H3R18037   3.080   2.706   6.696  0.6587  0.5032 -0.2763
  161SAPE   H3S18038   2.967   2.817   6.761  0.6578  0.0281 -1.0414
  161SAPE   C2418039   3.083   2.729   6.922  0.1362  0.6029 -0.1612
  161SAPE   H4R18040   2.991   2.671   6.943  1.0291 -0.4370  1.0681
  161SAPE   H4S18041   3.069   2.817   6.988  0.8104  1.4761 -1.1572
  161SAPE   C2518042   3.201   2.654   6.975 -0.1615  0.4600  0.8222
  161SAPE   H5R18043   3.270   2.619   6.897  1.1729  0.6732  1.8601
  161SAPE   C2618044   3.235   2.636   7.105  0.4113  0.0240 -0.0148
  161SAPE   H6R18045   3.322   2.571   7.124  1.4338  1.2054 -0.4983
  161SAPE   C2718046   3.158   2.673   7.226  0.6946 -0.2543  0.3064
  161SAPE   H7R18047   3.062   2.722   7.198  1.2683  1.3768  1.0567
  161SAPE   H7S18048   3.188   2.757   7.293  0.0864 -0.0930  0.3795
  161SAPE   C2818049   3.124   2.558   7.307  0.2984 -0.0268  0.6350
  161SAPE   H8R18050   3.091   2.467   7.255 -0.4645  0.1903  0.7335
  161SAPE   C2918051   3.112   2.541   7.439  0.2265  0.1319 -0.2161
  161SAPE   H9R18052   3.069   2.444   7.469  1.4317 -1.1386 -2.2988
  161SAPE  C21018053   3.144   2.647   7.544 -0.4552  0.0861  0.1072
  161SAPE  H10R18054   3.059   2.653   7.615 -0.8555 -0.4586 -0.3188
  161SAPE  H10S18055   3.176   2.742   7.497  1.2311  0.2037  1.3929
  161SAPE  C21118056   3.266   2.615   7.621 -0.3435 -0.0189 -1.3478
  161SAPE  H11R18057   3.337   2.555   7.562  1.4589  2.0033 -1.3713
  161SAPE  C21218058   3.297   2.657   7.749  0.7082 -0.1983 -0.2529
  161SAPE  H12R18059   3.396   2.631   7.790 -0.3060 -2.2524  1.0896
  161SAPE  C21318060   3.195   2.733   7.831 -0.5129  0.6303 -0.6238
  161SAPE  H13R18061   3.129   2.657   7.878  0.3147 -0.5690 -1.3266
  161SAPE  H13S18062   3.118   2.798   7.786 -0.1575  2.4364  1.1958
  161SAPE  C21418063   3.277   2.809   7.934  0.0149 -0.0393 -0.4367
  161SAPE  H14R18064   3.347   2.881   7.890  0.9530 -1.1008 -0.7568
  161SAPE  C21518065   3.284   2.785   8.068 -0.2352 -0.0635  0.8546
  161SAPE  H15R18066   3.344   2.848   8.135 -1.2856  1.5112  0.3678
  161SAPE  C21618067   3.212   2.678   8.144  0.6425  0.3440 -0.0484
  161SAPE  H16R18068   3.276   2.623   8.215 -2.2748 -2.6118  0.5795
  161SAPE  H16S18069   3.165   2.597   8.083  0.1152 -0.2350  1.0906
  161SAPE  C21718070   3.099   2.741   8.225  0.4775  0.0705 -0.5681
  161SAPE  H17R18071   3.020   2.779   8.157  0.5505  0.9196 -0.1918
  161SAPE  H17S18072   3.138   2.824   8.288 -1.0639  0.3515  0.0410
  161SAPE  C21818073   3.036   2.644   8.322  0.2320 -0.6175 -0.4697
  161SAPE  H18R18074   3.103   2.604   8.402 -0.2817  0.1250  0.3519
  161SAPE  H18S18075   3.017   2.558   8.255  0.6716 -0.6142 -0.6043
  161SAPE  C21918076   2.902   2.689   8.379  0.2396  0.2279  0.3509
  161SAPE  H19R18077   2.856   2.589   8.397  0.7016  0.0551  0.5791
  161SAPE  H19S18078   2.844   2.735   8.296 -0.6441 -1.5420 -0.0743
  161SAPE  C22018079   2.908   2.770   8.507 -0.4629  0.6764  0.3542
  161SAPE  H20R18080   2.987   2.849   8.499  1.2117 -0.8502  1.1410
  161SAPE  H20S18081   2.930   2.712   8.599 -1.3550 -1.5726 -0.7849
  161SAPE  H20T18082   2.810   2.820   8.519 -0.5683  0.3946  0.6731
  161SAPE   C3318083   3.508   3.260   7.098  0.2935 -0.4691  0.1657
  161SAPE   H3X18084   3.402   3.228   7.088 -0.1890  1.7090 -3.3297
  161SAPE   H3Y18085   3.514   3.366   7.066 -0.5378 -0.1384  1.0773
  161SAPE   C3418086   3.560   3.250   7.244 -0.4421 -0.2801  0.0269
  161SAPE   H4X18087   3.554   3.143   7.272  0.7025  0.0541  1.6839
  161SAPE   H4Y18088   3.495   3.310   7.312  0.3709 -0.7773  1.2880
  161SAPE   C3518089   3.700   3.295   7.256  0.7043 -0.5998 -0.7529
  161SAPE   H5X18090   3.716   3.383   7.191 -0.2345  0.7244  0.7155
  161SAPE   H5Y18091   3.772   3.215   7.232  0.1998 -0.9580 -1.0979
  161SAPE   C3618092   3.731   3.353   7.398 -0.9252 -0.6189  0.5186
  161SAPE   H6X18093   3.651   3.424   7.427 -0.0326  0.7683 -0.2709
  161SAPE   H6Y18094   3.828   3.407   7.393 -1.7205  0.9231  1.0807
  161SAPE   C3718095   3.751   3.241   7.497  0.6832  0.7215 -0.3452
  161SAPE   H7X18096   3.817   3.160   7.458  0.6119  1.0581 -1.1925
  161SAPE   H7Y18097   3.654   3.202   7.536  0.4106  3.0577  1.5055
  161SAPE   C3818098   3.809   3.280   7.634 -0.3883  0.2412 -0.9544
  161SAPE   H8X18099   3.740   3.357   7.677 -2.6214 -1.2629 -1.6579
  161SAPE   H8Y18100   3.904   3.335   7.619 -1.0552  2.0869  0.9770
  161SAPE   C3918101   3.822   3.162   7.735  0.3583  0.1374 -0.9236
  161SAPE   H9X18102   3.888   3.083   7.693  1.5288  0.0150  1.0035
  161SAPE   H9Y18103   3.719   3.128   7.757 -0.0713  1.5841 -0.5333
  161SAPE  C31018104   3.866   3.199   7.874 -0.2368 -0.6404  0.0794
  161SAPE  H10X18105   3.844   3.308   7.885 -0.3391 -0.6267 -0.2532
  161SAPE  H10Y18106   3.977   3.200   7.881 -0.2661 -1.4216  0.8648
  161SAPE  C31118107   3.804   3.117   7.984 -0.2671 -0.1153  0.2426
  161SAPE  H11X18108   3.834   3.012   7.964  2.0526  0.8189 -1.6422
  161SAPE  H11Y18109   3.693   3.104   7.982 -0.0932 -2.0713  1.1416
  161SAPE  C31218110   3.834   3.158   8.131 -0.0966 -0.2258 -0.1911
  161SAPE  H12X18111   3.943   3.155   8.151 -0.2111  1.6089  0.8984
  161SAPE  H12Y18112   3.793   3.072   8.188  0.9372  0.9817  2.5192
  161SAPE  C31318113   3.777   3.297   8.163  0.0334 -0.3982 -0.1522
  161SAPE  H13X18114   3.668   3.310   8.149 -0.0923 -1.4984 -0.3007
  161SAPE  H13Y18115   3.832   3.362   8.091 -1.2564 -0.8119 -1.5763
  161SAPE  C31418116   3.822   3.355   8.301 -0.0013  0.0785  0.6023
  161SAPE  H14X18117   3.787   3.460   8.300  2.6951  1.0533  0.1067
  161SAPE  H14Y18118   3.933   3.366   8.296  0.0266 -0.3045  0.3898
  161SAPE  C31518119   3.784   3.283   8.431 -0.2285 -0.5932 -0.1889
  161SAPE  H15X18120   3.820   3.179   8.419  0.0541 -0.3389 -1.8465
  161SAPE  H15Y18121   3.676   3.272   8.451 -0.3309  0.1091 -0.3433
  161SAPE  C31618122   3.869   3.336   8.548  0.3649  0.3419  0.2682
  161SAPE  H16X18123   3.811   3.416   8.599  0.4905 -0.6137  1.9874
  161SAPE  H16Y18124   3.956   3.383   8.497 -2.0555  2.2358 -2.4560
  161SAPE  C31718125   3.908   3.223   8.649  0.5701  0.5036 -0.2327
  161SAPE  H17X18126   3.966   3.280   8.724  1.5393 -1.3812  0.4973
  161SAPE  H17Y18127   3.973   3.144   8.606 -0.2140  0.3819 -1.2437
  161SAPE  C31818128   3.790   3.162   8.725  0.5793 -0.7245  0.3519
  161SAPE  H18X18129   3.721   3.117   8.651  0.3954 -0.2164  0.2147
  161SAPE  H18Y18130   3.729   3.234   8.784 -0.3962 -0.6791 -0.6656
  161SAPE  H18Z18131   3.835   3.085   8.791 -1.2949 -0.2547  2.2802
  162SAPE     N18132   6.213   1.127   6.414 -0.4952 -0.0900  1.0724
  162SAPE   HN118133   6.238   1.215   6.465 -1.0439  0.4904  0.3636
  162SAPE   HN218134   6.121   1.158   6.377  0.7684  1.6211 -0.8541
  162SAPE   HN318135   6.201   1.040   6.470  1.9814 -2.3717 -1.6498
  162SAPE   C1218136   6.296   1.115   6.288  0.2552 -0.0434  0.1800
  162SAPE  H12A18137   6.256   1.040   6.217  0.5067 -0.6083  0.6328
  162SAPE  H12B18138   6.397   1.085   6.324 -0.4150 -1.3597  1.0469
  162SAPE   C1118139   6.302   1.261   6.234  0.0101  0.0398  0.0382
  162SAPE  H11A18140   6.201   1.301   6.215 -0.2095 -0.9234 -0.9588
  162SAPE  H11B18141   6.350   1.254   6.134  0.0295  0.4315  0.0207
  162SAPE     P18142   6.471   1.465   6.287 -0.3508 -0.3759  0.1996
  162SAPE   O1318143   6.573   1.417   6.186 -0.5893 -0.1071 -0.6232
  162SAPE   O1418144   6.397   1.589   6.252 -0.4389 -0.2875  0.0752
  162SAPE   O1218145   6.376   1.337   6.329 -0.1339  0.1013 -0.1156
  162SAPE   O1118146   6.550   1.501   6.419 -0.0081 -0.2066 -0.4461
  162SAPE    C118147   6.522   1.442   6.546 -0.4755  0.2778  0.6518
  162SAPE    HA18148   6.575   1.501   6.624  0.0736 -0.5033  0.8901
  162SAPE    HB18149   6.413   1.449   6.563 -0.5630  1.0801 -0.1643
  162SAPE    C218150   6.588   1.302   6.567  0.1017  0.7144  0.5042
  162SAPE    HS18151   6.550   1.235   6.487  1.3760  0.5301  0.0455
  162SAPE   O2118152   6.565   1.257   6.701 -0.0606  0.1068  0.1246
  162SAPE   C2118153   6.449   1.213   6.724  0.4963 -1.0083 -0.3183
  162SAPE   O2218154   6.353   1.204   6.650 -0.1933  0.4455 -0.3631
  162SAPE   C2218155   6.460   1.151   6.866 -0.5723 -0.1202  0.3275
  162SAPE   H2R18156   6.531   1.066   6.869 -0.1734  0.2265  1.9580
  162SAPE   H2S18157   6.503   1.230   6.931 -1.9541 -0.4090  1.6467
  162SAPE    C318158   6.740   1.305   6.539 -0.0900 -0.1957  0.0896
  162SAPE    HX18159   6.762   1.351   6.440  1.9225 -3.6045 -1.2370
  162SAPE    HY18160   6.775   1.200   6.527 -2.3182 -0.8523 -1.3156
  162SAPE   O3118161   6.815   1.387   6.629  0.2978 -0.2660  0.1047
  162SAPE   C3118162   6.875   1.330   6.730 -0.6791 -0.3862 -0.0064
  162SAPE   O3218163   6.889   1.211   6.748 -0.0020 -0.1458  0.0493
  162SAPE   C3218164   6.925   1.447   6.815 -0.2209  0.1698 -0.1141
  162SAPE   H2X18165   6.840   1.518   6.824 -0.0831  0.0371  3.1012
  162SAPE   H2Y18166   7.003   1.487   6.747 -1.9668  3.8433 -0.1635
  162SAPE   C2318167   6.325   1.109   6.932  0.2037 -0.1394  0.1117
  162SAPE   H3R18168   6.277   1.037   6.862  1.0803 -0.1644 -0.4733
  162SAPE   H3S18169   6.254   1.193   6.941 -0.0151 -0.5321  3.1561
  162SAPE   C2418170   6.336   1.039   7.064  0.3473  0.4337 -0.3127
  162SAPE   H4R18171   6.390   1.106   7.135 -1.4027 -0.3450  1.8780
  162SAPE   H4S18172   6.388   0.946   7.033 -1.8316 -0.4161 -1.6405
  162SAPE   C2518173   6.192   1.002   7.110  0.1950 -0.2123 -0.3449
  162SAPE   H5R18174   6.140   0.943   7.033 -0.1979  0.9161 -0.9705
  162SAPE   C2618175   6.125   1.034   7.225  0.2739 -0.5712  0.0162
  162SAPE   H6R18176   6.025   0.992   7.245 -0.9796  2.8920  2.0280
  162SAPE   C2718177   6.177   1.122   7.335  0.2465 -0.7387 -0.5789
  162SAPE   H7R18178   6.261   1.184   7.296  0.0442 -0.7765 -1.0718
  162SAPE   H7S18179   6.228   1.064   7.415  0.6601  0.7088  0.2454
  162SAPE   C2818180   6.080   1.223   7.400  0.1347 -0.0265 -0.4727
  162SAPE   H8R18181   5.987   1.237   7.342 -0.7985 -0.5348  0.8733
  162SAPE   C2918182   6.086   1.269   7.521 -0.2225 -0.0401 -0.1121
  162SAPE   H9R18183   6.004   1.334   7.556  0.1508  1.5129 -1.9746
  162SAPE  C21018184   6.197   1.247   7.624 -0.2860  0.3669  0.6305
  162SAPE  H10R18185   6.179   1.313   7.711 -2.8126  1.4143 -0.5962
  162SAPE  H10S18186   6.294   1.281   7.580 -0.9567 -0.8148 -1.9657
  162SAPE  C21118187   6.201   1.113   7.686  0.6640  0.3047  0.0271
  162SAPE  H11R18188   6.170   1.032   7.618  4.2105 -0.1030 -1.3286
  162SAPE  C21218189   6.247   1.085   7.808  0.5563  0.1850 -0.0735
  162SAPE  H12R18190   6.235   0.983   7.849 -1.2607  0.1200 -0.6729
  162SAPE  C21318191   6.301   1.180   7.914  0.1235  0.1027 -0.2558
  162SAPE  H13R18192   6.314   1.123   8.008  0.8016 -1.1511 -1.0680
  162SAPE  H13S18193   6.231   1.259   7.949  1.8590  1.5185  0.1464
  162SAPE  C21418194   6.435   1.236   7.884 -0.3189  0.2080  0.2096
  162SAPE  H14R18195   6.515   1.166   7.858  0.9272  1.0878  1.5249
  162SAPE  C21518196   6.470   1.368   7.875  0.3736 -0.1693 -0.4537
  162SAPE  H15R18197   6.576   1.387   7.850  1.0603 -3.9320 -1.0102
  162SAPE  C21618198   6.384   1.486   7.897 -0.1037 -0.2222 -0.5538
  162SAPE  H16R18199   6.441   1.549   7.968 -0.6658  1.1042 -1.2319
  162SAPE  H16S18200   6.300   1.471   7.969  1.3812  0.3337  1.3729
  162SAPE  C21718201   6.342   1.566   7.768 -0.3276 -0.0791 -0.6329
  162SAPE  H17R18202   6.270   1.503   7.712 -0.6506  0.1347 -0.4601
  162SAPE  H17S18203   6.436   1.585   7.712 -0.1984 -2.1035 -1.2030
  162SAPE  C21818204   6.279   1.701   7.792 -0.0106  0.1180 -0.1889
  162SAPE  H18R18205   6.338   1.752   7.872  0.7175  0.1577 -0.7360
  162SAPE  H18S18206   6.171   1.695   7.817  0.1446 -0.1102  0.4308
  162SAPE  C21918207   6.283   1.787   7.668  0.0139 -0.4239  0.1038
  162SAPE  H19R18208   6.382   1.790   7.618 -0.4569  0.0455 -0.8087
  162SAPE  H19S18209   6.270   1.892   7.700  2.2730  0.7547 -2.4608
  162SAPE  C22018210   6.172   1.752   7.567  0.1027  0.6234  0.3624
  162SAPE  H20R18211   6.071   1.785   7.602 -0.7143  0.7843 -1.9734
  162SAPE  H20S18212   6.187   1.644   7.546  1.1836  0.7760  0.2887
  162SAPE  H20T18213   6.195   1.801   7.470  1.9173 -1.8899 -0.6004
  162SAPE   C3318214   6.978   1.415   6.955 -0.5699 -0.5559 -0.0266
  162SAPE   H3X18215   7.051   1.498   6.970 -1.8073  1.0469 -2.3037
  162SAPE   H3Y18216   7.044   1.325   6.958  0.8640  0.4635  0.2391
  162SAPE   C3418217   6.878   1.406   7.064 -0.4714  0.7498 -0.0264
  162SAPE   H4X18218   6.812   1.496   7.066 -0.6599  0.6098  1.9982
  162SAPE   H4Y18219   6.925   1.414   7.164  0.2525  0.9103 -0.3765
  162SAPE   C3518220   6.794   1.276   7.053  0.4416  0.0387 -0.2972
  162SAPE   H5X18221   6.865   1.190   7.050 -0.3410 -0.6067 -0.7710
  162SAPE   H5Y18222   6.735   1.278   6.958  2.7348  0.2053 -1.7969
  162SAPE   C3618223   6.711   1.251   7.175 -0.0414 -0.2477  0.1697
  162SAPE   H6X18224   6.611   1.300   7.169 -0.7513 -1.5904  0.5834
  162SAPE   H6Y18225   6.777   1.292   7.254  1.8818  0.3036 -1.6285
  162SAPE   C3718226   6.661   1.106   7.190  0.9309 -0.1404  0.9314
  162SAPE   H7X18227   6.751   1.047   7.165  3.0313  3.3832 -0.6020
  162SAPE   H7Y18228   6.583   1.078   7.116 -0.3740  0.9295  1.8489
  162SAPE   C3818229   6.622   1.062   7.334  0.1070  0.0795  0.0936
  162SAPE   H8X18230   6.576   0.961   7.332  0.2013  0.0197 -2.1896
  162SAPE   H8Y18231   6.548   1.136   7.373  0.1238 -0.0826  0.4365
  162SAPE   C3918232   6.740   1.055   7.438  0.2841  0.6149 -0.1819
  162SAPE   H9X18233   6.790   1.154   7.429 -2.9676  2.2611 -2.9399
  162SAPE   H9Y18234   6.810   0.974   7.408  0.5738  0.6194  0.4800
  162SAPE  C31018235   6.701   1.048   7.587  0.3137  0.1829 -0.5494
  162SAPE  H10X18236   6.648   0.951   7.604 -0.8721  0.6523 -1.4679
  162SAPE  H10Y18237   6.621   1.124   7.599 -0.6792 -0.4671 -2.6269
  162SAPE  C31118238   6.822   1.060   7.677  0.2952  0.3928 -0.0149
  162SAPE  H11X18239   6.870   1.157   7.655 -0.8822  0.5583 -2.0657
  162SAPE  H11Y18240   6.902   0.991   7.642  0.6895  0.3934  0.8666
  162SAPE  C31218241   6.802   1.031   7.833 -0.5148 -0.5966 -0.4139
  162SAPE  H12X18242   6.743   0.936   7.833 -0.9027 -0.3778  1.0211
  162SAPE  H12Y18243   6.726   1.105   7.863 -0.0925 -0.4972  0.4507
  162SAPE  C31318244   6.936   1.051   7.909  0.4033  0.4209 -0.1602
  162SAPE  H13X18245   6.987   1.147   7.885  1.6060  0.3140  1.8322
  162SAPE  H13Y18246   7.002   0.971   7.869  0.6872  0.2306  0.6892
  162SAPE  C31418247   6.930   1.019   8.053 -0.2942  0.1227 -0.1180
  162SAPE  H14X18248   7.035   1.020   8.090 -0.6107  1.0411  0.8190
  162SAPE  H14Y18249   6.897   0.914   8.066  1.1466 -0.4443 -0.7639
  162SAPE  C31518250   6.855   1.110   8.141  0.0737  0.0415 -0.5949
  162SAPE  H15X18251   6.861   1.070   8.244 -1.1759  3.2100  0.8455
  162SAPE  H15Y18252   6.748   1.111   8.110  0.2100 -0.0316 -1.0651
  162SAPE  C31618253   6.897   1.260   8.140  0.2180 -0.0131 -0.0282
  162SAPE  H16X18254   6.858   1.316   8.052  0.0468 -1.3625 -0.8402
  162SAPE  H16Y18255   7.008   1.251   8.140  0.1806 -0.4974  0.4506
  162SAPE  C31718256   6.857   1.330   8.266  0.3527 -0.0408  0.2728
  162SAPE  H17X18257   6.911   1.427   8.271 -0.9709  0.9994 -3.0025
  162SAPE  H17Y18258   6.879   1.262   8.352  2.0344 -1.9861 -1.5587
  162SAPE  C31818259   6.711   1.365   8.263 -0.0803 -0.1886 -0.6383
  162SAPE  H18X18260   6.686   1.423   8.171  2.2892 -1.1989 -2.0111
  162SAPE  H18Y18261   6.685   1.429   8.350  0.7154 -0.2203 -0.3688
  162SAPE  H18Z18262   6.639   1.281   8.272  0.5592 -0.6213  0.6800
  163SAPE     N18263   5.955   4.860   6.185  0.5842 -0.0932 -0.4217
  163SAPE   HN118264   6.005   4.878   6.096 -0.8167  0.8105 -1.0465
  163SAPE   HN218265   5.918   4.764   6.198 -0.9950  0.2230 -2.1584
  163SAPE   HN318266   5.868   4.917   6.192 -0.8261 -2.3263  2.5301
  163SAPE   C1218267   6.049   4.911   6.284  0.6996  0.1076  0.1890
  163SAPE  H12A18268   6.072   5.014   6.250 -1.6434  0.5742 -0.1675
  163SAPE  H12B18269   6.142   4.852   6.274  0.0584 -0.5161 -3.8631
  163SAPE   C1118270   5.996   4.900   6.428  0.4248 -0.2273  0.0760
  163SAPE  H11A18271   6.084   4.930   6.489  1.3184 -0.5975 -0.9953
  163SAPE  H11B18272   5.970   4.796   6.456 -1.0380  0.4168  1.2724
  163SAPE     P18273   5.868   5.084   6.575 -0.1088  0.0175 -0.3416
  163SAPE   O1318274   6.000   5.148   6.598  0.5793  0.3053 -0.1462
  163SAPE   O1418275   5.754   5.178   6.560 -0.5152  0.1951 -0.3827
  163SAPE   O1218276   5.879   4.981   6.447 -0.3291 -0.6390 -0.6553
  163SAPE   O1118277   5.825   4.982   6.692 -0.0314 -0.1276 -0.2579
  163SAPE    C118278   5.693   4.937   6.718 -0.0754  0.0659  0.2393
  163SAPE    HA18279   5.648   4.996   6.800 -2.0385 -1.5604  0.3990
  163SAPE    HB18280   5.617   4.942   6.637 -0.7441  0.2860  0.8688
  163SAPE    C218281   5.696   4.793   6.765  0.3037  0.1604 -0.3075
  163SAPE    HS18282   5.591   4.760   6.783  0.5474 -0.2994  0.3052
  163SAPE   O2118283   5.772   4.774   6.884  0.1322  0.7170 -0.4043
  163SAPE   C2118284   5.707   4.795   7.002 -0.8501 -0.2839 -0.4620
  163SAPE   O2218285   5.586   4.815   7.012  0.1803 -0.2250  0.0963
  163SAPE   C2218286   5.795   4.778   7.123 -0.3480 -0.1626 -0.6954
  163SAPE   H2R18287   5.767   4.675   7.152  1.4515 -0.4577  0.1561
  163SAPE   H2S18288   5.905   4.787   7.110 -0.0364  0.1628  1.6067
  163SAPE    C318289   5.776   4.709   6.662  0.2602  0.2198  0.5770
  163SAPE    HX18290   5.883   4.735   6.657  0.4690 -0.5112 -4.7527
  163SAPE    HY18291   5.725   4.731   6.566 -0.2769 -3.0946 -0.0144
  163SAPE   O3118292   5.750   4.569   6.683  0.7056  0.2991  0.1815
  163SAPE   C3118293   5.829   4.493   6.622 -0.3387 -0.2013 -0.8384
  163SAPE   O3218294   5.908   4.527   6.537 -0.4938  0.8959 -0.2090
  163SAPE   C3218295   5.816   4.346   6.678 -0.0397 -0.7393 -0.2613
  163SAPE   H2X18296   5.796   4.272   6.598 -2.3928 -0.5513  0.0785
  163SAPE   H2Y18297   5.745   4.344   6.763  1.4009  0.3678  1.0317
  163SAPE   C2318298   5.746   4.863   7.247 -0.5487  0.0063  0.2436
  163SAPE   H3R18299   5.637   4.865   7.266 -0.4328  0.1889  0.9345
  163SAPE   H3S18300   5.768   4.970   7.228 -1.3090 -0.2418 -2.4208
  163SAPE   C2418301   5.813   4.809   7.374  0.2705 -0.5270 -0.4829
  163SAPE   H4R18302   5.919   4.840   7.371 -0.1904  2.2891  3.5934
  163SAPE   H4S18303   5.808   4.699   7.364  0.0302 -0.6324  0.5926
  163SAPE   C2518304   5.747   4.855   7.503 -0.6706  0.2492 -0.1866
  163SAPE   H5R18305   5.638   4.871   7.510 -0.5917  0.0784  2.3865
  163SAPE   C2618306   5.810   4.873   7.619  0.4645 -0.1750  0.2385
  163SAPE   H6R18307   5.754   4.916   7.703 -1.9201 -1.9969 -0.2983
  163SAPE   C2718308   5.957   4.850   7.637 -0.4774  1.1365 -0.3873
  163SAPE   H7R18309   5.984   4.918   7.721 -4.0317 -0.1337  2.0457
  163SAPE   H7S18310   6.017   4.880   7.548 -0.7882 -2.2122 -1.8418
  163SAPE   C2818311   5.986   4.699   7.660 -0.1683  0.4224  0.4436
  163SAPE   H8R18312   5.941   4.627   7.590 -0.7469  1.4237 -0.2386
  163SAPE   C2918313   6.082   4.649   7.742 -0.2308  0.1397 -0.3575
  163SAPE   H9R18314   6.080   4.539   7.743  0.1564  0.1346  0.3118
  163SAPE  C21018315   6.186   4.719   7.828  0.5238  0.5666  0.3782
  163SAPE  H10R18316   6.176   4.685   7.933  0.2277  1.4446  0.6439
  163SAPE  H10S18317   6.168   4.827   7.846  2.5709  0.8541  0.8621
  163SAPE  C21118318   6.329   4.701   7.777 -0.1040 -0.0559 -0.7315
  163SAPE  H11R18319   6.341   4.661   7.675  1.5180 -2.7329  0.4068
  163SAPE  C21218320   6.444   4.726   7.847 -0.0049  0.2943  0.4171
  163SAPE  H12R18321   6.544   4.715   7.800  0.4898  1.5574  1.1339
  163SAPE  C21318322   6.451   4.783   7.983 -0.5705  0.7060 -0.1873
  163SAPE  H13R18323   6.419   4.711   8.063  1.8233  1.6452  1.7380
  163SAPE  H13S18324   6.375   4.863   7.992  0.5157  1.6893  0.5209
  163SAPE  C21418325   6.584   4.851   8.025  0.4167 -1.3783 -0.4312
  163SAPE  H14R18326   6.594   4.958   8.006 -0.6772 -1.5505 -2.1914
  163SAPE  C21518327   6.679   4.791   8.097 -0.1764 -1.1509  0.0937
  163SAPE  H15R18328   6.773   4.843   8.118 -0.4444 -0.2946 -0.7316
  163SAPE  C21618329   6.675   4.643   8.142  0.1534 -0.2358  0.0113
  163SAPE  H16R18330   6.615   4.575   8.077 -2.4811 -1.6545  3.6012
  163SAPE  H16S18331   6.622   4.640   8.240  0.1350 -2.1434 -0.0100
  163SAPE  C21718332   6.818   4.586   8.154 -0.6776 -0.3286 -0.4090
  163SAPE  H17R18333   6.893   4.662   8.185 -0.3830 -1.4297  1.8221
  163SAPE  H17S18334   6.841   4.546   8.053 -1.1786 -3.8934  0.7338
  163SAPE  C21818335   6.818   4.467   8.253  0.7812  0.0740 -0.2696
  163SAPE  H18R18336   6.753   4.388   8.212  2.0487 -0.7266 -0.7895
  163SAPE  H18S18337   6.769   4.506   8.345  0.7837 -0.3823 -0.0716
  163SAPE  C21918338   6.958   4.415   8.271 -0.4166  0.6764  0.5737
  163SAPE  H19R18339   7.018   4.500   8.308  0.3751  1.0514 -1.4474
  163SAPE  H19S18340   7.013   4.387   8.179 -1.3894 -0.0699  0.1951
  163SAPE  C22018341   6.958   4.293   8.367 -0.4486  0.4938 -0.3623
  163SAPE  H20R18342   7.060   4.259   8.396 -2.0211 -2.2790  2.7567
  163SAPE  H20S18343   6.922   4.203   8.313 -0.8405 -0.1859  0.9901
  163SAPE  H20T18344   6.907   4.318   8.462  3.1460  0.3605  1.8097
  163SAPE   C3318345   5.954   4.312   6.748  0.6620  0.1366  0.5507
  163SAPE   H3X18346   6.034   4.309   6.672 -2.3500 -0.8915 -2.8576
  163SAPE   H3Y18347   5.950   4.210   6.793  0.6546  0.0981  0.4629
  163SAPE   C3418348   5.998   4.397   6.865  0.1484 -0.2817 -0.4522
  163SAPE   H4X18349   5.984   4.502   6.832 -0.6613 -0.3003 -0.1826
  163SAPE   H4Y18350   6.104   4.375   6.890 -0.4078 -1.7235  0.8190
  163SAPE   C3518351   5.912   4.373   6.995  0.6271 -0.6429 -0.4703
  163SAPE   H5X18352   5.914   4.262   7.005  2.7113 -0.7348 -1.3023
  163SAPE   H5Y18353   5.806   4.401   6.978  0.3238 -0.8679  0.9527
  163SAPE   C3618354   5.967   4.431   7.118  0.0470  0.3958  0.3092
  163SAPE   H6X18355   5.944   4.540   7.125  0.0124  0.4563 -0.5858
  163SAPE   H6Y18356   6.076   4.427   7.098 -0.4577  0.2853 -3.0933
  163SAPE   C3718357   5.915   4.359   7.242  0.2003  0.3935  0.0316
  163SAPE   H7X18358   5.935   4.250   7.236  1.5702  0.3433  3.3370
  163SAPE   H7Y18359   5.807   4.383   7.251  0.3601  0.6542  1.3030
  163SAPE   C3818360   5.983   4.397   7.372 -0.7765 -0.2523  0.1478
  163SAPE   H8X18361   5.920   4.339   7.442 -0.2374  1.9902  2.6595
  163SAPE   H8Y18362   5.972   4.507   7.380 -1.5196 -0.0431 -2.6608
  163SAPE   C3918363   6.137   4.347   7.373  0.0922  0.2600  0.2403
  163SAPE   H9X18364   6.207   4.414   7.321 -0.2501 -0.3618 -1.0601
  163SAPE   H9Y18365   6.150   4.244   7.332  1.3952 -0.3242  1.9725
  163SAPE  C31018366   6.189   4.345   7.518 -0.5358  0.6350  0.4177
  163SAPE  H10X18367   6.196   4.443   7.569  2.6578  0.3622  0.7053
  163SAPE  H10Y18368   6.297   4.321   7.510 -0.8695 -1.7188  1.8803
  163SAPE  C31118369   6.118   4.247   7.605 -0.0411  0.5982 -0.1033
  163SAPE  H11X18370   6.118   4.150   7.550 -2.5878  0.2536  0.3988
  163SAPE  H11Y18371   6.009   4.269   7.610 -0.7159 -1.1649 -3.7797
  163SAPE  C31218372   6.184   4.218   7.740  0.2459 -0.9914 -0.3864
  163SAPE  H12X18373   6.202   4.312   7.796  0.5327 -1.5707  0.5113
  163SAPE  H12Y18374   6.280   4.167   7.715 -0.5115 -1.9467 -1.4662
  163SAPE  C31318375   6.089   4.139   7.831  0.1195  1.0689  0.1051
  163SAPE  H13X18376   6.062   4.048   7.774  1.6011  0.5718  0.1471
  163SAPE  H13Y18377   5.998   4.200   7.848 -0.2102  0.8905 -0.9545
  163SAPE  C31418378   6.143   4.094   7.957 -0.3492 -0.2054 -0.4416
  163SAPE  H14X18379   6.176   4.185   8.011 -1.8470  1.1904 -1.7846
  163SAPE  H14Y18380   6.239   4.038   7.950  0.7390  1.4327  0.7073
  163SAPE  C31518381   6.035   4.014   8.035 -0.0653 -0.4339 -0.0751
  163SAPE  H15X18382   5.993   3.928   7.980  2.2563 -1.6310 -0.0959
  163SAPE  H15Y18383   5.949   4.085   8.041  0.6917  0.6649 -1.5862
  163SAPE  C31618384   6.087   3.963   8.178  0.2102 -0.5986 -0.0200
  163SAPE  H16X18385   6.125   4.059   8.218  0.3506  0.0285 -1.5994
  163SAPE  H16Y18386   6.175   3.895   8.177 -0.1465 -1.1158  1.4647
  163SAPE  C31718387   5.979   3.904   8.266 -0.3097 -0.0976 -0.0146
  163SAPE  H17X18388   6.029   3.866   8.358 -0.9262  0.0180  0.3721
  163SAPE  H17Y18389   5.935   3.823   8.204  0.1935 -0.8166  0.5506
  163SAPE  C31818390   5.862   3.993   8.300  0.4006 -0.4808 -1.1469
  163SAPE  H18X18391   5.908   4.070   8.367  1.1170 -0.2196 -1.9187
  163SAPE  H18Y18392   5.788   3.937   8.360  0.0738  0.9025 -0.2114
  163SAPE  H18Z18393   5.824   4.046   8.210  1.0391 -1.8825 -2.2724
  164SAPE     N18394   1.805   0.822   6.101  0.2650 -0.1479 -0.7131
  164SAPE   HN118395   1.838   0.723   6.098 -0.9544 -0.5643 -3.9021
  164SAPE   HN218396   1.862   0.873   6.171  1.0379 -1.3038 -0.4687
  164SAPE   HN318397   1.705   0.830   6.128  0.5950  0.5228  0.3563
  164SAPE   C1218398   1.813   0.882   5.970 -0.2847  0.0038  0.3560
  164SAPE  H12A18399   1.751   0.975   5.968  0.1442  0.2913  0.3837
  164SAPE  H12B18400   1.760   0.815   5.899 -3.2422 -0.5997  2.9146
  164SAPE   C1118401   1.959   0.907   5.919  0.2694  0.6884 -0.1246
  164SAPE  H11A18402   1.961   0.943   5.813  0.7033  2.0678  0.3271
  164SAPE  H11B18403   2.009   0.808   5.921 -0.6606  0.2141  0.9164
  164SAPE     P18404   2.145   1.065   6.005 -0.2211 -0.0730 -0.1733
  164SAPE   O1318405   2.217   1.008   5.888 -0.1664 -0.1715 -0.8679
  164SAPE   O1418406   2.121   1.209   5.996 -0.4173 -0.3869  0.1914
  164SAPE   O1218407   2.008   1.003   6.014 -0.3963 -0.4872  0.2586
  164SAPE   O1118408   2.218   1.018   6.141 -0.1723  0.1302 -0.0501
  164SAPE    C118409   2.211   0.876   6.163  0.4315 -0.1271  0.4719
  164SAPE    HA18410   2.116   0.838   6.206  2.0283 -2.7858  1.9109
  164SAPE    HB18411   2.224   0.819   6.068 -0.1389  2.6105 -1.3504
  164SAPE    C218412   2.318   0.838   6.263 -0.3854  0.5102 -0.6431
  164SAPE    HS18413   2.326   0.727   6.264 -2.6185  0.3070 -0.2402
  164SAPE   O2118414   2.295   0.893   6.397  0.7354  0.2466  0.0108
  164SAPE   C2118415   2.218   0.818   6.478 -0.6142  0.1116  0.5615
  164SAPE   O2218416   2.160   0.718   6.440 -0.7069  0.0465  0.1662
  164SAPE   C2218417   2.220   0.871   6.625  0.3355 -0.7495  0.5470
  164SAPE   H2R18418   2.204   0.981   6.626  0.8541 -0.6688  0.2379
  164SAPE   H2S18419   2.124   0.827   6.659 -0.9506  1.3249 -0.1863
  164SAPE    C318420   2.457   0.886   6.212  0.4034  0.1516 -0.0363
  164SAPE    HX18421   2.459   0.997   6.215 -1.3045  0.2006  2.1962
  164SAPE    HY18422   2.476   0.853   6.108  1.7012  0.0271  0.2300
  164SAPE   O3118423   2.553   0.855   6.311 -0.1723 -0.0808  0.5680
  164SAPE   C3118424   2.619   0.747   6.295  0.7221 -0.4885  0.5944
  164SAPE   O3218425   2.593   0.665   6.206 -0.2149  0.4135 -0.1198
  164SAPE   C3218426   2.725   0.744   6.399  0.3565 -0.6414  0.2329
  164SAPE   H2X18427   2.772   0.843   6.383 -0.5039 -0.2567  0.0700
  164SAPE   H2Y18428   2.795   0.662   6.371 -0.1231 -0.9003 -0.2312
  164SAPE   C2318429   2.338   0.830   6.706 -0.0481 -0.9457 -0.3826
  164SAPE   H3R18430   2.415   0.910   6.700  0.2265 -1.1386  0.3820
  164SAPE   H3S18431   2.377   0.733   6.668 -2.3857 -2.2609  0.3353
  164SAPE   C2418432   2.288   0.812   6.850 -0.3004  0.6463  0.3614
  164SAPE   H4R18433   2.378   0.774   6.903 -0.0055  1.0372  0.1457
  164SAPE   H4S18434   2.210   0.733   6.858  0.3349  0.0780  1.1288
  164SAPE   C2518435   2.239   0.932   6.921  0.0484  0.4264 -0.5567
  164SAPE   H5R18436   2.209   1.008   6.847 -1.2378 -1.0034 -1.5875
  164SAPE   C2618437   2.242   0.956   7.052 -0.5422 -0.2978 -0.2122
  164SAPE   H6R18438   2.198   1.050   7.089 -0.8306 -0.1446 -0.9400
  164SAPE   C2718439   2.310   0.869   7.165 -0.1202 -0.3658  0.3522
  164SAPE   H7R18440   2.339   0.933   7.251 -0.7702  1.1918 -0.5380
  164SAPE   H7S18441   2.410   0.839   7.127  0.4091  0.8476  0.7352
  164SAPE   C2818442   2.227   0.742   7.192  0.2367 -0.5764  1.6381
  164SAPE   H8R18443   2.204   0.686   7.100  1.7939 -1.0931  1.5183
  164SAPE   C2918444   2.190   0.696   7.308  0.0445 -0.1207 -1.0563
  164SAPE   H9R18445   2.144   0.596   7.315  0.6476 -0.3647 -0.4347
  164SAPE  C21018446   2.209   0.761   7.446 -0.1911 -0.0636 -0.1105
  164SAPE  H10R18447   2.134   0.718   7.516 -0.3737  0.5494  0.0798
  164SAPE  H10S18448   2.186   0.869   7.441  1.7685  0.3275 -2.2485
  164SAPE  C21118449   2.355   0.748   7.498 -0.7844  0.2954  0.4760
  164SAPE  H11R18450   2.436   0.762   7.426 -0.3136  0.5581  1.0412
  164SAPE  C21218451   2.386   0.730   7.628 -0.3841 -0.2125 -0.8225
  164SAPE  H12R18452   2.490   0.707   7.654 -0.8448  0.6652  2.1500
  164SAPE  C21318453   2.295   0.718   7.745 -0.4433 -0.0860  0.0498
  164SAPE  H13R18454   2.343   0.665   7.830  1.3879  1.3572 -0.0113
  164SAPE  H13S18455   2.216   0.644   7.720  0.0457  0.1045 -2.2706
  164SAPE  C21418456   2.231   0.842   7.795 -0.1447 -0.2361  1.0851
  164SAPE  H14R18457   2.149   0.870   7.727 -1.3041 -1.1825  2.0462
  164SAPE  C21518458   2.240   0.897   7.917  0.6274  0.1109  0.3090
  164SAPE  H15R18459   2.185   0.991   7.936 -0.7328 -0.5395 -0.2792
  164SAPE  C21618460   2.326   0.841   8.026  0.1084  0.0960  0.0728
  164SAPE  H16R18461   2.356   0.910   8.107 -1.5332 -2.7511  3.3728
  164SAPE  H16S18462   2.422   0.812   7.979  1.2871  2.2567  1.0494
  164SAPE  C21718463   2.259   0.715   8.097 -0.0527  0.7641  0.0985
  164SAPE  H17R18464   2.229   0.637   8.025  1.2636 -1.9523  2.3087
  164SAPE  H17S18465   2.163   0.747   8.144  0.2553  1.0262  0.5612
  164SAPE  C21818466   2.358   0.656   8.195 -0.7964 -0.1911 -0.8704
  164SAPE  H18R18467   2.310   0.562   8.229  2.5894 -2.1336 -1.1094
  164SAPE  H18S18468   2.384   0.708   8.290  2.2599 -2.0698 -0.5429
  164SAPE  C21918469   2.481   0.600   8.132 -0.2928 -0.5602 -0.7119
  164SAPE  H19R18470   2.556   0.681   8.115 -1.8367  1.2280  0.5436
  164SAPE  H19S18471   2.451   0.560   8.033 -0.3834 -0.1853 -0.8400
  164SAPE  C22018472   2.550   0.494   8.215  0.0634  0.2822 -0.4031
  164SAPE  H20R18473   2.638   0.447   8.167 -2.6455 -2.0309 -3.6072
  164SAPE  H20S18474   2.474   0.419   8.245  0.3120  0.1955  0.0174
  164SAPE  H20T18475   2.590   0.545   8.305  4.2841 -2.3522 -0.5077
  164SAPE   C3318476   2.667   0.729   6.540 -0.3484  0.4409 -0.4270
  164SAPE   H3X18477   2.614   0.632   6.546 -2.5587  1.3628 -2.9281
  164SAPE   H3Y18478   2.588   0.806   6.558 -0.8669 -0.3532  0.8558
  164SAPE   C3418479   2.776   0.763   6.653 -0.1171 -0.0886 -0.4635
  164SAPE   H4X18480   2.802   0.871   6.653  0.6041 -0.0534 -5.3607
  164SAPE   H4Y18481   2.863   0.694   6.649 -0.9037 -1.0368 -2.1388
  164SAPE   C3518482   2.710   0.739   6.796 -0.5884  0.1816 -0.4454
  164SAPE   H5X18483   2.685   0.631   6.809  0.1254  0.0117 -0.4370
  164SAPE   H5Y18484   2.614   0.795   6.794 -0.2595  0.8647  1.3585
  164SAPE   C3618485   2.801   0.787   6.908 -0.2720  0.3529 -0.0853
  164SAPE   H6X18486   2.833   0.893   6.902 -2.4383  1.0871  0.4699
  164SAPE   H6Y18487   2.898   0.734   6.908 -0.3008  0.2205  2.0012
  164SAPE   C3718488   2.735   0.762   7.048 -0.8592  0.0989  0.4978
  164SAPE   H7X18489   2.699   0.657   7.055  1.3181 -0.7623 -0.3901
  164SAPE   H7Y18490   2.635   0.810   7.060 -2.4464 -2.4918 -1.4268
  164SAPE   C3818491   2.821   0.797   7.169 -0.3042  0.7365 -0.5620
  164SAPE   H8X18492   2.856   0.901   7.150 -0.0130  0.2985 -2.6125
  164SAPE   H8Y18493   2.906   0.726   7.170 -1.2203 -0.4088 -1.4936
  164SAPE   C3918494   2.743   0.796   7.302 -0.1375  0.0505  0.3504
  164SAPE   H9X18495   2.728   0.691   7.335  0.2520 -0.4217 -0.9062
  164SAPE   H9Y18496   2.641   0.834   7.280 -1.8286 -2.2975  3.3850
  164SAPE  C31018497   2.817   0.867   7.412 -0.7003  0.1529 -0.0411
  164SAPE  H10X18498   2.823   0.977   7.393 -0.4350  0.2592  0.6437
  164SAPE  H10Y18499   2.913   0.813   7.425 -1.0100 -0.5641 -0.6535
  164SAPE  C31118500   2.744   0.857   7.541  0.2891  0.2426  0.2413
  164SAPE  H11X18501   2.727   0.752   7.573  0.2153  0.5892  1.4109
  164SAPE  H11Y18502   2.641   0.898   7.539  0.3523  0.3612 -0.6450
  164SAPE  C31218503   2.821   0.914   7.662 -0.2814  0.2033  1.2520
  164SAPE  H12X18504   2.858   1.015   7.633  1.5509 -0.2319  1.9163
  164SAPE  H12Y18505   2.908   0.846   7.672 -1.9316 -1.6472  5.2341
  164SAPE  C31318506   2.745   0.911   7.794 -0.1349  0.3043 -0.7337
  164SAPE  H13X18507   2.728   0.803   7.813  2.4314 -0.2466 -1.2330
  164SAPE  H13Y18508   2.652   0.969   7.772  1.8769  3.7426 -0.8784
  164SAPE  C31418509   2.837   0.975   7.909  0.4918 -0.0115  0.4458
  164SAPE  H14X18510   2.847   1.085   7.893 -1.3682 -0.0725 -1.5948
  164SAPE  H14Y18511   2.937   0.929   7.894  1.1218  1.1218  1.0254
  164SAPE  C31518512   2.783   0.949   8.051 -0.4652  0.1321 -0.4831
  164SAPE  H15X18513   2.833   0.859   8.095 -0.9852 -0.1493 -0.4547
  164SAPE  H15Y18514   2.672   0.943   8.055 -0.4777 -0.7369 -1.6600
  164SAPE  C31618515   2.833   1.061   8.145 -0.2973  0.3251  0.0123
  164SAPE  H16X18516   2.810   1.165   8.111 -1.1374  0.0718 -0.2247
  164SAPE  H16Y18517   2.944   1.056   8.146 -0.3046 -0.2006 -0.6455
  164SAPE  C31718518   2.777   1.043   8.287 -0.5528 -0.1773 -0.5220
  164SAPE  H17X18519   2.827   1.115   8.356 -1.7963  0.2151  0.0040
  164SAPE  H17Y18520   2.821   0.945   8.314  1.1465 -0.5929 -4.2469
  164SAPE  C31818521   2.623   1.054   8.316 -0.9906 -0.8180 -0.6333
  164SAPE  H18X18522   2.601   1.040   8.424 -0.4223 -0.1109 -0.4139
  164SAPE  H18Y18523   2.565   0.986   8.250 -1.7659 -0.0767 -0.7322
  164SAPE  H18Z18524   2.594   1.151   8.270 -1.7083 -2.2694 -3.4724
  165SAPE     N18525   2.546   2.699   6.453  0.0283 -0.2186 -0.2530
  165SAPE   HN118526   2.520   2.600   6.467 -3.2642  0.6893  1.0997
  165SAPE   HN218527   2.478   2.748   6.515 -0.7169  1.7009 -2.4216
  165SAPE   HN318528   2.528   2.722   6.353  0.2976  0.6854 -0.1073
  165SAPE   C1218529   2.691   2.732   6.475 -0.6268 -0.0412 -0.1211
  165SAPE  H12A18530   2.706   2.767   6.579  1.3155 -1.5622  0.1531
  165SAPE  H12B18531   2.721   2.813   6.405 -0.8945  0.2084  0.0519
  165SAPE   C1118532   2.788   2.611   6.449  0.9351  0.1809 -0.1800
  165SAPE  H11A18533   2.769   2.533   6.525  0.6776  0.9944  0.6006
  165SAPE  H11B18534   2.894   2.645   6.457  1.1821 -1.0027  2.6820
  165SAPE     P18535   2.885   2.447   6.276  0.0591  0.5491  0.2716
  165SAPE   O1318536   2.826   2.341   6.186 -0.4002 -0.5063 -0.2710
  165SAPE   O1418537   3.013   2.512   6.239  0.1282 -0.2320  0.4124
  165SAPE   O1218538   2.770   2.559   6.309 -0.8500  0.4024  0.2658
  165SAPE   O1118539   2.900   2.370   6.412  0.6966  0.1890  0.2186
  165SAPE    C118540   2.860   2.229   6.428  0.4531 -0.3673  0.0333
  165SAPE    HA18541   2.761   2.200   6.386  0.5982 -3.1272  1.3742
  165SAPE    HB18542   2.942   2.160   6.401  2.9409  2.8315 -1.3336
  165SAPE    C218543   2.824   2.207   6.589 -0.4678  0.5818  0.1441
  165SAPE    HS18544   2.736   2.273   6.606  0.2470  1.3750  0.8207
  165SAPE   O2118545   2.935   2.261   6.666 -0.1009 -0.1118  0.3224
  165SAPE   C2118546   2.901   2.330   6.778  0.0150 -0.2605  0.3693
  165SAPE   O2218547   2.792   2.378   6.798 -0.7426 -0.4787  0.5159
  165SAPE   C2218548   3.030   2.350   6.852  0.3194 -0.3461 -0.2412
  165SAPE   H2R18549   3.100   2.264   6.842 -0.7132 -1.0635 -1.7071
  165SAPE   H2S18550   3.089   2.440   6.825 -0.6988  0.5879  0.5470
  165SAPE    C318551   2.796   2.065   6.629  0.1280 -0.0723  1.1035
  165SAPE    HX18552   2.892   2.010   6.618  0.0744  0.2896 -2.2054
  165SAPE    HY18553   2.723   2.015   6.562  0.2632  0.5372  0.4800
  165SAPE   O3118554   2.751   2.063   6.768  0.4769  0.3177  0.3439
  165SAPE   C3118555   2.623   2.068   6.788 -0.4273 -0.2254 -0.0454
  165SAPE   O3218556   2.531   2.057   6.706 -0.1549  0.0029  0.1612
  165SAPE   C3218557   2.592   2.091   6.934 -0.0974 -0.5293  0.3097
  165SAPE   H2X18558   2.636   2.189   6.965 -2.4411  2.0336 -3.5883
  165SAPE   H2Y18559   2.623   1.996   6.982 -0.8975 -2.5908 -2.9084
  165SAPE   C2318560   2.990   2.372   6.999  0.3273  0.5921 -0.3118
  165SAPE   H3R18561   2.927   2.463   7.006  0.4987  0.6606  0.3509
  165SAPE   H3S18562   3.090   2.378   7.046 -0.2059 -0.7257  1.0704
  165SAPE   C2418563   2.918   2.259   7.076  0.4343 -0.2098  0.0862
  165SAPE   H4R18564   2.815   2.250   7.036  1.4626  0.7090 -3.0549
  165SAPE   H4S18565   2.910   2.295   7.181  2.4101  0.5232  0.0362
  165SAPE   C2518566   2.990   2.126   7.075  0.3651 -0.8202 -0.4695
  165SAPE   H5R18567   3.020   2.086   6.977  0.2793 -1.8362 -0.0950
  165SAPE   C2618568   3.018   2.059   7.184  0.1576 -0.3055 -0.3386
  165SAPE   H6R18569   3.059   1.957   7.182 -1.8648 -1.1608 -1.5201
  165SAPE   C2718570   2.997   2.092   7.323 -0.1992 -0.4856  0.0250
  165SAPE   H7R18571   3.026   2.198   7.340 -1.5686 -0.0634 -0.0926
  165SAPE   H7S18572   3.064   2.026   7.382  3.4175  0.1856 -2.9134
  165SAPE   C2818573   2.856   2.068   7.364  0.9305  0.4354 -0.9582
  165SAPE   H8R18574   2.796   1.998   7.303 -0.3697  0.2926  0.4349
  165SAPE   C2918575   2.799   2.121   7.477  0.3845 -0.2419  0.0368
  165SAPE   H9R18576   2.696   2.093   7.506 -0.1364 -1.1918 -2.4432
  165SAPE  C21018577   2.864   2.208   7.577 -0.0433 -0.5727  0.0952
  165SAPE  H10R18578   2.974   2.194   7.574  0.1468  0.9382 -0.8311
  165SAPE  H10S18579   2.833   2.172   7.678  0.4338 -0.7296  0.1874
  165SAPE  C21118580   2.813   2.346   7.538 -0.7568  0.2025  0.3079
  165SAPE  H11R18581   2.818   2.357   7.428 -1.5138 -2.1512 -0.0129
  165SAPE  C21218582   2.774   2.444   7.621 -0.5846  0.7493  0.5813
  165SAPE  H12R18583   2.761   2.540   7.570 -4.2217  0.2051  0.2563
  165SAPE  C21318584   2.772   2.438   7.772  0.4479  0.1947  0.1390
  165SAPE  H13R18585   2.804   2.339   7.811 -1.4506 -0.5649 -0.1013
  165SAPE  H13S18586   2.667   2.447   7.807  1.1338  1.3258  2.0741
  165SAPE  C21418587   2.858   2.539   7.838 -0.3067 -0.3056 -0.1432
  165SAPE  H14R18588   2.936   2.592   7.782  0.3559  1.4293  2.2606
  165SAPE  C21518589   2.832   2.584   7.965  0.2756 -0.2523  0.3379
  165SAPE  H15R18590   2.905   2.653   8.011 -0.7589  1.1626 -0.0813
  165SAPE  C21618591   2.722   2.540   8.061 -0.3038 -0.1493 -0.1870
  165SAPE  H16R18592   2.760   2.504   8.159  0.5954 -1.8092 -1.0989
  165SAPE  H16S18593   2.655   2.466   8.012  1.1570 -2.5991  1.2917
  165SAPE  C21718594   2.638   2.668   8.088 -0.7605 -0.3587 -0.4250
  165SAPE  H17R18595   2.592   2.703   7.993 -1.9888 -0.7455  0.0151
  165SAPE  H17S18596   2.708   2.744   8.130 -0.5626 -0.6354 -0.2580
  165SAPE  C21818597   2.527   2.653   8.190  1.0121  0.1740  0.2004
  165SAPE  H18R18598   2.566   2.641   8.294 -1.6383  1.8322  1.4924
  165SAPE  H18S18599   2.474   2.556   8.178  0.3295  0.4722  0.7156
  165SAPE  C21918600   2.434   2.774   8.198 -0.3127 -0.2542  0.5693
  165SAPE  H19R18601   2.363   2.770   8.284 -1.7436 -0.2354 -0.5678
  165SAPE  H19S18602   2.371   2.776   8.106  1.6775 -1.9145 -0.9231
  165SAPE  C22018603   2.512   2.906   8.221 -0.4798  0.3253 -0.1560
  165SAPE  H20R18604   2.454   3.000   8.210  0.3629  0.8167 -0.4973
  165SAPE  H20S18605   2.590   2.917   8.143  0.4321  0.1125  0.7093
  165SAPE  H20T18606   2.564   2.907   8.319  0.1905  2.4768 -0.4822
  165SAPE   C3318607   2.444   2.090   6.958  0.3500  0.0291 -0.5583
  165SAPE   H3X18608   2.395   2.008   6.902  1.3504  0.8143 -2.6991
  165SAPE   H3Y18609   2.383   2.174   6.917 -2.5292 -1.4675  0.3971
  165SAPE   C3418610   2.410   2.066   7.106  0.4758 -0.5524 -0.3235
  165SAPE   H4X18611   2.433   1.959   7.124  0.2598 -0.2041  2.3547
  165SAPE   H4Y18612   2.300   2.075   7.119  0.5806 -1.3740  1.3366
  165SAPE   C3518613   2.469   2.167   7.209 -0.0492 -0.1192 -0.1648
  165SAPE   H5X18614   2.475   2.263   7.153 -2.3693 -0.7801 -1.7424
  165SAPE   H5Y18615   2.574   2.139   7.227 -0.2961  0.2759  2.1919
  165SAPE   C3618616   2.393   2.179   7.337  0.0701 -0.3466 -1.3373
  165SAPE   H6X18617   2.391   2.083   7.392  1.3837  1.1215  1.4933
  165SAPE   H6Y18618   2.290   2.207   7.306  0.3832  1.5785 -0.7670
  165SAPE   C3718619   2.439   2.299   7.427  0.6177 -0.1475  0.5897
  165SAPE   H7X18620   2.443   2.382   7.353  3.9036 -2.0312 -1.6149
  165SAPE   H7Y18621   2.543   2.287   7.465  1.0822  1.2037 -0.2238
  165SAPE   C3818622   2.343   2.342   7.542 -0.4704  0.5213 -1.0018
  165SAPE   H8X18623   2.354   2.263   7.619 -0.6509  0.8023 -0.6883
  165SAPE   H8Y18624   2.244   2.346   7.493 -0.9341  1.4025 -0.0257
  165SAPE   C3918625   2.395   2.474   7.606 -0.4822 -0.1883 -0.5582
  165SAPE   H9X18626   2.336   2.554   7.558 -2.3058  0.0253  1.8404
  165SAPE   H9Y18627   2.505   2.488   7.593 -0.0902 -0.9171  1.5451
  165SAPE  C31018628   2.377   2.481   7.754  0.1304 -0.4824 -0.4200
  165SAPE  H10X18629   2.430   2.573   7.786 -1.8242  0.8468 -0.8371
  165SAPE  H10Y18630   2.420   2.393   7.806 -0.9704 -0.5079  0.4789
  165SAPE  C31118631   2.237   2.491   7.806 -1.1777 -1.0437 -0.2001
  165SAPE  H11X18632   2.171   2.414   7.762 -0.6331 -1.9915  0.5888
  165SAPE  H11Y18633   2.204   2.595   7.787  0.8880 -0.3080 -0.0585
  165SAPE  C31218634   2.242   2.483   7.959  0.6855 -0.2003 -0.3468
  165SAPE  H12X18635   2.305   2.567   7.995 -0.6281  0.0531  1.5125
  165SAPE  H12Y18636   2.303   2.397   7.993  1.6252  0.6761  0.2188
  165SAPE  C31318637   2.112   2.480   8.037 -0.3614  0.4768  0.3133
  165SAPE  H13X18638   2.071   2.377   8.029 -0.5332  0.6341 -0.9287
  165SAPE  H13Y18639   2.036   2.536   7.979  0.1599 -0.6592 -1.5568
  165SAPE  C31418640   2.115   2.524   8.181 -0.1620  0.7193  0.0233
  165SAPE  H14X18641   2.159   2.625   8.193 -0.8953  1.1555 -0.8380
  165SAPE  H14Y18642   2.185   2.454   8.232  1.3747 -0.2951 -3.2579
  165SAPE  C31518643   1.981   2.537   8.248 -0.0415  0.1100  0.3088
  165SAPE  H15X18644   1.929   2.439   8.256  1.7745 -0.7516  2.3041
  165SAPE  H15Y18645   1.920   2.598   8.178 -0.5569  0.4998  1.0815
  165SAPE  C31618646   1.986   2.595   8.390  0.1154 -0.7599 -0.4279
  165SAPE  H16X18647   2.032   2.696   8.386  0.0380 -0.7179 -0.2709
  165SAPE  H16Y18648   2.057   2.531   8.446  3.3176  1.5912 -1.5369
  165SAPE  C31718649   1.852   2.607   8.467  0.2743  0.1327 -0.5453
  165SAPE  H17X18650   1.801   2.509   8.456 -0.0988  0.3700 -0.9693
  165SAPE  H17Y18651   1.778   2.674   8.418  0.9183  2.1140  1.0527
  165SAPE  C31818652   1.857   2.643   8.619 -0.3809 -0.1478  0.2267
  165SAPE  H18X18653   1.892   2.746   8.642  0.5081 -0.5057  0.5401
  165SAPE  H18Y18654   1.933   2.579   8.670 -0.0779 -1.3077 -1.5692
  165SAPE  H18Z18655   1.753   2.629   8.656 -0.7310 -0.5421 -0.8579
  166SAPE     N18656   1.380   0.706   5.881 -0.2788 -0.4885 -0.8014
  166SAPE   HN118657   1.284   0.669   5.864 -0.5043 -1.1875  1.5937
  166SAPE   HN218658   1.413   0.671   5.973  2.0575 -1.0690 -1.7814
  166SAPE   HN318659   1.371   0.809   5.893 -0.0925 -0.7445  2.1015
  166SAPE   C1218660   1.479   0.672   5.781 -0.2890 -0.4989  0.1579
  166SAPE  H12A18661   1.553   0.753   5.764  0.6153 -1.5642 -1.2234
  166SAPE  H12B18662   1.430   0.661   5.683  0.6299 -0.3150 -0.3374
  166SAPE   C1118663   1.555   0.541   5.813  0.3702 -0.2599 -0.8587
  166SAPE  H11A18664   1.615   0.523   5.720  0.5309 -0.6050 -0.6904
  166SAPE  H11B18665   1.492   0.449   5.818 -0.2103  0.1381 -0.7410
  166SAPE     P18666   1.747   0.477   5.979 -0.2370 -0.1200 -0.0661
  166SAPE   O1318667   1.771   0.377   5.877 -0.1103  0.2595  0.3623
  166SAPE   O1418668   1.854   0.564   6.028  0.0116 -0.3423 -0.0207
  166SAPE   O1218669   1.624   0.563   5.936  0.4740 -0.0933  0.3262
  166SAPE   O1118670   1.688   0.412   6.108  0.4432  0.3712 -0.0563
  166SAPE    C118671   1.573   0.318   6.109 -0.5881 -0.6173  0.7145
  166SAPE    HA18672   1.507   0.337   6.022  1.2308  0.4290 -0.5039
  166SAPE    HB18673   1.611   0.214   6.116 -0.0365 -0.6798 -1.9364
  166SAPE    C218674   1.481   0.338   6.235  0.6446  0.1538 -0.2484
  166SAPE    HS18675   1.444   0.442   6.217 -2.2972 -0.7477  0.1604
  166SAPE   O2118676   1.556   0.318   6.360  0.5561 -0.1778  0.0105
  166SAPE   C2118677   1.570   0.424   6.431  0.9976  0.1143  0.4749
  166SAPE   O2218678   1.531   0.538   6.400  0.5257 -0.0602  0.2177
  166SAPE   C2218679   1.648   0.399   6.565 -0.9882  0.0787  0.0531
  166SAPE   H2R18680   1.576   0.365   6.643 -1.4666  1.3803  0.2045
  166SAPE   H2S18681   1.723   0.320   6.542  0.0229  1.7188 -2.6775
  166SAPE    C318682   1.353   0.250   6.239  0.4867 -0.3481 -0.4152
  166SAPE    HX18683   1.397   0.148   6.228 -0.8206 -0.9370 -0.3522
  166SAPE    HY18684   1.297   0.286   6.150 -1.1355  0.9910  1.0732
  166SAPE   O3118685   1.281   0.255   6.370 -0.4112  0.4378  0.2240
  166SAPE   C3118686   1.177   0.333   6.378 -0.1689  0.4157  0.3708
  166SAPE   O3218687   1.119   0.390   6.283 -0.2403 -0.4845  0.1642
  166SAPE   C3218688   1.132   0.314   6.523  0.4500  0.1469 -0.3797
  166SAPE   H2X18689   1.145   0.206   6.545 -1.3635  0.1534  0.8705
  166SAPE   H2Y18690   1.023   0.332   6.529  0.4840  0.2063  0.1195
  166SAPE   C2318691   1.726   0.525   6.612  0.1661 -0.2875 -0.1936
  166SAPE   H3R18692   1.656   0.592   6.668  2.2671  0.7111  1.3745
  166SAPE   H3S18693   1.761   0.577   6.520 -0.4786  0.0192 -0.2716
  166SAPE   C2418694   1.846   0.483   6.706 -0.2036  0.3025 -0.0182
  166SAPE   H4R18695   1.922   0.425   6.651 -1.1227 -1.3526  0.4001
  166SAPE   H4S18696   1.799   0.409   6.775 -0.4653  1.3434  0.9661
  166SAPE   C2518697   1.913   0.598   6.776 -0.5189 -0.4781 -0.0621
  166SAPE   H5R18698   1.982   0.661   6.717 -1.4445  2.1243  1.4361
  166SAPE   C2618699   1.887   0.644   6.898  0.6141 -0.3252 -0.0553
  166SAPE   H6R18700   1.947   0.725   6.942  2.4015 -0.7730 -1.5489
  166SAPE   C2718701   1.777   0.589   6.989 -0.1613 -0.4468  0.5015
  166SAPE   H7R18702   1.691   0.559   6.925 -2.0873 -0.4360  2.9542
  166SAPE   H7S18703   1.737   0.672   7.051  1.3634  0.9851 -0.3449
  166SAPE   C2818704   1.807   0.462   7.069  0.1271 -0.5726 -0.3762
  166SAPE   H8R18705   1.822   0.375   7.004  0.5782 -0.1890 -0.7964
  166SAPE   C2918706   1.841   0.454   7.200  0.2972 -0.1881 -0.0790
  166SAPE   H9R18707   1.861   0.352   7.236 -0.3932  0.4909  2.4111
  166SAPE  C21018708   1.834   0.559   7.307 -0.0093  1.1761 -0.5503
  166SAPE  H10R18709   1.765   0.642   7.282 -0.9678  0.3625 -0.6311
  166SAPE  H10S18710   1.932   0.612   7.309 -0.1430  1.4018  0.5876
  166SAPE  C21118711   1.791   0.505   7.443 -1.4954 -0.2239  0.4954
  166SAPE  H11R18712   1.750   0.403   7.447 -2.6995  0.2517  0.9079
  166SAPE  C21218713   1.813   0.564   7.562  0.0122  0.6820 -0.5250
  166SAPE  H12R18714   1.769   0.514   7.650  1.5753  1.1928  0.5987
  166SAPE  C21318715   1.873   0.699   7.603  1.0305 -0.3345  0.3190
  166SAPE  H13R18716   1.921   0.751   7.517 -1.9761  1.7879 -0.2574
  166SAPE  H13S18717   1.957   0.689   7.674  1.8818  3.7738  0.1126
  166SAPE  C21418718   1.762   0.795   7.641 -0.3681 -0.0121 -1.0714
  166SAPE  H14R18719   1.677   0.823   7.579 -1.3511 -3.7850 -1.7208
  166SAPE  C21518720   1.771   0.857   7.764 -0.5569  0.2517  0.3819
  166SAPE  H15R18721   1.695   0.934   7.786 -1.7764 -0.6443 -0.5395
  166SAPE  C21618722   1.872   0.856   7.875  0.2727  0.4436 -0.3784
  166SAPE  H16R18723   1.936   0.947   7.871  1.2479  0.0343  2.6422
  166SAPE  H16S18724   1.939   0.767   7.875 -1.4053 -0.8738  0.2619
  166SAPE  C21718725   1.797   0.852   8.012 -0.4851  0.5007 -0.3960
  166SAPE  H17R18726   1.748   0.752   8.014  1.7276 -0.7229  3.6446
  166SAPE  H17S18727   1.725   0.935   8.020  1.2557  2.1179 -0.7512
  166SAPE  C21818728   1.887   0.861   8.136 -0.3816  0.7598 -0.3637
  166SAPE  H18R18729   1.957   0.946   8.124  0.9961 -0.5071 -1.7513
  166SAPE  H18S18730   1.959   0.776   8.136  0.9745  1.8551  0.5403
  166SAPE  C21918731   1.812   0.877   8.268  0.7231 -0.7574 -0.1839
  166SAPE  H19R18732   1.732   0.954   8.265  0.3197 -1.1285  0.6996
  166SAPE  H19S18733   1.885   0.903   8.347  0.0362  1.4806 -0.2200
  166SAPE  C22018734   1.731   0.753   8.308 -0.1375  0.7886  0.3838
  166SAPE  H20R18735   1.649   0.724   8.239  0.9503 -0.3024 -0.4925
  166SAPE  H20S18736   1.695   0.766   8.412  2.0757 -4.3487  2.1120
  166SAPE  H20T18737   1.796   0.663   8.306  0.2299  1.0560 -1.1960
  166SAPE   C3318738   1.223   0.385   6.619 -0.3536  0.4203  0.1509
  166SAPE   H3X18739   1.231   0.492   6.590  1.3188  1.2079  3.0861
  166SAPE   H3Y18740   1.329   0.353   6.615 -0.3053  0.4807  0.7515
  166SAPE   C3418741   1.193   0.360   6.769 -0.9974 -0.0348 -0.6340
  166SAPE   H4X18742   1.201   0.250   6.779  1.9204  0.1720  0.2740
  166SAPE   H4Y18743   1.088   0.386   6.794 -0.6581  1.5478 -0.7293
  166SAPE   C3518744   1.302   0.420   6.871  0.1891 -0.1140  0.4641
  166SAPE   H5X18745   1.294   0.531   6.864  2.8517  0.1129  0.1251
  166SAPE   H5Y18746   1.397   0.377   6.835 -0.9940 -0.4117 -2.5903
  166SAPE   C3618747   1.269   0.381   7.019  0.6077  0.7694  0.8179
  166SAPE   H6X18748   1.280   0.272   7.038 -1.3896 -0.0461 -2.0287
  166SAPE   H6Y18749   1.163   0.411   7.033  0.4493  0.7965 -0.3644
  166SAPE   C3718750   1.356   0.452   7.124  0.8222 -0.1777  1.1364
  166SAPE   H7X18751   1.340   0.560   7.103  1.8797 -0.1817  0.1987
  166SAPE   H7Y18752   1.466   0.442   7.119  1.3496  4.0850  0.4232
  166SAPE   C3818753   1.311   0.419   7.271 -0.2776  0.4558  0.5935
  166SAPE   H8X18754   1.316   0.309   7.283  2.3638  0.5714  1.2347
  166SAPE   H8Y18755   1.204   0.448   7.270  0.2851  2.6618 -0.2115
  166SAPE   C3918756   1.387   0.486   7.386 -0.0267 -0.3318  0.1078
  166SAPE   H9X18757   1.408   0.593   7.365 -0.4082 -0.3434 -0.3406
  166SAPE   H9Y18758   1.488   0.441   7.400  0.6816  1.0941 -0.2813
  166SAPE  C31018759   1.300   0.462   7.510 -0.6338 -0.2917  0.7004
  166SAPE  H10X18760   1.329   0.371   7.567 -1.2404 -0.2505  1.0922
  166SAPE  H10Y18761   1.192   0.465   7.483 -0.0138 -0.8401 -2.0433
  166SAPE  C31118762   1.312   0.566   7.618  0.6373 -0.4074 -0.2128
  166SAPE  H11X18763   1.269   0.524   7.711  1.5166 -0.6735  0.0816
  166SAPE  H11Y18764   1.261   0.662   7.595  0.3411 -0.5265 -0.0669
  166SAPE  C31218765   1.461   0.592   7.661  0.2103 -0.0830  0.1535
  166SAPE  H12X18766   1.509   0.649   7.579 -0.4582 -0.2453 -0.3603
  166SAPE  H12Y18767   1.517   0.500   7.688 -0.2757 -0.1709  0.8923
  166SAPE  C31318768   1.465   0.682   7.781 -0.0133  0.1523 -0.0715
  166SAPE  H13X18769   1.429   0.787   7.784 -2.1630 -0.5588  2.3800
  166SAPE  H13Y18770   1.574   0.684   7.803  0.3611 -2.1614 -1.4502
  166SAPE  C31418771   1.411   0.608   7.907 -0.4232  0.5655 -0.1496
  166SAPE  H14X18772   1.456   0.507   7.914 -1.1116  0.2551 -0.0827
  166SAPE  H14Y18773   1.301   0.593   7.903 -0.4673  0.2308  1.4439
  166SAPE  C31518774   1.429   0.687   8.038 -0.0985 -0.4006 -0.2214
  166SAPE  H15X18775   1.372   0.782   8.028 -0.8984 -0.6825  1.3333
  166SAPE  H15Y18776   1.533   0.723   8.054  0.5351 -1.0986 -2.4088
  166SAPE  C31618777   1.373   0.620   8.165 -0.6233 -0.1401  0.4134
  166SAPE  H16X18778   1.262   0.614   8.164 -0.6135 -0.4933  1.0263
  166SAPE  H16Y18779   1.396   0.682   8.254  2.7637 -2.4222  1.3325
  166SAPE  C31718780   1.439   0.489   8.206  0.0370  0.0075 -0.0763
  166SAPE  H17X18781   1.548   0.496   8.224 -0.0984 -1.7351  1.7103
  166SAPE  H17Y18782   1.410   0.414   8.130 -2.3871  2.0547 -1.3344
  166SAPE  C31818783   1.378   0.446   8.342  0.0428 -0.2699  0.2920
  166SAPE  H18X18784   1.431   0.363   8.393 -0.7655 -0.2788  1.1250
  166SAPE  H18Y18785   1.276   0.411   8.316  0.1421 -0.4698  0.1689
  166SAPE  H18Z18786   1.376   0.537   8.406 -2.0266  1.5736 -2.1813
  167SAPE     N18787   1.840   6.216   6.173  0.0024 -0.4266 -0.0763
  167SAPE   HN118788   1.805   6.179   6.082 -0.0634 -0.0658 -0.1979
  167SAPE   HN218789   1.943   6.234   6.177 -0.2312  0.9676 -0.0930
  167SAPE   HN318790   1.809   6.146   6.243 -0.6227 -1.3204 -1.2074
  167SAPE   C1218791   1.773   6.351   6.194  0.5013  0.1231  0.4676
  167SAPE  H12A18792   1.667   6.324   6.176  0.5584  0.7805 -0.9968
  167SAPE  H12B18793   1.795   6.422   6.112  2.9346 -1.3722 -0.2685
  167SAPE   C1118794   1.796   6.415   6.334  0.0073  0.0015  0.5717
  167SAPE  H11A18795   1.734   6.353   6.403  0.7359  0.6613  1.8660
  167SAPE  H11B18796   1.744   6.513   6.325 -1.7324 -1.0792 -2.5427
  167SAPE     P18797   2.024   6.508   6.288 -0.0837 -0.4300 -0.0623
  167SAPE   O1318798   2.158   6.517   6.347 -0.4551  0.0806 -0.5617
  167SAPE   O1418799   2.019   6.458   6.147  0.5399 -0.2060 -0.2655
  167SAPE   O1218800   1.935   6.418   6.383  0.1568  0.0718  0.2918
  167SAPE   O1118801   1.955   6.645   6.301  0.4357  0.0171 -0.0515
  167SAPE    C118802   2.004   6.749   6.393 -0.0114 -0.2443 -0.4810
  167SAPE    HA18803   2.115   6.750   6.401  0.2311  1.8345 -2.7256
  167SAPE    HB18804   1.975   6.852   6.363 -0.4761 -0.2693 -0.1309
  167SAPE    C218805   1.937   6.727   6.533  0.0006 -0.1312  0.2510
  167SAPE    HS18806   1.981   6.630   6.565  0.5775  0.1123  0.2088
  167SAPE   O2118807   1.789   6.715   6.517 -0.0922 -0.1778  0.1007
  167SAPE   C2118808   1.721   6.658   6.610  0.0636  0.4701 -0.3211
  167SAPE   O2218809   1.768   6.597   6.706  0.0429  0.0038  0.4571
  167SAPE   C2218810   1.577   6.650   6.561 -0.2886 -0.4118  0.1071
  167SAPE   H2R18811   1.580   6.613   6.456 -2.1097  2.0608 -0.9136
  167SAPE   H2S18812   1.537   6.576   6.634  0.1177 -0.4351  0.3091
  167SAPE    C318813   1.966   6.837   6.636  0.2243 -0.4010  0.9827
  167SAPE    HX18814   1.904   6.922   6.599  0.5014 -1.1313 -1.3392
  167SAPE    HY18815   2.072   6.869   6.634 -0.0537  0.5372 -0.5165
  167SAPE   O3118816   1.917   6.812   6.772  0.4474 -0.2652 -0.4416
  167SAPE   C3118817   1.986   6.721   6.836 -0.1251 -0.1687 -0.1961
  167SAPE   O3218818   2.081   6.650   6.790  0.4046 -0.2737  0.0149
  167SAPE   C3218819   1.934   6.705   6.983 -0.1644  0.6573 -0.1474
  167SAPE   H2X18820   1.843   6.642   6.974 -0.4371  0.9294  0.6196
  167SAPE   H2Y18821   1.892   6.800   7.022 -1.3872  0.4046 -0.7887
  167SAPE   C2318822   1.492   6.778   6.558  0.1327 -0.3178 -0.6646
  167SAPE   H3R18823   1.391   6.774   6.511  1.0375  2.6830 -3.1626
  167SAPE   H3S18824   1.540   6.842   6.481 -3.3692 -0.3960 -3.1485
  167SAPE   C2418825   1.496   6.845   6.696  0.5418  0.1059 -0.0295
  167SAPE   H4R18826   1.444   6.942   6.679 -0.8012 -0.3193  1.3457
  167SAPE   H4S18827   1.595   6.860   6.744  0.7822  1.3675 -0.8922
  167SAPE   C2518828   1.390   6.770   6.789 -0.7773  0.1353 -0.3090
  167SAPE   H5R18829   1.289   6.765   6.746 -1.3579 -1.5946  1.1523
  167SAPE   C2618830   1.421   6.721   6.914 -0.7813  0.5978  0.7454
  167SAPE   H6R18831   1.337   6.677   6.969 -0.8905 -1.4854 -0.9304
  167SAPE   C2718832   1.558   6.724   6.984 -0.5530  0.0061  0.4919
  167SAPE   H7R18833   1.635   6.689   6.913  1.5239  2.9619  1.0767
  167SAPE   H7S18834   1.557   6.643   7.060 -2.0793 -0.0771  0.4204
  167SAPE   C2818835   1.600   6.868   7.023 -0.0208  0.0437  0.0387
  167SAPE   H8R18836   1.582   6.937   6.940  1.7271 -1.3759 -1.5883
  167SAPE   C2918837   1.639   6.903   7.146 -0.1483 -0.5059 -0.2563
  167SAPE   H9R18838   1.667   7.007   7.168  1.3621 -0.8411 -0.4898
  167SAPE  C21018839   1.658   6.811   7.262  0.2387  0.3682  0.6090
  167SAPE  H10R18840   1.701   6.715   7.226 -1.4988 -1.1828  2.4555
  167SAPE  H10S18841   1.558   6.778   7.294 -0.7908 -0.3166 -2.9261
  167SAPE  C21118842   1.762   6.858   7.360  0.2598 -0.0684 -0.3737
  167SAPE  H11R18843   1.837   6.928   7.321  0.4720  2.0109  3.2886
  167SAPE  C21218844   1.754   6.838   7.493  0.6047  0.0344 -0.0584
  167SAPE  H12R18845   1.830   6.881   7.560  0.0061  2.8489 -1.0223
  167SAPE  C21318846   1.642   6.761   7.564 -0.4263  0.1147  0.1437
  167SAPE  H13R18847   1.675   6.655   7.575  1.0433  0.3161 -1.7895
  167SAPE  H13S18848   1.546   6.754   7.510  0.1056 -1.4888 -0.6768
  167SAPE  C21418849   1.623   6.835   7.699 -0.0956  0.2928  0.1758
  167SAPE  H14R18850   1.578   6.935   7.695  2.9789  1.8158  1.0117
  167SAPE  C21518851   1.653   6.782   7.820  0.6625  0.5195 -0.0568
  167SAPE  H15R18852   1.634   6.846   7.908  0.1797 -0.2479  0.4127
  167SAPE  C21618853   1.721   6.650   7.852  0.2955 -0.4220  0.1892
  167SAPE  H16R18854   1.827   6.664   7.882  0.3595  1.7284 -0.8702
  167SAPE  H16S18855   1.731   6.589   7.759  0.9181 -0.8592  0.5313
  167SAPE  C21718856   1.645   6.562   7.951  0.6393 -0.6724 -0.0443
  167SAPE  H17R18857   1.660   6.455   7.927 -0.4580 -1.1135  1.1251
  167SAPE  H17S18858   1.536   6.567   7.934  0.2217 -2.0247  1.9575
  167SAPE  C21818859   1.661   6.593   8.100  0.0620  0.6054 -0.1788
  167SAPE  H18R18860   1.590   6.676   8.123 -0.7310 -0.7654  2.7683
  167SAPE  H18S18861   1.764   6.630   8.120  0.7412 -1.2014 -0.1421
  167SAPE  C21918862   1.649   6.472   8.192 -0.0335  0.0510  0.4642
  167SAPE  H19R18863   1.553   6.419   8.172 -0.3137  0.6239  0.2724
  167SAPE  H19S18864   1.649   6.505   8.297  0.8949  0.8029  0.2395
  167SAPE  C22018865   1.775   6.380   8.170  0.3233 -0.1466 -0.1731
  167SAPE  H20R18866   1.873   6.431   8.176 -0.4644  1.3167  1.0883
  167SAPE  H20S18867   1.764   6.321   8.076 -2.4110 -1.7889  1.0550
  167SAPE  H20T18868   1.775   6.303   8.250 -0.3430  0.3254  0.2885
  167SAPE   C3318869   2.027   6.630   7.085  0.2366  0.0534  0.1564
  167SAPE   H3X18870   2.120   6.690   7.090  0.5808 -0.5061  0.5439
  167SAPE   H3Y18871   2.043   6.536   7.029 -1.7116 -1.2579  1.6534
  167SAPE   C3418872   1.966   6.597   7.223 -0.5657  0.2331  0.5367
  167SAPE   H4X18873   1.857   6.576   7.224 -0.7179  0.9842  0.6138
  167SAPE   H4Y18874   1.969   6.696   7.273 -1.0842 -0.0467  1.1317
  167SAPE   C3518875   2.036   6.495   7.310 -0.9032 -0.1295 -0.2286
  167SAPE   H5X18876   2.141   6.532   7.319 -1.3257  0.8057  1.2991
  167SAPE   H5Y18877   2.043   6.393   7.268 -0.8351  0.0069 -0.5549
  167SAPE   C3618878   1.972   6.496   7.450 -0.6893  0.1243 -0.0838
  167SAPE   H6X18879   1.879   6.436   7.459  0.5536 -1.7292  1.1644
  167SAPE   H6Y18880   1.946   6.602   7.467 -1.9049  0.0616 -1.4304
  167SAPE   C3718881   2.064   6.450   7.563  0.1512  0.0993  0.5825
  167SAPE   H7X18882   2.164   6.498   7.573  0.7232 -1.4082  2.7614
  167SAPE   H7Y18883   2.069   6.341   7.546 -3.9351  0.0128 -1.1094
  167SAPE   C3818884   1.997   6.480   7.700 -0.8423 -0.0740 -0.4597
  167SAPE   H8X18885   1.890   6.453   7.698 -0.5657 -1.2369 -0.0932
  167SAPE   H8Y18886   2.001   6.591   7.690 -0.1010  0.0901  1.2900
  167SAPE   C3918887   2.079   6.427   7.812  0.5739  0.0695 -0.2256
  167SAPE   H9X18888   2.093   6.319   7.793 -1.8107 -0.4482  0.5906
  167SAPE   H9Y18889   2.025   6.417   7.909  2.1536  1.4976  0.8742
  167SAPE  C31018890   2.213   6.494   7.825 -0.2562  0.2302  0.2698
  167SAPE  H10X18891   2.190   6.602   7.838 -1.6952 -0.0931  0.5736
  167SAPE  H10Y18892   2.275   6.487   7.733  0.8767  2.6320  0.7847
  167SAPE  C31118893   2.289   6.434   7.949 -0.2957 -0.6210  0.4775
  167SAPE  H11X18894   2.290   6.327   7.921 -2.9272 -0.4712 -0.4931
  167SAPE  H11Y18895   2.224   6.438   8.039 -0.3808 -0.0296  0.3993
  167SAPE  C31218896   2.434   6.488   7.966  0.2326 -0.1670 -0.0374
  167SAPE  H12X18897   2.428   6.589   8.013 -1.9931 -0.9304  1.5354
  167SAPE  H12Y18898   2.475   6.483   7.863 -0.1904 -0.4907 -0.1969
  167SAPE  C31318899   2.522   6.411   8.063 -0.2974  0.0803  0.5138
  167SAPE  H13X18900   2.622   6.459   8.071 -0.5318  0.2251  3.9243
  167SAPE  H13Y18901   2.534   6.307   8.026 -0.0823 -0.5694  2.3170
  167SAPE  C31418902   2.471   6.396   8.207  0.2660 -0.3027  0.1255
  167SAPE  H14X18903   2.373   6.343   8.210  0.1254 -0.0105  0.8044
  167SAPE  H14Y18904   2.461   6.501   8.244 -0.5430 -0.8026  1.4054
  167SAPE  C31518905   2.571   6.348   8.316 -0.1254 -0.7572 -0.7161
  167SAPE  H15X18906   2.669   6.397   8.301 -1.3575  2.1085 -0.0630
  167SAPE  H15Y18907   2.572   6.237   8.310 -0.6987 -0.8549  0.6992
  167SAPE  C31618908   2.523   6.398   8.458 -0.3907 -0.5424 -0.2415
  167SAPE  H16X18909   2.420   6.357   8.464  0.5298 -3.0731 -0.3230
  167SAPE  H16Y18910   2.533   6.508   8.456  1.8103 -0.6687  0.3695
  167SAPE  C31718911   2.611   6.337   8.567 -0.1521 -0.6282  0.3170
  167SAPE  H17X18912   2.609   6.227   8.551 -1.4928 -0.9182  2.1368
  167SAPE  H17Y18913   2.566   6.364   8.665 -0.5862 -1.3762  0.3319
  167SAPE  C31818914   2.763   6.380   8.565  0.3835 -0.5609  0.3309
  167SAPE  H18X18915   2.777   6.487   8.588 -1.3575  0.0736 -1.3061
  167SAPE  H18Y18916   2.830   6.354   8.480 -0.0694 -1.3200  0.1950
  167SAPE  H18Z18917   2.805   6.316   8.646  0.1808  0.7433  1.5010
  168SAPE     N18918   5.080   2.713   6.694  0.2791  0.4769 -0.5299
  168SAPE   HN118919   5.096   2.616   6.727 -2.7137 -0.4498 -1.5151
  168SAPE   HN218920   4.982   2.744   6.707  0.3198  0.6530 -0.6429
  168SAPE   HN318921   5.091   2.714   6.590 -2.0582 -0.2710 -0.8355
  168SAPE   C1218922   5.167   2.821   6.748  0.2111  0.2776 -0.5916
  168SAPE  H12A18923   5.274   2.790   6.742 -0.3904 -2.7190  1.6390
  168SAPE  H12B18924   5.149   2.838   6.856  2.1734 -0.8205 -0.0505
  168SAPE   C1118925   5.131   2.962   6.686  0.1801 -0.4110 -0.0085
  168SAPE  H11A18926   5.171   3.046   6.746 -1.7994 -0.6338  1.7403
  168SAPE  H11B18927   5.020   2.974   6.694  0.0029 -2.2379  0.8339
  168SAPE     P18928   5.308   3.017   6.498  0.0353 -0.2791  0.1835
  168SAPE   O1318929   5.406   2.905   6.495  0.4091  0.7714 -0.5896
  168SAPE   O1418930   5.288   3.082   6.368 -0.2701  0.0527 -0.2641
  168SAPE   O1218931   5.169   2.964   6.547  0.8252 -0.2198 -0.6052
  168SAPE   O1118932   5.347   3.121   6.606  0.2879 -0.8224 -0.1227
  168SAPE    C118933   5.476   3.118   6.664  0.0810 -0.2080 -1.2475
  168SAPE    HA18934   5.553   3.079   6.594 -1.3307 -1.1956 -2.3181
  168SAPE    HB18935   5.488   3.219   6.708 -1.5122 -0.7703  0.6232
  168SAPE    C218936   5.487   3.022   6.790  0.2261 -0.2484  0.2670
  168SAPE    HS18937   5.440   2.924   6.767 -1.7478  0.7672 -0.2824
  168SAPE   O2118938   5.413   3.081   6.902  0.3655  0.1165  0.1473
  168SAPE   C2118939   5.352   3.000   6.987  0.3936 -0.7165 -0.2185
  168SAPE   O2218940   5.339   2.877   6.981  0.5539  0.0627 -0.4598
  168SAPE   C2218941   5.317   3.080   7.111  0.2886 -0.0305 -0.4384
  168SAPE   H2R18942   5.267   3.176   7.088 -0.8505 -1.0377 -2.4419
  168SAPE   H2S18943   5.241   3.013   7.157  0.8569 -0.6207 -0.3346
  168SAPE    C318944   5.633   3.008   6.836 -0.1546  0.2857 -0.0061
  168SAPE    HX18945   5.667   3.112   6.851  0.9093  0.1264 -1.2227
  168SAPE    HY18946   5.693   2.961   6.755 -2.0617 -1.0953 -0.7197
  168SAPE   O3118947   5.647   2.932   6.957 -0.0848 -0.0683 -0.2805
  168SAPE   C3118948   5.771   2.889   6.994  0.0193  1.1619 -0.0791
  168SAPE   O3218949   5.867   2.889   6.920  0.0325  0.1904 -0.2413
  168SAPE   C3218950   5.780   2.837   7.139  0.2745  0.0521  0.5842
  168SAPE   H2X18951   5.727   2.739   7.141 -0.0318  0.1419 -1.1169
  168SAPE   H2Y18952   5.736   2.919   7.199 -1.0199  0.6644 -1.1271
  168SAPE   C2318953   5.431   3.099   7.216 -0.0616 -0.1596 -0.2037
  168SAPE   H3R18954   5.401   3.185   7.279 -1.2131 -2.0620  2.0021
  168SAPE   H3S18955   5.522   3.117   7.154  0.9984 -1.3306  0.9673
  168SAPE   C2418956   5.458   2.981   7.309  0.2847 -0.1967 -0.2940
  168SAPE   H4R18957   5.489   2.892   7.251 -2.2308 -1.2146 -0.2087
  168SAPE   H4S18958   5.365   2.957   7.365  1.1007 -1.3440  0.6206
  168SAPE   C2518959   5.574   3.011   7.405 -0.6309 -0.9378 -0.4930
  168SAPE   H5R18960   5.656   3.066   7.355 -2.0815  0.2663 -1.6726
  168SAPE   C2618961   5.561   3.012   7.536 -0.0249 -0.1999 -0.5257
  168SAPE   H6R18962   5.645   3.054   7.594  0.1993  0.2379 -1.1527
  168SAPE   C2718963   5.439   2.972   7.614 -0.3621  0.6658 -0.2656
  168SAPE   H7R18964   5.474   2.893   7.684  1.6653  0.3164 -1.5813
  168SAPE   H7S18965   5.376   2.904   7.553  0.7508 -1.0533  0.4242
  168SAPE   C2818966   5.367   3.087   7.686 -0.6636 -0.7189 -0.1387
  168SAPE   H8R18967   5.299   3.145   7.623 -0.2789 -0.7412 -0.5792
  168SAPE   C2918968   5.386   3.123   7.818 -0.3085 -0.0559  0.6438
  168SAPE   H9R18969   5.323   3.200   7.865 -2.0029  0.0149 -1.5809
  168SAPE  C21018970   5.485   3.063   7.911  0.8013  0.5598  0.1738
  168SAPE  H10R18971   5.540   3.136   7.975 -0.7774  0.1506  2.1183
  168SAPE  H10S18972   5.572   3.022   7.856  2.1143  0.6380  2.1021
  168SAPE  C21118973   5.410   2.952   7.992 -0.1406  0.0012 -0.3056
  168SAPE  H11R18974   5.398   2.856   7.940  0.6201 -1.2397  1.7185
  168SAPE  C21218975   5.348   2.969   8.116  0.1268 -0.3379  0.2007
  168SAPE  H12R18976   5.299   2.881   8.160  0.6586 -1.2563 -0.9588
  168SAPE  C21318977   5.336   3.088   8.207  0.3449 -0.1472  0.1688
  168SAPE  H13R18978   5.245   3.151   8.204  1.3720  1.4796  1.3236
  168SAPE  H13S18979   5.409   3.167   8.179 -1.2413  0.9429 -1.1038
  168SAPE  C21418980   5.354   3.044   8.353  0.0769  0.2177 -0.9422
  168SAPE  H14R18981   5.394   2.942   8.365 -1.1808 -0.1931  0.0378
  168SAPE  C21518982   5.340   3.121   8.467 -0.3081 -0.5186  0.4764
  168SAPE  H15R18983   5.358   3.082   8.568 -1.3672  0.5549  1.0922
  168SAPE  C21618984   5.301   3.268   8.473 -1.0279 -1.0023  0.4979
  168SAPE  H16R18985   5.196   3.263   8.509 -1.7568  0.5876 -1.2609
  168SAPE  H16S18986   5.300   3.324   8.377 -1.8881 -0.8289  0.5953
  168SAPE  C21718987   5.384   3.360   8.567  0.5918  0.3383  0.0066
  168SAPE  H17R18988   5.359   3.468   8.557  0.3503  0.1884 -1.2217
  168SAPE  H17S18989   5.493   3.353   8.547  0.4623  1.2631 -1.1833
  168SAPE  C21818990   5.365   3.335   8.715 -0.2373 -0.0172 -0.3562
  168SAPE  H18R18991   5.405   3.235   8.743 -1.4436 -0.2355  0.6690
  168SAPE  H18S18992   5.258   3.332   8.743  0.3631 -0.2525  2.1750
  168SAPE  C21918993   5.436   3.431   8.813  0.0402  0.1197  0.5290
  168SAPE  H19R18994   5.414   3.537   8.785  1.5170  0.2696 -0.1824
  168SAPE  H19S18995   5.545   3.428   8.790  0.1299  1.4041  0.7039
  168SAPE  C22018996   5.411   3.404   8.963  0.1894 -0.3408 -0.4676
  168SAPE  H20R18997   5.469   3.470   9.031  0.7166 -0.8601 -0.4037
  168SAPE  H20S18998   5.452   3.302   8.976  2.8971  0.3979 -2.2989
  168SAPE  H20T18999   5.308   3.405   9.004  1.0955  2.5949  2.1211
  168SAPE   C3319000   5.931   2.823   7.190 -0.4045 -0.5530  0.3635
  168SAPE   H3X19001   5.981   2.923   7.192 -0.0161 -0.7521  1.7559
  168SAPE   H3Y19002   5.993   2.764   7.119  1.4310  1.0002  0.5854
  168SAPE   C3419003   5.932   2.769   7.339  0.6885 -0.0018  0.4418
  168SAPE   H4X19004   5.887   2.669   7.325 -1.8149  1.1839 -0.5420
  168SAPE   H4Y19005   5.862   2.835   7.394 -1.5319 -1.9722  0.1321
  168SAPE   C3519006   6.065   2.755   7.417  0.0207  0.3737  0.3064
  168SAPE   H5X19007   6.113   2.847   7.457 -0.3442 -0.2808  2.3496
  168SAPE   H5Y19008   6.146   2.712   7.354  0.1976 -3.3613  2.7663
  168SAPE   C3619009   6.043   2.653   7.534 -0.2278  0.1168  0.7018
  168SAPE   H6X19010   5.993   2.564   7.492  1.2148 -0.4655  0.1461
  168SAPE   H6Y19011   5.971   2.706   7.600  0.1152 -0.0371  1.2074
  168SAPE   C3719012   6.170   2.624   7.611  0.0425  0.6361 -0.9582
  168SAPE   H7X19013   6.236   2.712   7.626  2.2875 -0.9993 -0.6766
  168SAPE   H7Y19014   6.231   2.545   7.560 -0.6627  0.0205 -0.8644
  168SAPE   C3819015   6.147   2.567   7.752  0.5155 -0.1188 -0.2362
  168SAPE   H8X19016   6.061   2.497   7.744  1.7313 -1.4550 -3.9776
  168SAPE   H8Y19017   6.119   2.652   7.818  0.1604  1.2479 -2.0402
  168SAPE   C3919018   6.273   2.491   7.805 -0.5661 -0.4132  0.0557
  168SAPE   H9X19019   6.366   2.549   7.819  0.8726 -1.4645 -4.0168
  168SAPE   H9Y19020   6.311   2.422   7.727  0.8937  0.6236 -0.1856
  168SAPE  C31019021   6.242   2.429   7.937 -0.1373  0.4137  0.3630
  168SAPE  H10X19022   6.152   2.364   7.929  0.7459 -0.6685 -1.2292
  168SAPE  H10Y19023   6.219   2.506   8.014  1.2379 -0.0061  1.2265
  168SAPE  C31119024   6.358   2.346   7.991  0.0417  0.4626  0.2566
  168SAPE  H11X19025   6.446   2.380   7.933  0.6495 -0.3314  0.6932
  168SAPE  H11Y19026   6.348   2.237   7.972 -0.3214  0.7073 -1.0117
  168SAPE  C31219027   6.373   2.367   8.142  0.1342 -0.3126 -0.8847
  168SAPE  H12X19028   6.274   2.351   8.188  1.4193 -1.9896  1.5277
  168SAPE  H12Y19029   6.402   2.472   8.162  0.2611 -0.2668 -1.2947
  168SAPE  C31319030   6.483   2.273   8.190  0.8245 -0.6017 -0.3417
  168SAPE  H13X19031   6.574   2.329   8.160 -0.3745  1.2202 -0.7401
  168SAPE  H13Y19032   6.479   2.175   8.138  0.7143  0.2426 -1.9985
  168SAPE  C31419033   6.478   2.256   8.344  0.4123  0.3613  0.2998
  168SAPE  H14X19034   6.487   2.351   8.400 -0.9242  0.5875  0.1598
  168SAPE  H14Y19035   6.573   2.202   8.362  0.0445 -0.2474  0.4404
  168SAPE  C31519036   6.363   2.166   8.393 -0.0392  0.2365  0.0212
  168SAPE  H15X19037   6.360   2.070   8.336  3.2132  0.8095 -1.3585
  168SAPE  H15Y19038   6.268   2.220   8.375 -1.5462 -0.7576  4.0918
  168SAPE  C31619039   6.385   2.131   8.542 -0.7826  0.1030 -0.4765
  168SAPE  H16X19040   6.367   2.220   8.607 -0.7455  0.8963 -1.5392
  168SAPE  H16Y19041   6.493   2.106   8.543 -0.5649  0.9846  1.1074
  168SAPE  C31719042   6.306   2.002   8.592 -0.1272  0.1472 -0.3286
  168SAPE  H17X19043   6.339   1.984   8.696 -1.4869 -0.2448  0.0456
  168SAPE  H17Y19044   6.347   1.925   8.523  0.1714 -1.0169  1.0975
  168SAPE  C31819045   6.153   2.011   8.574  0.1362  0.3343 -0.1542
  168SAPE  H18X19046   6.111   2.106   8.614 -2.9157 -0.5469 -1.0276
  168SAPE  H18Y19047   6.114   1.932   8.642  1.4050  0.1269  0.3661
  168SAPE  H18Z19048   6.121   1.991   8.470 -2.3834 -0.0786  0.6456
  169SAPE     N19049   3.057   5.636   6.104 -0.0286  0.4844  0.5071
  169SAPE   HN119050   2.987   5.649   6.180 -0.3748  0.8727  0.1313
  169SAPE   HN219051   3.143   5.592   6.141 -0.0837 -0.6025 -0.5830
  169SAPE   HN319052   3.088   5.727   6.064 -0.2584  0.2154 -0.2947
  169SAPE   C1219053   3.011   5.542   5.994  0.6463 -0.4658 -0.0223
  169SAPE  H12A19054   3.079   5.555   5.907  0.6278 -0.8707 -0.1010
  169SAPE  H12B19055   2.908   5.566   5.960  0.9923  1.3186  0.1209
  169SAPE   C1119056   3.013   5.398   6.047  0.5497  0.2348 -0.0216
  169SAPE  H11A19057   2.933   5.355   5.982  1.4727  0.5052 -1.3770
  169SAPE  H11B19058   2.981   5.385   6.153  4.0881 -1.7308  0.9521
  169SAPE     P19059   3.253   5.335   6.125 -0.2954  0.1828  0.1218
  169SAPE   O1319060   3.383   5.304   6.054 -0.0049 -0.1239 -0.2954
  169SAPE   O1419061   3.238   5.465   6.200  0.0395  0.3550 -0.2087
  169SAPE   O1219062   3.134   5.325   6.027  0.2507 -0.5880 -0.2436
  169SAPE   O1119063   3.227   5.225   6.229  0.4520  0.2185 -0.8764
  169SAPE    C119064   3.133   5.232   6.334 -0.1095  0.6525 -0.4793
  169SAPE    HA19065   3.073   5.325   6.349 -0.4008  0.2399  0.9845
  169SAPE    HB19066   3.050   5.160   6.318 -0.1042  1.0003 -2.4355
  169SAPE    C219067   3.208   5.215   6.468  0.4786  0.1560  0.5180
  169SAPE    HS19068   3.137   5.209   6.553 -1.1158  1.3355 -0.6761
  169SAPE   O2119069   3.301   5.324   6.491  0.2527 -0.0934  0.4937
  169SAPE   C2119070   3.245   5.443   6.529 -0.1109 -0.4036  1.1909
  169SAPE   O2219071   3.126   5.464   6.549 -0.1192 -0.0394 -0.0563
  169SAPE   C2219072   3.373   5.539   6.553  0.1649  0.1185 -0.3146
  169SAPE   H2R19073   3.420   5.547   6.453  3.0274 -1.3965  0.8048
  169SAPE   H2S19074   3.352   5.643   6.585 -0.3691  0.4593 -1.6778
  169SAPE    C319075   3.299   5.087   6.474  0.5787  0.2206 -1.0927
  169SAPE    HX19076   3.369   5.085   6.388  2.3483 -2.0674  0.2983
  169SAPE    HY19077   3.227   5.003   6.464 -0.7006  0.4051  3.8501
  169SAPE   O3119078   3.369   5.074   6.602 -0.1817 -0.2816 -0.3250
  169SAPE   C3119079   3.291   5.039   6.700 -0.0290 -0.2161  0.0724
  169SAPE   O3219080   3.177   5.001   6.698  0.4665 -0.2508 -0.3174
  169SAPE   C3219081   3.376   5.030   6.829  0.1953 -0.1943 -0.2316
  169SAPE   H2X19082   3.437   5.123   6.835 -2.3773  1.6998 -1.5665
  169SAPE   H2Y19083   3.456   4.953   6.819  0.7064  0.4924 -1.7078
  169SAPE   C2319084   3.474   5.467   6.656 -0.1700  0.6236  0.0531
  169SAPE   H3R19085   3.562   5.534   6.664 -1.1979  2.1317 -0.7886
  169SAPE   H3S19086   3.506   5.371   6.610 -0.3742  0.5379  0.0889
  169SAPE   C2419087   3.421   5.441   6.798  0.0987  0.3822 -0.6917
  169SAPE   H4R19088   3.348   5.360   6.777  0.2896  0.2953 -1.0166
  169SAPE   H4S19089   3.362   5.530   6.827 -0.5014 -0.6641  1.5425
  169SAPE   C2519090   3.522   5.407   6.901 -0.3445  0.0279 -0.8557
  169SAPE   H5R19091   3.614   5.364   6.859 -0.0626 -0.3502  0.1200
  169SAPE   C2619092   3.504   5.429   7.035 -0.0308  0.3820 -0.2335
  169SAPE   H6R19093   3.592   5.401   7.095  0.1029  1.6589  0.2011
  169SAPE   C2719094   3.384   5.484   7.103  0.0762 -0.3963 -0.3933
  169SAPE   H7R19095   3.360   5.427   7.196 -1.0455 -4.4202 -2.8714
  169SAPE   H7S19096   3.285   5.469   7.054 -1.5920  1.4357  2.1753
  169SAPE   C2819097   3.417   5.629   7.134  0.8871 -0.2430 -0.3035
  169SAPE   H8R19098   3.441   5.696   7.051 -1.9133  2.4523  0.8784
  169SAPE   C2919099   3.396   5.679   7.261 -0.2085  0.1786  0.4993
  169SAPE   H9R19100   3.402   5.787   7.280  0.6909  0.2389 -0.1060
  169SAPE  C21019101   3.343   5.602   7.385 -0.3885  0.4015 -0.7927
  169SAPE  H10R19102   3.261   5.529   7.367  0.3403 -0.6726  0.0918
  169SAPE  H10S19103   3.307   5.678   7.458  2.2353 -0.5430  1.6385
  169SAPE  C21119104   3.427   5.508   7.476  0.1032 -0.0286 -0.7136
  169SAPE  H11R19105   3.457   5.413   7.431  0.1703 -0.6314  0.5642
  169SAPE  C21219106   3.472   5.523   7.597  0.6123 -0.0199 -0.5002
  169SAPE  H12R19107   3.528   5.440   7.644  0.0974  0.0098  0.1855
  169SAPE  C21319108   3.459   5.647   7.689  0.4997 -0.7181 -0.2493
  169SAPE  H13R19109   3.439   5.740   7.632 -1.4795 -0.5810  0.5749
  169SAPE  H13S19110   3.558   5.670   7.732  0.0329  0.9765 -0.0272
  169SAPE  C21419111   3.362   5.646   7.799 -0.1688 -0.2008 -0.9515
  169SAPE  H14R19112   3.301   5.556   7.815  0.9879 -0.9587 -0.6031
  169SAPE  C21519113   3.333   5.747   7.883  0.3803 -0.1469  0.1258
  169SAPE  H15R19114   3.266   5.723   7.967  0.7646  0.7459  0.7095
  169SAPE  C21619115   3.398   5.885   7.889  0.0484 -0.1928 -0.8918
  169SAPE  H16R19116   3.473   5.891   7.807 -1.7398  0.4246 -2.5624
  169SAPE  H16S19117   3.459   5.887   7.982 -3.2983 -1.4886  1.5181
  169SAPE  C21719118   3.309   6.016   7.896  0.3351  0.8278  0.0446
  169SAPE  H17R19119   3.226   6.007   7.823  1.9663  0.5951 -1.8883
  169SAPE  H17S19120   3.368   6.103   7.860 -0.8229  1.3817 -0.5496
  169SAPE  C21819121   3.241   6.048   8.032  1.1570  0.0498  0.0606
  169SAPE  H18R19122   3.186   5.954   8.055  2.6817 -1.5360 -2.3289
  169SAPE  H18S19123   3.157   6.119   8.016  3.6732  2.7356 -2.2179
  169SAPE  C21919124   3.345   6.093   8.136 -0.4093  0.2246  0.1495
  169SAPE  H19R19125   3.305   6.187   8.180  0.6641 -0.1891  2.1150
  169SAPE  H19S19126   3.437   6.113   8.075  0.2759 -4.3284 -0.6505
  169SAPE  C22019127   3.385   6.000   8.248  0.9003 -0.5626  0.5093
  169SAPE  H20R19128   3.449   5.920   8.207  1.1431  0.4316 -1.1488
  169SAPE  H20S19129   3.285   5.976   8.290  0.1259  1.9999  0.3247
  169SAPE  H20T19130   3.452   6.056   8.317 -0.6420  1.5245  0.4384
  169SAPE   C3319131   3.285   5.015   6.950 -0.2009 -0.5243  0.6174
  169SAPE   H3X19132   3.354   4.988   7.033 -0.4700 -3.6896 -0.0891
  169SAPE   H3Y19133   3.226   4.922   6.944  0.5009 -0.8858 -1.4646
  169SAPE   C3419134   3.203   5.136   6.983  0.2186 -0.0577  0.4892
  169SAPE   H4X19135   3.122   5.164   6.913 -0.6870 -1.3596  0.9753
  169SAPE   H4Y19136   3.277   5.218   6.979  1.4198 -1.0794  1.0191
  169SAPE   C3519137   3.139   5.126   7.125  0.1818 -0.3398  0.2187
  169SAPE   H5X19138   3.064   5.045   7.119  0.4734 -0.4862 -3.0924
  169SAPE   H5Y19139   3.088   5.224   7.138 -1.8796 -0.9544 -2.3933
  169SAPE   C3619140   3.236   5.094   7.242 -0.4750 -0.4652 -0.2966
  169SAPE   H6X19141   3.312   5.175   7.238 -1.7893  0.7657 -1.5381
  169SAPE   H6Y19142   3.286   4.995   7.243  1.9555  0.6602 -1.8577
  169SAPE   C3719143   3.169   5.125   7.376  1.2217 -0.3024  0.7951
  169SAPE   H7X19144   3.068   5.078   7.386  0.7426  0.8999  1.8716
  169SAPE   H7Y19145   3.147   5.233   7.366 -0.5844 -0.7240 -0.5159
  169SAPE   C3819146   3.252   5.119   7.501  0.0557  0.2937  0.0276
  169SAPE   H8X19147   3.347   5.172   7.482  0.9584 -0.8951  1.0767
  169SAPE   H8Y19148   3.289   5.015   7.514  0.6251  0.3430 -1.0990
  169SAPE   C3919149   3.177   5.168   7.624  0.0532 -0.0417  0.0130
  169SAPE   H9X19150   3.078   5.117   7.624  0.2227 -0.4201  1.4450
  169SAPE   H9Y19151   3.174   5.278   7.611  1.5141  0.0811  0.5602
  169SAPE  C31019152   3.249   5.124   7.749  0.9361 -0.4245 -0.6676
  169SAPE  H10X19153   3.357   5.146   7.739  1.3511 -0.4535  2.8139
  169SAPE  H10Y19154   3.241   5.014   7.757 -0.0522 -0.3432 -0.3835
  169SAPE  C31119155   3.200   5.196   7.874  0.0454  0.1789 -0.1210
  169SAPE  H11X19156   3.094   5.172   7.897  0.9175 -1.8275  2.1716
  169SAPE  H11Y19157   3.187   5.303   7.849 -0.6004 -0.5260 -3.2942
  169SAPE  C31219158   3.290   5.182   7.993 -0.3362 -0.3642  0.1116
  169SAPE  H12X19159   3.270   5.246   8.082  2.6569 -0.6622  1.1206
  169SAPE  H12Y19160   3.391   5.211   7.958 -0.4901  1.0843  0.7959
  169SAPE  C31319161   3.298   5.040   8.043 -0.1187 -0.4076 -0.5103
  169SAPE  H13X19162   3.354   5.051   8.139  0.8248  1.1895 -1.2086
  169SAPE  H13Y19163   3.373   4.991   7.977  0.0098  0.3424 -0.9253
  169SAPE  C31419164   3.171   4.969   8.071 -1.0121 -0.3029 -0.2076
  169SAPE  H14X19165   3.210   4.878   8.123  1.5578  0.7670 -0.1011
  169SAPE  H14Y19166   3.107   4.941   7.985 -2.1501 -0.8915  0.8018
  169SAPE  C31519167   3.077   5.040   8.169  0.0145  0.9995  0.5887
  169SAPE  H15X19168   2.983   4.981   8.177  1.5494 -1.6778  0.1314
  169SAPE  H15Y19169   3.053   5.128   8.106 -2.5862 -0.9650 -1.4278
  169SAPE  C31619170   3.141   5.076   8.309 -0.1447  0.4224  0.4949
  169SAPE  H16X19171   3.054   5.127   8.356  0.1532  3.7376 -2.0811
  169SAPE  H16Y19172   3.228   5.144   8.298 -0.1553  0.1664 -1.7977
  169SAPE  C31719173   3.188   4.965   8.398  0.0516 -0.4925 -0.3432
  169SAPE  H17X19174   3.297   4.959   8.381 -0.2465  0.2314 -2.9719
  169SAPE  H17Y19175   3.152   4.869   8.355  0.0838 -2.0499  2.8537
  169SAPE  C31819176   3.145   4.981   8.542 -0.3969  0.1424  0.3478
  169SAPE  H18X19177   3.175   4.898   8.610  0.8696 -1.8031 -2.4395
  169SAPE  H18Y19178   3.035   4.995   8.533 -0.3084  0.2046 -0.6947
  169SAPE  H18Z19179   3.186   5.070   8.595 -0.6498 -1.1397  2.8387
  170SAPE     N19180   4.018   0.877   6.334  0.3081 -0.1841  0.4715
  170SAPE   HN119181   3.939   0.935   6.299 -0.9978 -2.1221  0.0620
  170SAPE   HN219182   3.976   0.812   6.403 -0.3474  1.7054  1.9256
  170SAPE   HN319183   4.083   0.935   6.390 -0.9963  0.7742  1.0271
  170SAPE   C1219184   4.085   0.792   6.228  0.0033 -0.1662  0.0645
  170SAPE  H12A19185   4.050   0.832   6.130  0.8741 -0.6498 -0.4547
  170SAPE  H12B19186   4.053   0.686   6.238  0.8075 -0.4033  0.1966
  170SAPE   C1119187   4.238   0.789   6.255 -0.1811 -0.4574 -0.2303
  170SAPE  H11A19188   4.285   0.717   6.185  0.7154  0.3706 -0.4876
  170SAPE  H11B19189   4.266   0.761   6.359  0.2310 -0.6350 -0.3882
  170SAPE     P19190   4.447   0.928   6.240  0.2831 -0.3497  0.2553
  170SAPE   O1319191   4.506   0.805   6.181 -0.0451 -0.4143  0.2814
  170SAPE   O1419192   4.496   1.056   6.184  0.0762 -0.4891  0.0855
  170SAPE   O1219193   4.294   0.916   6.218  0.3804  0.3618 -0.0363
  170SAPE   O1119194   4.473   0.931   6.391  0.5342 -0.2283  0.0839
  170SAPE    C119195   4.382   1.023   6.463 -0.4629  0.1927 -0.6012
  170SAPE    HA19196   4.339   1.108   6.406 -0.5999 -0.1988 -1.0899
  170SAPE    HB19197   4.291   0.966   6.491 -1.2404  0.7006 -2.0092
  170SAPE    C219198   4.458   1.088   6.588  0.6020  0.3444  0.0579
  170SAPE    HS19199   4.549   1.132   6.540  1.4955  0.4539  1.7634
  170SAPE   O2119200   4.483   0.989   6.687 -0.4230  0.4069  0.0240
  170SAPE   C2119201   4.585   1.006   6.768 -0.0226  0.0329  0.0957
  170SAPE   O2219202   4.677   1.085   6.748 -0.7314  0.5858  0.4575
  170SAPE   C2219203   4.568   0.924   6.893  0.7310 -0.2966 -0.2905
  170SAPE   H2R19204   4.466   0.955   6.924 -0.2324 -0.4119 -3.0675
  170SAPE   H2S19205   4.564   0.822   6.849 -1.1307  0.0384 -0.9831
  170SAPE    C319206   4.385   1.205   6.651 -0.3851 -0.0628 -0.0528
  170SAPE    HX19207   4.305   1.141   6.693  0.4860 -1.8539 -1.0220
  170SAPE    HY19208   4.341   1.269   6.572  0.1633 -2.4069 -2.3883
  170SAPE   O3119209   4.446   1.285   6.756 -0.8206  0.2380  0.1865
  170SAPE   C3119210   4.521   1.377   6.722  0.0920  0.3220 -0.4669
  170SAPE   O3219211   4.559   1.395   6.605  0.2088 -0.3121 -0.4227
  170SAPE   C3219212   4.570   1.465   6.843  0.0164 -0.5686  0.1683
  170SAPE   H2X19213   4.496   1.547   6.862  1.1234  0.7991 -1.1554
  170SAPE   H2Y19214   4.663   1.512   6.804 -0.7534  1.2438  0.4145
  170SAPE   C2319215   4.680   0.932   6.990  0.4520  0.3301  0.5339
  170SAPE   H3R19216   4.687   1.029   7.044 -0.1067  0.5791  0.1733
  170SAPE   H3S19217   4.777   0.910   6.941  0.9989 -0.1045  1.7911
  170SAPE   C2419218   4.661   0.823   7.097 -0.7007  0.8519 -0.2319
  170SAPE   H4R19219   4.755   0.778   7.137 -1.4780 -2.0329 -1.3757
  170SAPE   H4S19220   4.624   0.739   7.034 -0.0213  0.4477 -0.1033
  170SAPE   C2519221   4.554   0.850   7.198  0.3089 -0.3407 -1.1561
  170SAPE   H5R19222   4.465   0.879   7.141 -0.1617  0.3035 -0.1174
  170SAPE   C2619223   4.549   0.851   7.332  0.6543 -0.2191  0.2415
  170SAPE   H6R19224   4.456   0.859   7.389  0.5462  1.0396 -0.0831
  170SAPE   C2719225   4.662   0.815   7.429 -0.4689 -0.1020 -0.1957
  170SAPE   H7R19226   4.658   0.886   7.514 -0.0187  0.4220 -0.5978
  170SAPE   H7S19227   4.760   0.832   7.378 -0.7239  1.6949 -0.1610
  170SAPE   C2819228   4.653   0.674   7.473  0.7882  0.2486 -0.0680
  170SAPE   H8R19229   4.673   0.600   7.394  0.4175  1.0565 -0.9515
  170SAPE   C2919230   4.619   0.626   7.592  0.0912  0.1107 -0.2820
  170SAPE   H9R19231   4.618   0.517   7.600  0.8543 -0.0961 -2.2291
  170SAPE  C21019232   4.600   0.698   7.721  0.6464 -0.1470 -0.8897
  170SAPE  H10R19233   4.626   0.805   7.706  1.3722 -0.4165 -1.6691
  170SAPE  H10S19234   4.674   0.657   7.793 -1.2822 -0.1030  1.2197
  170SAPE  C21119235   4.461   0.689   7.782  0.3073 -0.0607  0.0869
  170SAPE  H11R19236   4.386   0.741   7.720  1.4230  0.3219 -0.9968
  170SAPE  C21219237   4.420   0.629   7.896  0.1003  0.8765  0.0475
  170SAPE  H12R19238   4.312   0.634   7.918  0.2377  1.3552  0.6375
  170SAPE  C21319239   4.496   0.539   7.983 -0.2757 -0.1380 -0.7141
  170SAPE  H13R19240   4.576   0.499   7.917  1.1085  1.3488 -0.0294
  170SAPE  H13S19241   4.440   0.446   8.007 -0.8203  0.2310 -0.5572
  170SAPE  C21419242   4.560   0.606   8.101  0.3112 -0.0189  0.6682
  170SAPE  H14R19243   4.556   0.716   8.106  0.7163 -0.0629  3.3219
  170SAPE  C21519244   4.594   0.560   8.217 -0.2506  0.0397  0.7434
  170SAPE  H15R19245   4.638   0.633   8.287  1.8935 -1.1557  0.7292
  170SAPE  C21619246   4.592   0.416   8.265  0.2147  0.5797  0.6318
  170SAPE  H16R19247   4.697   0.387   8.285  0.2714  0.5889  0.3587
  170SAPE  H16S19248   4.538   0.345   8.198  0.8587 -0.2861  1.0184
  170SAPE  C21719249   4.516   0.412   8.401  0.2707 -0.9911  0.9162
  170SAPE  H17R19250   4.492   0.305   8.420  0.8742 -1.3027 -0.0171
  170SAPE  H17S19251   4.421   0.467   8.385  1.0065 -0.1512 -0.7729
  170SAPE  C21819252   4.580   0.479   8.520  0.5078  0.5547 -0.6652
  170SAPE  H18R19253   4.591   0.589   8.502  0.9721  0.4685 -0.9364
  170SAPE  H18S19254   4.681   0.434   8.535 -0.1013 -0.5233  0.3355
  170SAPE  C21919255   4.509   0.471   8.656  0.4328 -0.2799  0.1659
  170SAPE  H19R19256   4.484   0.366   8.685 -1.7720  0.1103 -0.1488
  170SAPE  H19S19257   4.411   0.523   8.651  0.7168  0.2052 -0.4949
  170SAPE  C22019258   4.593   0.523   8.774 -0.4574  0.4438 -0.3370
  170SAPE  H20R19259   4.678   0.455   8.795  0.5921  1.5661 -0.7799
  170SAPE  H20S19260   4.540   0.528   8.871 -1.0807 -2.1408 -0.4872
  170SAPE  H20T19261   4.629   0.626   8.751 -2.3218  1.5234  1.2389
  170SAPE   C3319262   4.594   1.363   6.960  0.4520 -0.3152  0.2104
  170SAPE   H3X19263   4.664   1.282   6.930  1.0624 -0.1872  1.2459
  170SAPE   H3Y19264   4.499   1.318   6.997  0.5560 -0.6589  0.0609
  170SAPE   C3419265   4.652   1.443   7.078 -0.9154 -0.0442  0.7590
  170SAPE   H4X19266   4.576   1.523   7.087 -0.7128  0.5176 -1.8190
  170SAPE   H4Y19267   4.739   1.504   7.045 -1.7538  0.5837 -0.3524
  170SAPE   C3519268   4.702   1.345   7.192  0.0157 -0.0324  0.1274
  170SAPE   H5X19269   4.810   1.326   7.175 -0.5145 -2.5334 -0.8626
  170SAPE   H5Y19270   4.646   1.250   7.203 -0.7034  0.4312  0.5361
  170SAPE   C3619271   4.681   1.413   7.333 -0.5221 -0.6510  0.2825
  170SAPE   H6X19272   4.574   1.443   7.336 -0.0598  1.1829 -0.2342
  170SAPE   H6Y19273   4.744   1.504   7.320  0.4850 -1.4498 -0.6643
  170SAPE   C3719274   4.700   1.316   7.452 -0.8675 -0.1825 -0.1882
  170SAPE   H7X19275   4.789   1.251   7.438  0.2818  0.8104  1.9619
  170SAPE   H7Y19276   4.609   1.252   7.452  0.9384 -3.1079 -3.6784
  170SAPE   C3819277   4.703   1.395   7.585  1.1274 -0.1595 -0.3167
  170SAPE   H8X19278   4.616   1.460   7.605 -0.8823 -2.4095 -1.2500
  170SAPE   H8Y19279   4.791   1.463   7.588  1.1824 -0.2481  1.7236
  170SAPE   C3919280   4.706   1.283   7.698 -0.5722 -0.0684 -0.6527
  170SAPE   H9X19281   4.793   1.220   7.672  0.7760  1.6332 -0.4374
  170SAPE   H9Y19282   4.621   1.212   7.691  0.9616 -2.0701  0.0949
  170SAPE  C31019283   4.718   1.336   7.848 -0.6369  0.1423 -0.0903
  170SAPE  H10X19284   4.616   1.339   7.892 -1.0392  1.7624 -1.0445
  170SAPE  H10Y19285   4.758   1.439   7.834 -1.3565  0.1048 -2.9182
  170SAPE  C31119286   4.825   1.255   7.940 -0.2379 -0.8209 -0.3830
  170SAPE  H11X19287   4.924   1.249   7.889  1.4158 -1.7191  2.6924
  170SAPE  H11Y19288   4.792   1.150   7.944 -1.3807 -0.4359  1.6418
  170SAPE  C31219289   4.848   1.327   8.081  0.2443  0.4113 -0.1356
  170SAPE  H12X19290   4.748   1.320   8.129 -0.1986  1.6740 -0.8320
  170SAPE  H12Y19291   4.877   1.432   8.058 -0.3399  0.6890  0.3620
  170SAPE  C31319292   4.961   1.259   8.167  0.4670 -0.4336 -0.3548
  170SAPE  H13X19293   5.045   1.238   8.097  2.7046  2.9005  1.0403
  170SAPE  H13Y19294   4.921   1.166   8.212 -2.8798  0.1518 -1.8631
  170SAPE  C31419295   5.017   1.357   8.272  0.0660  0.5281  0.1704
  170SAPE  H14X19296   4.936   1.367   8.348 -0.0126  0.6147  0.0750
  170SAPE  H14Y19297   5.029   1.456   8.223  0.9414 -0.8959 -2.6702
  170SAPE  C31519298   5.153   1.319   8.332  0.5537  0.8204 -0.0932
  170SAPE  H15X19299   5.153   1.209   8.315  0.2452  1.0370 -1.5974
  170SAPE  H15Y19300   5.157   1.348   8.439 -2.7625 -0.3839  0.4854
  170SAPE  C31619301   5.275   1.364   8.251  0.7193  0.0855 -0.0292
  170SAPE  H16X19302   5.270   1.475   8.252  3.0003  0.2226  1.1884
  170SAPE  H16Y19303   5.287   1.328   8.146 -0.2458 -0.1650 -0.0597
  170SAPE  C31719304   5.404   1.346   8.331  0.7089  0.3368  0.8575
  170SAPE  H17X19305   5.412   1.238   8.360  1.3375  0.5582  1.5424
  170SAPE  H17Y19306   5.409   1.405   8.425  0.4938  3.5014 -0.9972
  170SAPE  C31819307   5.534   1.381   8.258  0.2788 -0.1252  0.6771
  170SAPE  H18X19308   5.616   1.369   8.332 -0.6094  0.4990  1.7903
  170SAPE  H18Y19309   5.534   1.479   8.206 -0.6805 -1.9495 -3.2028
  170SAPE  H18Z19310   5.559   1.304   8.181  3.1875  0.8115  0.5759
  171SAPE     N19311   5.487   2.820   6.245  0.3330  0.0572 -0.9690
  171SAPE   HN119312   5.421   2.828   6.325  3.0104  1.0484  1.3014
  171SAPE   HN219313   5.556   2.751   6.281 -0.3663  0.1534  0.6326
  171SAPE   HN319314   5.522   2.917   6.232 -1.0960  0.8442  0.6933
  171SAPE   C1219315   5.409   2.766   6.128  0.3120  0.6638 -0.3462
  171SAPE  H12A19316   5.481   2.750   6.045 -0.0239 -0.9113 -0.3815
  171SAPE  H12B19317   5.319   2.830   6.112 -0.0514  0.5552  1.1375
  171SAPE   C1119318   5.350   2.634   6.173  0.3115  0.0100 -0.4308
  171SAPE  H11A19319   5.435   2.569   6.203 -1.0415 -1.0602  1.2673
  171SAPE  H11B19320   5.307   2.596   6.078  0.2186  1.3179 -0.9375
  171SAPE     P19321   5.188   2.523   6.349 -0.0318 -0.0535 -0.1026
  171SAPE   O1319322   5.090   2.578   6.443 -0.4306 -0.1395  0.1531
  171SAPE   O1419323   5.142   2.428   6.246  0.1122 -0.8491  0.3901
  171SAPE   O1219324   5.250   2.643   6.275 -0.0098 -0.2691  0.4194
  171SAPE   O1119325   5.311   2.466   6.430 -0.3333 -0.5499  0.3807
  171SAPE    C119326   5.378   2.552   6.529  0.6114 -0.1643  0.1585
  171SAPE    HA19327   5.365   2.660   6.504  1.0141 -0.1421  0.0435
  171SAPE    HB19328   5.341   2.537   6.633  0.6701  0.1603  0.2295
  171SAPE    C219329   5.524   2.519   6.544 -0.1678 -0.0602 -0.5440
  171SAPE    HS19330   5.566   2.510   6.442  1.8453 -2.5958  0.3980
  171SAPE   O2119331   5.545   2.401   6.623  0.1425  0.4222  0.4025
  171SAPE   C2119332   5.676   2.359   6.627 -0.0447  0.4884 -0.1433
  171SAPE   O2219333   5.768   2.412   6.565  0.2098  0.3896 -0.3430
  171SAPE   C2219334   5.679   2.221   6.690 -0.3467 -0.2981 -0.1262
  171SAPE   H2R19335   5.672   2.244   6.798  0.4849 -2.1404  0.3673
  171SAPE   H2S19336   5.589   2.161   6.664  0.5997 -1.2428 -1.4168
  171SAPE    C319337   5.587   2.642   6.615 -0.0624  0.4191  0.2524
  171SAPE    HX19338   5.578   2.734   6.554  1.4066  0.3613 -0.1032
  171SAPE    HY19339   5.697   2.634   6.628  0.0548 -1.0903 -1.3857
  171SAPE   O3119340   5.525   2.672   6.743 -1.0281  0.3136 -0.3343
  171SAPE   C3119341   5.567   2.601   6.845  0.4471 -0.2188 -0.8624
  171SAPE   O3219342   5.678   2.557   6.862  0.5153  0.3445 -0.3498
  171SAPE   C3219343   5.439   2.552   6.925  0.0227 -0.2728 -0.4597
  171SAPE   H2X19344   5.446   2.444   6.902  1.5872 -0.9940  2.8237
  171SAPE   H2Y19345   5.353   2.616   6.899  0.4934  2.0854  3.1021
  171SAPE   C2319346   5.806   2.148   6.655  0.3479 -0.0154  0.4918
  171SAPE   H3R19347   5.883   2.204   6.712  0.1863  0.2398  0.4624
  171SAPE   H3S19348   5.834   2.160   6.549 -1.3523 -0.3386 -0.0212
  171SAPE   C2419349   5.815   2.000   6.694 -1.1015 -0.4161 -0.2269
  171SAPE   H4R19350   5.830   1.996   6.804 -2.4754 -1.2750 -0.0387
  171SAPE   H4S19351   5.912   1.968   6.649 -0.0353  0.3410  1.4451
  171SAPE   C2519352   5.717   1.903   6.642  1.0880  0.3121 -0.1376
  171SAPE   H5R19353   5.644   1.944   6.570 -1.2345 -2.6313  0.3269
  171SAPE   C2619354   5.692   1.777   6.681 -0.4145 -0.2889  0.1565
  171SAPE   H6R19355   5.613   1.736   6.615 -0.9013 -0.8469  1.0608
  171SAPE   C2719356   5.761   1.701   6.796  0.1214 -0.3889 -0.7814
  171SAPE   H7R19357   5.829   1.765   6.856  2.4271 -1.1990 -2.3878
  171SAPE   H7S19358   5.832   1.629   6.750  2.7749  0.5416  1.5452
  171SAPE   C2819359   5.662   1.634   6.891 -0.1350 -0.0092  0.2310
  171SAPE   H8R19360   5.559   1.642   6.852  0.7530  2.9848 -1.8466
  171SAPE   C2919361   5.680   1.582   7.015  0.5383  0.4736 -0.4327
  171SAPE   H9R19362   5.593   1.558   7.078  1.2834 -0.4808  0.2647
  171SAPE  C21019363   5.817   1.569   7.084 -0.7085 -0.3367 -0.0168
  171SAPE  H10R19364   5.858   1.660   7.134  1.6804 -2.0916  1.4722
  171SAPE  H10S19365   5.893   1.544   7.007 -1.1143 -2.2516  0.1405
  171SAPE  C21119366   5.813   1.457   7.189 -0.6772 -0.6361 -0.1039
  171SAPE  H11R19367   5.856   1.363   7.151  2.0142  0.9125 -1.1760
  171SAPE  C21219368   5.786   1.473   7.315  0.2468  0.1234 -0.4836
  171SAPE  H12R19369   5.802   1.386   7.381  1.0121  0.5306 -0.1205
  171SAPE  C21319370   5.760   1.602   7.384  0.3722 -0.1918 -0.1005
  171SAPE  H13R19371   5.801   1.683   7.320 -1.3152  0.2739 -0.6484
  171SAPE  H13S19372   5.808   1.599   7.484 -0.2751  0.2263  0.2327
  171SAPE  C21419373   5.614   1.639   7.394  0.1142  0.4749 -0.8329
  171SAPE  H14R19374   5.561   1.613   7.301 -0.1529 -0.2979 -0.4797
  171SAPE  C21519375   5.549   1.697   7.496  0.0870  0.0692 -0.2419
  171SAPE  H15R19376   5.445   1.731   7.482  0.2614  2.3700  3.0139
  171SAPE  C21619377   5.617   1.746   7.624 -0.3720 -0.4281 -0.3040
  171SAPE  H16R19378   5.580   1.849   7.645 -0.6647 -0.6214  0.1458
  171SAPE  H16S19379   5.727   1.758   7.620 -0.3011 -0.8809  0.2418
  171SAPE  C21719380   5.587   1.661   7.741  0.0584  0.1581  0.1642
  171SAPE  H17R19381   5.624   1.559   7.717 -1.3137 -0.0151 -1.4132
  171SAPE  H17S19382   5.477   1.651   7.758 -0.5126  2.0133 -1.9908
  171SAPE  C21819383   5.657   1.721   7.868 -0.6587  0.2849 -0.0632
  171SAPE  H18R19384   5.621   1.826   7.872  1.4666  1.0316  1.5770
  171SAPE  H18S19385   5.768   1.723   7.858 -0.7328 -1.9819 -2.3983
  171SAPE  C21919386   5.631   1.653   8.004  0.1794 -0.4465 -0.0141
  171SAPE  H19R19387   5.663   1.550   7.978  0.6221 -0.3248  0.0534
  171SAPE  H19S19388   5.524   1.665   8.033  0.2519  2.4744 -0.6104
  171SAPE  C22019389   5.719   1.700   8.111 -0.7299  0.2319 -0.5499
  171SAPE  H20R19390   5.829   1.683   8.106 -0.6909 -0.2828  1.2384
  171SAPE  H20S19391   5.693   1.633   8.195 -0.6610 -1.3308 -1.7446
  171SAPE  H20T19392   5.712   1.808   8.138 -0.6428 -0.1939  1.2932
  171SAPE   C3319393   5.449   2.557   7.079  0.0386  0.0079  0.3217
  171SAPE   H3X19394   5.354   2.515   7.118  0.5642 -0.7080  0.8585
  171SAPE   H3Y19395   5.470   2.657   7.123 -2.4049  1.9527 -2.5226
  171SAPE   C3419396   5.546   2.444   7.135  0.6141  0.0436 -0.8149
  171SAPE   H4X19397   5.651   2.469   7.106 -0.3119  3.7215 -1.5443
  171SAPE   H4Y19398   5.512   2.351   7.086 -0.4264 -0.3290  0.5516
  171SAPE   C3519399   5.523   2.417   7.283 -0.6061  0.3616  0.7011
  171SAPE   H5X19400   5.586   2.333   7.321 -0.7706  1.2281  3.0717
  171SAPE   H5Y19401   5.415   2.399   7.298 -0.7049  0.2269 -0.1418
  171SAPE   C3619402   5.551   2.536   7.375 -0.2626  0.0560 -0.5693
  171SAPE   H6X19403   5.466   2.608   7.370 -1.9867 -1.9453 -1.8535
  171SAPE   H6Y19404   5.639   2.590   7.336 -0.7553  1.2402 -0.1058
  171SAPE   C3719405   5.565   2.490   7.519  0.3765 -0.1835 -0.2455
  171SAPE   H7X19406   5.648   2.416   7.522  0.6230  0.0848 -0.3840
  171SAPE   H7Y19407   5.468   2.444   7.545  0.2584 -0.9005 -1.8712
  171SAPE   C3819408   5.605   2.603   7.618  0.5647  0.1215 -0.4505
  171SAPE   H8X19409   5.521   2.675   7.611 -0.1450 -0.4617  1.4958
  171SAPE   H8Y19410   5.702   2.645   7.582  1.1653 -0.1446  0.7981
  171SAPE   C3919411   5.611   2.545   7.760  0.1210 -0.5970 -0.3122
  171SAPE   H9X19412   5.702   2.482   7.769  0.4634  0.0271  0.7560
  171SAPE   H9Y19413   5.520   2.483   7.772 -1.0286  0.6701 -1.9010
  171SAPE  C31019414   5.617   2.657   7.873 -0.1100 -0.3219 -0.6064
  171SAPE  H10X19415   5.517   2.677   7.915  1.3930 -0.7332  3.6487
  171SAPE  H10Y19416   5.655   2.753   7.832 -0.3483  1.4817  3.0498
  171SAPE  C31119417   5.704   2.608   7.987 -0.4339 -0.2165 -0.2580
  171SAPE  H11X19418   5.809   2.641   7.972 -0.8037  2.0271  1.6206
  171SAPE  H11Y19419   5.693   2.497   7.994  1.7835 -0.3970  1.5257
  171SAPE  C31219420   5.657   2.656   8.123 -0.2764  0.0334 -0.1619
  171SAPE  H12X19421   5.694   2.577   8.193  1.2751 -0.0527 -1.0236
  171SAPE  H12Y19422   5.546   2.650   8.121 -0.2864  0.3225 -0.4187
  171SAPE  C31319423   5.704   2.796   8.157  0.0611 -0.1104  0.1524
  171SAPE  H13X19424   5.631   2.870   8.119  0.7851  1.0419  0.9190
  171SAPE  H13Y19425   5.803   2.825   8.115  0.0689  0.3462  0.4859
  171SAPE  C31419426   5.715   2.823   8.302 -0.0818 -0.1394  0.1231
  171SAPE  H14X19427   5.798   2.762   8.343 -0.2890 -0.1770  0.4970
  171SAPE  H14Y19428   5.629   2.802   8.370  1.6208  0.5117  2.5999
  171SAPE  C31519429   5.754   2.967   8.328  0.2703  0.4871  0.2455
  171SAPE  H15X19430   5.691   3.041   8.274  0.6817  0.8149  0.2162
  171SAPE  H15Y19431   5.861   2.982   8.305  1.0552 -1.0053  2.6088
  171SAPE  C31619432   5.728   3.006   8.475  0.6853 -0.0104 -0.3785
  171SAPE  H16X19433   5.799   2.962   8.549 -0.1741  0.6028  0.8548
  171SAPE  H16Y19434   5.622   2.987   8.503  0.6392 -0.3029 -0.7479
  171SAPE  C31719435   5.764   3.149   8.509 -0.3542  1.0721 -0.4622
  171SAPE  H17X19436   5.708   3.220   8.446  0.5793  1.2366 -1.1300
  171SAPE  H17Y19437   5.872   3.158   8.483  0.0656 -0.3022  0.6187
  171SAPE  C31819438   5.736   3.189   8.656 -0.9873 -0.9090  0.4240
  171SAPE  H18X19439   5.823   3.151   8.714  2.8547  0.5881 -3.7239
  171SAPE  H18Y19440   5.644   3.153   8.707  0.5496 -3.7888  1.3958
  171SAPE  H18Z19441   5.737   3.300   8.664 -1.3631 -0.8124 -0.7077
  172SAPE     N19442   4.361   3.222   6.130  1.0960  0.6712  0.0999
  172SAPE   HN119443   4.260   3.247   6.136  1.3039  1.5067  0.2470
  172SAPE   HN219444   4.406   3.304   6.084 -0.4619  1.0278 -0.8385
  172SAPE   HN319445   4.376   3.142   6.065 -0.2335 -0.8750  1.6100
  172SAPE   C1219446   4.417   3.181   6.264 -0.0584 -0.1194  0.2303
  172SAPE  H12A19447   4.348   3.106   6.309  0.6497 -0.6997  0.3653
  172SAPE  H12B19448   4.416   3.272   6.327  1.4216 -1.8829  3.0084
  172SAPE   C1119449   4.560   3.118   6.247 -0.1547  0.3114  0.4606
  172SAPE  H11A19450   4.547   3.036   6.172  0.4642  0.2237  0.4472
  172SAPE  H11B19451   4.584   3.063   6.340 -1.8389 -1.8096 -0.2639
  172SAPE     P19452   4.804   3.142   6.202 -0.1959 -0.1883  0.4511
  172SAPE   O1319453   4.804   3.033   6.104 -0.2980  0.3436 -0.0745
  172SAPE   O1419454   4.913   3.246   6.188 -0.1483 -0.1730 -0.0887
  172SAPE   O1219455   4.657   3.211   6.203 -0.3572 -0.2155 -0.0851
  172SAPE   O1119456   4.805   3.086   6.349  0.3073  0.4343 -0.6528
  172SAPE    C119457   4.912   3.116   6.444 -0.2701  0.1596  0.2554
  172SAPE    HA19458   4.912   3.037   6.522 -2.5785 -1.3692 -1.1555
  172SAPE    HB19459   5.010   3.108   6.392 -0.4498 -1.0994  0.0884
  172SAPE    C219460   4.896   3.255   6.506 -0.1128 -0.1969  0.1945
  172SAPE    HS19461   4.919   3.326   6.423 -0.9397 -1.1342 -0.8593
  172SAPE   O2119462   4.989   3.264   6.619  0.1235 -0.0949 -0.3061
  172SAPE   C2119463   5.101   3.336   6.611 -0.1534  0.2573 -0.4535
  172SAPE   O2219464   5.140   3.394   6.514 -0.0839 -0.1034  0.1923
  172SAPE   C2219465   5.156   3.354   6.752 -0.1900  0.1125 -0.5428
  172SAPE   H2R19466   5.241   3.283   6.759 -1.0953 -1.0707 -1.1685
  172SAPE   H2S19467   5.196   3.457   6.760  1.2355 -0.4733  0.2658
  172SAPE    C319468   4.757   3.267   6.568  0.3897 -0.3040  0.5622
  172SAPE    HX19469   4.685   3.268   6.483 -0.0289 -1.5223  0.8826
  172SAPE    HY19470   4.768   3.366   6.617  1.7975 -0.3007  0.2891
  172SAPE   O3119471   4.725   3.165   6.670  0.3892 -0.4862 -0.9428
  172SAPE   C3119472   4.621   3.201   6.736 -0.1601  0.1285  0.4824
  172SAPE   O3219473   4.551   3.301   6.712  0.6578  0.5924  0.0726
  172SAPE   C3219474   4.593   3.092   6.841 -0.2212 -0.3072 -0.2183
  172SAPE   H2X19475   4.649   3.123   6.931 -0.6543 -0.2362  0.0302
  172SAPE   H2Y19476   4.631   2.994   6.806  0.7103  0.6891 -2.1821
  172SAPE   C2319477   5.039   3.339   6.856 -0.3951  0.5537  0.7517
  172SAPE   H3R19478   5.006   3.234   6.873  2.2784 -0.2270  1.6386
  172SAPE   H3S19479   4.948   3.398   6.832 -0.7460  0.3803  1.5976
  172SAPE   C2419480   5.090   3.385   6.995 -0.1535 -0.2874 -0.2943
  172SAPE   H4R19481   5.124   3.490   6.986  0.0952 -0.3545 -0.1365
  172SAPE   H4S19482   5.186   3.329   7.003  0.4918  0.7763 -0.3986
  172SAPE   C2519483   4.984   3.369   7.104 -0.3172  0.2012  0.4141
  172SAPE   H5R19484   4.879   3.379   7.071  0.1345  1.2680 -0.7666
  172SAPE   C2619485   5.003   3.352   7.237  0.0313  0.6023 -0.1349
  172SAPE   H6R19486   4.909   3.332   7.290  0.3447 -0.2404  0.1200
  172SAPE   C2719487   5.132   3.336   7.312 -0.3575  0.3286  0.5879
  172SAPE   H7R19488   5.216   3.329   7.239  0.3743 -0.1188  1.4618
  172SAPE   H7S19489   5.138   3.236   7.358  1.7460  1.3544  2.7104
  172SAPE   C2819490   5.167   3.446   7.410 -0.9633  0.5043  0.4725
  172SAPE   H8R19491   5.199   3.538   7.360  1.3752 -0.3992  0.1374
  172SAPE   C2919492   5.157   3.446   7.542  0.0571  0.2201  0.0437
  172SAPE   H9R19493   5.176   3.537   7.601  3.0815 -0.6843  0.6309
  172SAPE  C21019494   5.104   3.332   7.626 -0.7575  0.6711  0.2995
  172SAPE  H10R19495   5.178   3.300   7.702 -0.6667 -0.0684 -0.0986
  172SAPE  H10S19496   5.096   3.242   7.562  1.2972 -0.7104  1.8294
  172SAPE  C21119497   4.977   3.385   7.687  0.0572 -0.3307  0.1706
  172SAPE  H11R19498   4.885   3.347   7.641  1.4213 -2.6507 -0.8073
  172SAPE  C21219499   4.968   3.476   7.787  0.6214 -0.0059 -0.2406
  172SAPE  H12R19500   4.865   3.514   7.803 -0.1678 -0.9755 -2.5959
  172SAPE  C21319501   5.074   3.549   7.876 -0.4456 -1.0486 -0.4958
  172SAPE  H13R19502   5.170   3.561   7.821  0.1112  0.3310  0.7254
  172SAPE  H13S19503   5.110   3.479   7.954 -0.6910  1.1143  1.6802
  172SAPE  C21419504   5.038   3.679   7.939  0.7640  0.1997 -0.5471
  172SAPE  H14R19505   4.995   3.759   7.877  1.2613  1.0829  0.2327
  172SAPE  C21519506   5.049   3.712   8.069 -0.3707  0.1194  1.1216
  172SAPE  H15R19507   5.007   3.808   8.100  0.3926  1.9962 -2.9989
  172SAPE  C21619508   5.109   3.641   8.193 -0.3312  1.2115 -0.1847
  172SAPE  H16R19509   5.164   3.553   8.153 -1.5758  0.8873 -1.2416
  172SAPE  H16S19510   5.025   3.599   8.252  0.3388 -0.7400 -0.5406
  172SAPE  C21719511   5.218   3.722   8.258  0.4655  0.5015  0.6648
  172SAPE  H17R19512   5.179   3.826   8.267  1.4665  1.2356 -2.2998
  172SAPE  H17S19513   5.310   3.732   8.197  0.0807  0.9043  0.1454
  172SAPE  C21819514   5.242   3.677   8.402  0.0176 -0.1842  0.2834
  172SAPE  H18R19515   5.268   3.569   8.406 -4.7593 -1.6088 -0.9850
  172SAPE  H18S19516   5.147   3.689   8.458  0.3838  1.5893  0.5668
  172SAPE  C21919517   5.327   3.771   8.493  0.5662  0.1342  0.0180
  172SAPE  H19R19518   5.418   3.789   8.433 -0.1805 -0.7592 -1.4393
  172SAPE  H19S19519   5.359   3.708   8.579  0.1354 -0.6283 -0.3695
  172SAPE  C22019520   5.271   3.913   8.523 -0.0187  0.1433 -0.1056
  172SAPE  H20R19521   5.352   3.989   8.529 -1.9114  2.3754 -0.8389
  172SAPE  H20S19522   5.215   3.914   8.619 -0.4093  0.3270 -0.3280
  172SAPE  H20T19523   5.206   3.941   8.437  0.3497 -1.1347 -0.8303
  172SAPE   C3319524   4.450   3.076   6.885  0.1179 -0.2712  0.0064
  172SAPE   H3X19525   4.389   3.057   6.793  0.2209 -0.1759 -0.0823
  172SAPE   H3Y19526   4.404   3.169   6.925 -1.2992  1.0402 -4.1311
  172SAPE   C3419527   4.430   2.953   6.971 -0.7153 -0.3577 -0.3405
  172SAPE   H4X19528   4.486   2.874   6.916  0.8355 -1.1823  2.2738
  172SAPE   H4Y19529   4.322   2.929   6.967 -1.2614  1.9930 -3.1540
  172SAPE   C3519530   4.485   2.950   7.121  0.7073 -0.6217  0.5083
  172SAPE   H5X19531   4.424   3.016   7.187  1.2551  0.3694  0.0389
  172SAPE   H5Y19532   4.589   2.988   7.117  0.7537 -0.7966  0.0067
  172SAPE   C3619533   4.488   2.821   7.202  0.2028  0.7021  0.8879
  172SAPE   H6X19534   4.567   2.762   7.152  0.7254 -0.0239  2.5206
  172SAPE   H6Y19535   4.396   2.763   7.179  1.2485  0.5013 -3.8607
  172SAPE   C3719536   4.509   2.837   7.357  0.4060 -0.2071  0.4722
  172SAPE   H7X19537   4.417   2.882   7.400 -0.2352 -0.4153 -0.6570
  172SAPE   H7Y19538   4.589   2.911   7.377 -1.2589  1.5399  0.8863
  172SAPE   C3819539   4.540   2.712   7.437  0.0362  0.4453  0.0240
  172SAPE   H8X19540   4.632   2.670   7.391 -0.3571 -2.2877  1.5753
  172SAPE   H8Y19541   4.459   2.637   7.422 -0.1372  0.8972 -1.5140
  172SAPE   C3919542   4.544   2.753   7.588  0.0493 -0.0491  0.3664
  172SAPE   H9X19543   4.439   2.781   7.614  0.5506  1.1593  1.2140
  172SAPE   H9Y19544   4.598   2.849   7.602 -1.2518  0.9887 -1.3600
  172SAPE  C31019545   4.595   2.649   7.690 -0.3741  0.1477  0.6264
  172SAPE  H10X19546   4.698   2.618   7.662 -0.9723 -2.1734  0.7809
  172SAPE  H10Y19547   4.545   2.550   7.698  0.6938 -0.2962  2.1490
  172SAPE  C31119548   4.624   2.716   7.822  0.3659  0.1209  0.6528
  172SAPE  H11X19549   4.551   2.798   7.836  0.9827  1.2105 -1.9359
  172SAPE  H11Y19550   4.720   2.768   7.802 -0.2236  0.5640 -1.2468
  172SAPE  C31219551   4.621   2.628   7.947 -0.1107  0.1953 -0.2603
  172SAPE  H12X19552   4.680   2.534   7.940  0.8262  0.6607  1.0722
  172SAPE  H12Y19553   4.514   2.599   7.951 -0.2823  0.6319 -1.3256
  172SAPE  C31319554   4.670   2.705   8.075 -0.7756 -1.3628 -0.3128
  172SAPE  H13X19555   4.601   2.792   8.076  0.2786 -0.3760 -3.0297
  172SAPE  H13Y19556   4.765   2.760   8.057 -1.8931  0.6855 -0.3193
  172SAPE  C31419557   4.664   2.636   8.210 -0.1177  0.1657  0.0794
  172SAPE  H14X19558   4.732   2.548   8.218 -2.4017 -1.9369 -1.6684
  172SAPE  H14Y19559   4.560   2.602   8.225  0.1500 -1.4544 -1.4204
  172SAPE  C31519560   4.705   2.728   8.320 -0.4265  0.0443  0.1952
  172SAPE  H15X19561   4.695   2.671   8.415  0.2042  0.2894  0.4161
  172SAPE  H15Y19562   4.648   2.823   8.325  1.4737  1.2119  0.9272
  172SAPE  C31619563   4.859   2.774   8.327  0.3299  0.3452  0.2819
  172SAPE  H16X19564   4.887   2.817   8.229 -1.9005 -1.5987 -1.3227
  172SAPE  H16Y19565   4.913   2.677   8.331  2.0158  1.1288 -1.7303
  172SAPE  C31719566   4.897   2.873   8.440  0.5436  0.0859  0.7743
  172SAPE  H17X19567   4.821   2.951   8.462  1.4239 -0.1083  5.4709
  172SAPE  H17Y19568   4.994   2.917   8.407 -1.0846  2.7864 -0.7800
  172SAPE  C31819569   4.921   2.805   8.580  0.7552  0.4086 -0.1627
  172SAPE  H18X19570   4.829   2.754   8.614  1.5768 -0.0302  1.5518
  172SAPE  H18Y19571   4.940   2.873   8.666 -1.7067 -2.3278  2.7935
  172SAPE  H18Z19572   4.996   2.723   8.577  0.2758 -0.0305 -0.2014
  173SOPE     N19573   3.864   4.262  11.060  1.1007  0.4716 -0.3054
  173SOPE   HN119574   3.929   4.188  11.094  0.5413  0.3718  0.5860
  173SOPE   HN219575   3.892   4.294  10.965 -0.7958  1.2787 -0.6318
  173SOPE   HN319576   3.862   4.337  11.132  0.0443  0.6659 -0.5220
  173SOPE   C1219577   3.729   4.202  11.059 -0.5921 -0.1872  0.5284
  173SOPE  H12A19578   3.706   4.160  11.159  2.7798 -0.5576  1.2656
  173SOPE  H12B19579   3.741   4.117  10.989  2.9432  2.0516 -1.9327
  173SOPE   C1119580   3.610   4.290  11.016 -0.5001  0.2958  1.2221
  173SOPE  H11A19581   3.572   4.358  11.095 -1.1283 -1.9650  2.9719
  173SOPE  H11B19582   3.526   4.219  11.001  1.1383 -1.2359 -1.4394
  173SOPE     P19583   3.550   4.314  10.762 -0.3430  0.0885 -0.1910
  173SOPE   O1319584   3.426   4.403  10.769 -0.0329  0.4392 -0.0150
  173SOPE   O1419585   3.528   4.169  10.746  0.4577 -0.5623 -0.6157
  173SOPE   O1219586   3.633   4.353  10.893 -0.0560  0.2106 -0.2891
  173SOPE   O1119587   3.646   4.363  10.647 -0.5560  0.5073  0.0186
  173SOPE    C119588   3.727   4.480  10.651 -0.3368  0.6124 -0.9493
  173SOPE    HA19589   3.811   4.462  10.723 -0.2764 -0.0374 -1.1773
  173SOPE    HB19590   3.667   4.568  10.681  0.2809  0.6467  0.2807
  173SOPE    C219591   3.782   4.504  10.511  0.4986 -0.2381  0.7361
  173SOPE    HS19592   3.874   4.565  10.525  0.8319 -0.5406 -0.1200
  173SOPE   O2119593   3.679   4.568  10.422  0.2118 -0.1527  0.1136
  173SOPE   C2119594   3.666   4.696  10.445  0.5933  0.7710  0.7180
  173SOPE   O2219595   3.740   4.760  10.516 -0.8915 -0.2635  0.8124
  173SOPE   C2219596   3.554   4.758  10.360  0.7282 -0.4891  0.0208
  173SOPE   H2R19597   3.580   4.865  10.351  2.0429 -0.8161 -0.4004
  173SOPE   H2S19598   3.456   4.751  10.411  1.0502 -0.4738  0.6508
  173SOPE    C319599   3.849   4.380  10.446  0.2879 -0.5503 -0.0865
  173SOPE    HX19600   3.797   4.283  10.460  0.3085 -0.7814 -1.4829
  173SOPE    HY19601   3.946   4.356  10.496 -1.1062 -1.8248  2.1793
  173SOPE   O3119602   3.882   4.395  10.307  0.9718 -0.6221  0.1542
  173SOPE   C3119603   3.993   4.455  10.280  0.1612  0.6127 -0.0409
  173SOPE   O3219604   4.071   4.507  10.361  0.1132  1.0237 -0.4338
  173SOPE   C3219605   4.024   4.452  10.136  0.2271 -0.3710 -0.1444
  173SOPE   H2X19606   3.945   4.517  10.092 -0.2967  0.4404  1.8962
  173SOPE   H2Y19607   4.010   4.348  10.101 -1.7406  0.0387 -0.7001
  173SOPE   C2319608   3.540   4.700  10.217 -0.5287 -0.8100 -0.6845
  173SOPE   H3R19609   3.456   4.752  10.167 -0.1895  0.5675  0.1398
  173SOPE   H3S19610   3.511   4.593  10.206  1.9153 -1.2942 -4.6082
  173SOPE   C2419611   3.666   4.722  10.122  0.2576 -0.1532  0.1077
  173SOPE   H4R19612   3.693   4.829  10.134 -2.5668  0.8249 -1.2644
  173SOPE   H4S19613   3.749   4.657  10.156  0.6491  0.5193  0.4495
  173SOPE   C2519614   3.629   4.693   9.976 -0.3860  0.4483 -0.0611
  173SOPE   H5R19615   3.591   4.588   9.970 -0.5518  0.4333  1.0650
  173SOPE   H5S19616   3.541   4.755   9.948  0.8521  2.2980 -0.0329
  173SOPE   C2619617   3.748   4.715   9.884 -0.3494  0.0390 -0.4970
  173SOPE   H6R19618   3.793   4.816   9.901 -1.3487  0.3776  0.2662
  173SOPE   H6S19619   3.832   4.647   9.912 -0.8068  0.2418  1.5316
  173SOPE   C2719620   3.718   4.697   9.732  0.5327  0.6132  0.2768
  173SOPE   H7R19621   3.759   4.598   9.702  0.9940  1.1990 -1.0806
  173SOPE   H7S19622   3.608   4.683   9.726  0.7895 -1.0835 -3.9118
  173SOPE   C2819623   3.752   4.808   9.642 -0.0647  0.2072 -0.5674
  173SOPE   H8R19624   3.862   4.823   9.638  0.3307 -1.5243  1.7408
  173SOPE   H8S19625   3.720   4.779   9.540 -0.7457 -1.9925  0.2299
  173SOPE   C2919626   3.677   4.935   9.675  0.0227 -0.3755  0.1236
  173SOPE   H9119627   3.683   4.967   9.781 -2.9836  1.7633 -0.1960
  173SOPE  C21019628   3.604   5.017   9.595  0.4770 -0.0036  0.0842
  173SOPE  H10119629   3.550   5.104   9.635  2.1445  1.9814 -1.7502
  173SOPE  C21119630   3.583   4.997   9.443  0.8389  0.0582 -0.6236
  173SOPE  H11R19631   3.477   5.005   9.410  0.5217  0.6673  0.4774
  173SOPE  H11S19632   3.626   4.901   9.409  0.1499 -0.3374 -0.4112
  173SOPE  C21219633   3.654   5.105   9.362 -0.1441 -0.0130 -0.3477
  173SOPE  H12R19634   3.756   5.118   9.404 -0.7501  2.7076  0.4768
  173SOPE  H12S19635   3.596   5.200   9.370  1.8163  1.1158  1.4651
  173SOPE  C21319636   3.675   5.056   9.220  0.0333  0.4956  0.4746
  173SOPE  H13R19637   3.574   5.020   9.188  0.4890 -0.5770  0.1826
  173SOPE  H13S19638   3.740   4.966   9.209 -1.1622 -0.3349 -0.0561
  173SOPE  C21419639   3.723   5.163   9.122  0.3400 -0.0982  0.5504
  173SOPE  H14R19640   3.825   5.189   9.158  0.2743  0.3147  0.4485
  173SOPE  H14S19641   3.673   5.262   9.120  0.7324  0.0984 -1.4514
  173SOPE  C21519642   3.731   5.112   8.979 -0.2431  0.3937 -0.1369
  173SOPE  H15R19643   3.627   5.117   8.939 -0.0372  0.2235 -0.7097
  173SOPE  H15S19644   3.774   5.010   8.976  1.5551  1.0840  0.4031
  173SOPE  C21619645   3.831   5.197   8.890  0.7829  0.6801  0.1841
  173SOPE  H16R19646   3.931   5.206   8.937  0.2545  0.8835  1.3166
  173SOPE  H16S19647   3.797   5.301   8.875 -1.3488  0.3074  1.8458
  173SOPE  C21719648   3.849   5.127   8.752  0.1060 -1.5469 -0.5657
  173SOPE  H17R19649   3.755   5.157   8.702  0.2242 -0.7701 -0.3400
  173SOPE  H17S19650   3.857   5.017   8.761 -1.9256 -1.6250  1.2149
  173SOPE  C21819651   3.972   5.191   8.682 -0.0570  0.1514  0.2812
  173SOPE  H18R19652   3.963   5.301   8.667 -2.1942 -0.3019 -2.7202
  173SOPE  H18S19653   3.961   5.154   8.577 -2.0379  1.1576  0.0938
  173SOPE  H18T19654   4.069   5.150   8.718 -0.3107  1.8015  3.1281
  173SOPE   C3319655   4.162   4.512  10.098  0.5596  0.0938 -0.0837
  173SOPE   H3X19656   4.237   4.440  10.137  0.5326  1.1447  2.0538
  173SOPE   H3Y19657   4.189   4.606  10.152  0.6110 -0.4659  0.8806
  173SOPE   C3419658   4.177   4.521   9.947 -0.2400 -0.5978  0.4567
  173SOPE   H4X19659   4.104   4.594   9.907  0.4338  0.1009  0.4849
  173SOPE   H4Y19660   4.154   4.423   9.901  0.6926  0.0085 -1.3747
  173SOPE   C3519661   4.323   4.556   9.902  0.0828 -0.3972  0.6024
  173SOPE   H5X19662   4.389   4.477   9.943 -1.2806 -0.4465  2.8963
  173SOPE   H5Y19663   4.355   4.644   9.962  0.4823  0.6320 -1.0598
  173SOPE   C3619664   4.355   4.582   9.754 -0.1283 -0.0771  0.5567
  173SOPE   H6X19665   4.459   4.597   9.719 -0.6774  0.7334 -0.8389
  173SOPE   H6Y19666   4.296   4.665   9.709  0.1305 -0.2292 -0.0716
  173SOPE   C3719667   4.322   4.455   9.664 -0.0899 -0.1254 -0.2863
  173SOPE   H7X19668   4.212   4.439   9.656 -0.1738  0.1575  0.2412
  173SOPE   H7Y19669   4.358   4.369   9.724  2.4355  2.0532  1.5459
  173SOPE   C3819670   4.378   4.468   9.523  0.2082 -0.4590 -0.3828
  173SOPE   H8X19671   4.486   4.471   9.546  0.4540 -1.0439 -1.4252
  173SOPE   H8Y19672   4.360   4.574   9.497  0.1824 -1.1695 -3.5820
  173SOPE   C3919673   4.343   4.361   9.416 -0.5567 -0.3830  0.3370
  173SOPE   H9X19674   4.233   4.346   9.423 -0.2866 -1.9491  1.8697
  173SOPE   H9Y19675   4.391   4.269   9.455 -1.6295 -1.5717 -1.0257
  173SOPE  C31019676   4.374   4.409   9.279  0.0920 -0.3568 -0.3890
  173SOPE  H10X19677   4.479   4.438   9.259 -0.2859 -0.7892 -3.4664
  173SOPE  H10Y19678   4.318   4.504   9.272  1.9542  0.7862 -0.3118
  173SOPE  C31119679   4.331   4.320   9.162 -0.4207  0.7684  0.4613
  173SOPE  H11X19680   4.221   4.306   9.158 -0.5091  1.1299  1.2824
  173SOPE  H11Y19681   4.377   4.222   9.187 -0.3104  0.8986  0.7726
  173SOPE  C31219682   4.389   4.370   9.029  0.3697  0.4198 -0.2066
  173SOPE  H12X19683   4.499   4.368   9.045  0.3974 -0.9295 -0.4434
  173SOPE  H12Y19684   4.359   4.473   9.000 -1.1889  0.5470  1.6425
  173SOPE  C31319685   4.356   4.273   8.920  0.4842  0.8724  0.5255
  173SOPE  H13X19686   4.248   4.275   8.895  0.2648  0.3662  1.3978
  173SOPE  H13Y19687   4.381   4.166   8.936 -0.0248  0.4217 -1.4459
  173SOPE  C31419688   4.447   4.308   8.795  0.4545 -0.7052  0.7467
  173SOPE  H14X19689   4.439   4.224   8.723 -0.7146  0.1831 -0.2226
  173SOPE  H14Y19690   4.552   4.321   8.828  0.1235 -1.3676  2.1240
  173SOPE  C31519691   4.404   4.438   8.717 -0.0032  0.4119 -0.1501
  173SOPE  H15X19692   4.484   4.471   8.646  0.4205  1.4523  0.7881
  173SOPE  H15Y19693   4.377   4.516   8.790  0.9588  0.9380 -0.3435
  173SOPE  C31619694   4.278   4.420   8.629 -0.2884  0.3857 -0.3240
  173SOPE  H16X19695   4.253   4.522   8.594 -1.0190  0.6750  0.9904
  173SOPE  H16Y19696   4.196   4.390   8.697  0.7705  0.7667  1.1583
  173SOPE  C31719697   4.294   4.319   8.512 -0.7877  0.8622 -0.6542
  173SOPE  H17X19698   4.204   4.338   8.450  0.2805  0.3994 -2.4323
  173SOPE  H17Y19699   4.287   4.215   8.549 -2.7338  0.5033 -1.8844
  173SOPE  C31819700   4.423   4.341   8.430 -0.3179 -0.1000 -0.4639
  173SOPE  H18X19701   4.415   4.446   8.395 -1.5909  0.1124  0.3986
  173SOPE  H18Y19702   4.425   4.277   8.339 -2.1030  0.5039 -0.9587
  173SOPE  H18Z19703   4.513   4.323   8.493 -1.3456  0.5431  1.2379
  174SOPE     N19704   3.533   3.552  11.029 -0.5186 -0.0882 -0.0801
  174SOPE   HN119705   3.452   3.616  11.015  1.5240  2.3552 -1.8288
  174SOPE   HN219706   3.532   3.524  11.129 -4.2420 -1.4170 -0.3662
  174SOPE   HN319707   3.618   3.603  10.997 -0.3568 -0.6161 -0.5096
  174SOPE   C1219708   3.523   3.422  10.944  0.5296 -0.0547  0.3533
  174SOPE  H12A19709   3.432   3.363  10.969  0.0746 -0.3535 -1.8716
  174SOPE  H12B19710   3.612   3.362  10.972  0.4180  0.2133  1.3432
  174SOPE   C1119711   3.513   3.461  10.796  0.1944  0.2548  0.1050
  174SOPE  H11A19712   3.545   3.373  10.735  2.4904  1.8531 -1.1583
  174SOPE  H11B19713   3.590   3.532  10.759 -0.8488  0.0275 -2.8559
  174SOPE     P19714   3.273   3.411  10.703 -0.1229  0.1701 -0.2861
  174SOPE   O1319715   3.152   3.482  10.725 -0.1896 -0.1339 -0.3223
  174SOPE   O1419716   3.279   3.278  10.770 -0.0397 -0.8649 -0.0423
  174SOPE   O1219717   3.378   3.507  10.762  0.5030 -0.0704 -0.5541
  174SOPE   O1119718   3.305   3.405  10.549 -0.2254  0.9111  0.9577
  174SOPE    C119719   3.401   3.469  10.474  0.3433 -0.5322 -0.1901
  174SOPE    HA19720   3.483   3.396  10.462  0.8756 -0.4278  2.4367
  174SOPE    HB19721   3.437   3.560  10.527 -2.0720 -0.4950  1.5486
  174SOPE    C219722   3.346   3.527  10.351 -0.1268 -0.4291 -0.5431
  174SOPE    HS19723   3.258   3.589  10.379  1.4184  2.6267 -1.9698
  174SOPE   O2119724   3.315   3.425  10.254 -0.0206  0.0111 -0.8040
  174SOPE   C2119725   3.209   3.453  10.174  0.0987  0.8599  0.4798
  174SOPE   O2219726   3.124   3.539  10.189 -0.2430 -0.4054 -0.2123
  174SOPE   C2219727   3.214   3.364  10.044  0.4015 -0.0849  0.0341
  174SOPE   H2R19728   3.210   3.261  10.085 -1.5875  0.1869  0.5886
  174SOPE   H2S19729   3.312   3.379   9.993  0.0312  1.5463 -0.2607
  174SOPE    C319730   3.456   3.624  10.295 -0.2066 -0.3363  0.1877
  174SOPE    HX19731   3.545   3.560  10.278 -1.8221 -2.1910 -1.8426
  174SOPE    HY19732   3.474   3.705  10.369 -0.5092 -0.9385  0.9280
  174SOPE   O3119733   3.419   3.671  10.162  0.5430  0.7965  0.7095
  174SOPE   C3119734   3.313   3.763  10.160 -0.3516 -0.2385  0.0400
  174SOPE   O3219735   3.248   3.798  10.255  0.5168  0.0032  0.4190
  174SOPE   C3219736   3.279   3.798  10.019 -0.6755 -0.0272  0.1761
  174SOPE   H2X19737   3.291   3.907  10.004  2.4111  0.0927  2.5114
  174SOPE   H2Y19738   3.174   3.762  10.017 -0.2146 -1.4148 -1.0590
  174SOPE   C2319739   3.112   3.387   9.931  0.8693  1.0551  0.5858
  174SOPE   H3R19740   3.095   3.493   9.903  2.9580  1.0968 -0.7791
  174SOPE   H3S19741   3.016   3.358   9.978  1.1006  0.9297  0.9801
  174SOPE   C2419742   3.127   3.299   9.803  0.0397 -0.2556 -0.0780
  174SOPE   H4R19743   3.224   3.315   9.752  0.9445  0.6473  1.8210
  174SOPE   H4S19744   3.128   3.194   9.839 -1.4526  0.1448  1.2394
  174SOPE   C2519745   3.018   3.337   9.701  1.0356  0.0547 -0.4854
  174SOPE   H5R19746   2.919   3.299   9.736  1.1377 -1.3366 -1.5815
  174SOPE   H5S19747   3.019   3.447   9.688 -0.5867  0.2116  0.4908
  174SOPE   C2619748   3.036   3.259   9.569 -0.4460 -0.8036  0.5915
  174SOPE   H6R19749   3.139   3.257   9.529 -0.7854 -0.9343 -0.3021
  174SOPE   H6S19750   3.019   3.152   9.597  2.4829 -1.6134 -0.3994
  174SOPE   C2719751   2.955   3.319   9.452  0.5140 -0.5496  0.2109
  174SOPE   H7R19752   2.848   3.326   9.482  0.3773  0.8866 -0.5074
  174SOPE   H7S19753   3.002   3.415   9.424  0.3006 -0.7171 -0.7321
  174SOPE   C2819754   2.959   3.244   9.317 -0.4686  0.5176  0.2574
  174SOPE   H8R19755   2.894   3.287   9.238 -2.5836 -3.5085 -0.4563
  174SOPE   H8S19756   3.064   3.249   9.279 -0.4651  1.2467  0.3514
  174SOPE   C2919757   2.918   3.100   9.342  0.3005 -0.2099  1.1283
  174SOPE   H9119758   2.843   3.091   9.422 -0.0369  0.5411  0.9137
  174SOPE  C21019759   2.946   2.994   9.261  0.7513 -0.2542 -0.1412
  174SOPE  H10119760   2.903   2.896   9.285 -0.3277  0.3195  0.3071
  174SOPE  C21119761   3.032   2.995   9.138  0.0947  0.2983  0.1318
  174SOPE  H11R19762   3.138   3.012   9.169 -0.3351  2.0056  0.7894
  174SOPE  H11S19763   3.000   3.073   9.066  0.5579  0.8876  0.5486
  174SOPE  C21219764   3.019   2.869   9.051  0.9015  0.6889 -0.5447
  174SOPE  H12R19765   3.040   2.778   9.109  1.4087  0.6073 -0.8540
  174SOPE  H12S19766   3.090   2.882   8.967 -0.1022 -0.2799 -1.5815
  174SOPE  C21319767   2.877   2.847   8.999 -0.2890 -0.2973  0.4651
  174SOPE  H13R19768   2.840   2.935   8.943 -0.2024 -1.9130 -2.3082
  174SOPE  H13S19769   2.814   2.830   9.088  1.8602  0.1931  2.1784
  174SOPE  C21419770   2.876   2.722   8.911  0.0230  0.2826  0.3338
  174SOPE  H14R19771   2.923   2.645   8.976 -3.0495 -0.4267  1.9284
  174SOPE  H14S19772   2.934   2.745   8.819  1.4461  0.8499  1.3366
  174SOPE  C21519773   2.736   2.666   8.887 -0.0463  0.3486 -0.4122
  174SOPE  H15R19774   2.665   2.737   8.837  0.0999  0.0492 -1.0468
  174SOPE  H15S19775   2.695   2.670   8.991  1.5703  0.0660  0.2642
  174SOPE  C21619776   2.731   2.526   8.827  0.1100  0.3958  0.0776
  174SOPE  H16R19777   2.805   2.459   8.877  0.0446 -0.4585 -0.9315
  174SOPE  H16S19778   2.779   2.539   8.728  0.3451  0.9157  0.2551
  174SOPE  C21719779   2.591   2.456   8.816  1.0535 -0.1052  0.5962
  174SOPE  H17R19780   2.520   2.495   8.739  0.6665 -0.5589  0.7182
  174SOPE  H17S19781   2.538   2.461   8.914 -3.5577  0.5828 -1.6510
  174SOPE  C21819782   2.598   2.310   8.789  0.1303  0.3905  0.5773
  174SOPE  H18R19783   2.652   2.284   8.696  2.2668  3.3328  0.8540
  174SOPE  H18S19784   2.497   2.264   8.796 -0.6749  2.1425  1.1324
  174SOPE  H18T19785   2.652   2.250   8.866  0.6999  0.8521  0.5425
  174SOPE   C3319786   3.360   3.718   9.908 -0.2357  0.0428 -0.4535
  174SOPE   H3X19787   3.370   3.611   9.937 -0.5969  0.1156 -0.0511
  174SOPE   H3Y19788   3.462   3.761   9.895  0.4512 -1.3126  0.1948
  174SOPE   C3419789   3.277   3.722   9.779 -0.2885 -0.1489  0.6431
  174SOPE   H4X19790   3.274   3.829   9.748 -1.7525 -0.5856 -0.8782
  174SOPE   H4Y19791   3.175   3.689   9.807 -0.4268 -0.1793  0.1212
  174SOPE   C3519792   3.336   3.633   9.667  0.0745 -0.7388 -0.1684
  174SOPE   H5X19793   3.352   3.529   9.702  4.6300 -0.9010 -2.0705
  174SOPE   H5Y19794   3.440   3.669   9.649 -0.0214  0.0913  0.8605
  174SOPE   C3619795   3.259   3.643   9.535 -0.4668 -0.0896  0.0246
  174SOPE   H6X19796   3.275   3.744   9.493 -1.2758 -0.3065 -0.8277
  174SOPE   H6Y19797   3.150   3.632   9.553 -0.6852 -2.6078 -2.1642
  174SOPE   C3719798   3.310   3.545   9.428  0.1175 -1.3679 -0.4258
  174SOPE   H7X19799   3.314   3.440   9.464  2.0506 -1.5383 -1.0353
  174SOPE   H7Y19800   3.417   3.570   9.411  0.2139 -1.5973 -0.1607
  174SOPE   C3819801   3.238   3.565   9.289 -0.4064 -1.1511  0.3530
  174SOPE   H8X19802   3.288   3.653   9.242 -0.3081 -0.7909  1.1114
  174SOPE   H8Y19803   3.129   3.583   9.293 -0.1712  0.3031  1.5512
  174SOPE   C3919804   3.266   3.451   9.198 -0.3556 -0.0752 -0.5752
  174SOPE   H9X19805   3.172   3.439   9.140 -1.6810  0.3827  1.4160
  174SOPE   H9Y19806   3.286   3.352   9.244  0.2230 -0.2026 -1.0819
  174SOPE  C31019807   3.372   3.475   9.085 -0.0398 -0.0738 -0.0957
  174SOPE  H10X19808   3.473   3.502   9.122 -0.5562  2.0318 -0.1297
  174SOPE  H10Y19809   3.339   3.557   9.019  1.1611  0.3545 -0.1833
  174SOPE  C31119810   3.375   3.347   8.998  0.2627 -0.2241  0.3431
  174SOPE  H11X19811   3.272   3.337   8.958 -0.5903 -0.2173  2.4088
  174SOPE  H11Y19812   3.385   3.257   9.063 -0.9882 -1.3020 -0.8816
  174SOPE  C31219813   3.472   3.355   8.883  0.6066  0.1259  0.5128
  174SOPE  H12X19814   3.453   3.257   8.833 -1.1341  1.1031 -0.8597
  174SOPE  H12Y19815   3.577   3.364   8.916  1.2253 -1.0036 -0.9817
  174SOPE  C31319816   3.442   3.465   8.780  0.1185  0.1435  0.1311
  174SOPE  H13X19817   3.448   3.566   8.826 -0.9375 -0.0116  0.6301
  174SOPE  H13Y19818   3.334   3.462   8.754 -0.1672 -0.8164  1.3173
  174SOPE  C31419819   3.509   3.453   8.640 -0.0767  0.5949  0.1678
  174SOPE  H14X19820   3.490   3.349   8.606  0.2100  0.2574  1.0219
  174SOPE  H14Y19821   3.618   3.475   8.637  0.1584 -0.6089 -0.4171
  174SOPE  C31519822   3.440   3.542   8.534  0.0281  0.4680  0.5214
  174SOPE  H15X19823   3.499   3.636   8.525  0.0530  0.5850  1.7500
  174SOPE  H15Y19824   3.339   3.571   8.568 -0.8508 -1.8999  0.0595
  174SOPE  C31619825   3.430   3.475   8.393 -0.7409  0.4297  0.6005
  174SOPE  H16X19826   3.371   3.382   8.408  2.6076 -2.0489 -0.6010
  174SOPE  H16Y19827   3.531   3.440   8.364 -2.1546 -2.1145 -1.7767
  174SOPE  C31719828   3.379   3.558   8.279 -0.3728 -0.0376  0.3501
  174SOPE  H17X19829   3.422   3.518   8.184 -0.9519 -1.6533  0.7558
  174SOPE  H17Y19830   3.426   3.658   8.291 -1.2556  0.5480 -0.8470
  174SOPE  C31819831   3.230   3.580   8.271  0.1283 -0.3534  0.0107
  174SOPE  H18X19832   3.203   3.674   8.323 -0.8409 -0.9226  0.5696
  174SOPE  H18Y19833   3.180   3.500   8.331  0.7370 -0.9349 -0.2482
  174SOPE  H18Z19834   3.188   3.591   8.169  0.6298  1.8142 -0.0146
  175SOPE     N19835   6.585   5.894  10.476 -0.5346  0.1173  0.7752
  175SOPE   HN119836   6.494   5.897  10.526 -1.4607 -1.2777 -0.6991
  175SOPE   HN219837   6.566   5.860  10.379  0.3551 -1.3788  1.0970
  175SOPE   HN319838   6.653   5.821  10.505 -1.2458 -0.9685 -0.1718
  175SOPE   C1219839   6.640   6.031  10.491  0.2048 -0.3062  0.1320
  175SOPE  H12A19840   6.563   6.106  10.463  0.3138 -0.3565 -0.3043
  175SOPE  H12B19841   6.723   6.041  10.417 -1.1014 -1.8295 -1.6178
  175SOPE   C1119842   6.711   6.050  10.629  0.2375  0.9240  0.5079
  175SOPE  H11A19843   6.632   6.045  10.708  0.8734 -0.3594  1.0986
  175SOPE  H11B19844   6.748   6.154  10.628 -0.0072  1.0631 -2.6800
  175SOPE     P19845   6.955   5.975  10.629 -0.2603  0.1201 -0.2612
  175SOPE   O1319846   7.048   5.856  10.608  0.3632  0.1174  0.2391
  175SOPE   O1419847   7.000   6.081  10.727 -0.1760  0.5448  0.4503
  175SOPE   O1219848   6.806   5.941  10.666 -0.1414  0.1947  0.1387
  175SOPE   O1119849   6.937   6.050  10.490 -0.1087  0.2741 -0.1721
  175SOPE    C119850   7.046   6.084  10.410  0.3212  0.1010 -0.5110
  175SOPE    HA19851   7.130   6.012  10.425  0.0389  0.0588  1.0223
  175SOPE    HB19852   7.068   6.191  10.431 -0.7942  0.2835 -0.2519
  175SOPE    C219853   7.009   6.073  10.255 -0.0789  0.6061 -0.6344
  175SOPE    HS19854   6.929   6.149  10.251 -0.1662  0.5141 -0.6387
  175SOPE   O2119855   6.986   5.933  10.230  0.0534 -0.6042 -0.0469
  175SOPE   C2119856   6.861   5.895  10.207 -0.0104 -1.0003 -0.1197
  175SOPE   O2219857   6.768   5.972  10.205 -0.2073  0.2782  0.1008
  175SOPE   C2219858   6.846   5.746  10.173  0.3644 -0.2660  0.5975
  175SOPE   H2R19859   6.786   5.708  10.258  0.5643  1.1889  1.4327
  175SOPE   H2S19860   6.948   5.702  10.174  0.0026 -1.1042  0.8933
  175SOPE    C319861   7.128   6.119  10.167  0.2433 -0.0633 -0.3428
  175SOPE    HX19862   7.128   6.059  10.074 -3.6019  1.3588 -1.4749
  175SOPE    HY19863   7.224   6.089  10.213  1.1160  1.6251 -0.9725
  175SOPE   O3119864   7.119   6.262  10.136 -0.9169 -0.5054 -0.0484
  175SOPE   C3119865   7.067   6.288  10.019 -0.0069 -0.5959  0.4143
  175SOPE   O3219866   7.056   6.215   9.923 -0.5675  0.0525  0.0067
  175SOPE   C3219867   7.014   6.434  10.022  0.7916  0.4855  0.1326
  175SOPE   H2X19868   7.048   6.478  10.118  1.5326 -0.2750  0.2241
  175SOPE   H2Y19869   6.903   6.429  10.026  0.7778 -0.2987 -0.7754
  175SOPE   C2319870   6.782   5.728  10.031  0.4021  0.7750  0.3250
  175SOPE   H3R19871   6.695   5.796  10.019 -0.2646 -0.0463  0.3521
  175SOPE   H3S19872   6.723   5.633  10.029 -1.1966  1.6795  1.5066
  175SOPE   C2419873   6.887   5.743   9.918  0.2688 -0.5087 -0.3216
  175SOPE   H4R19874   6.926   5.841   9.953  0.3469  0.0758 -1.9461
  175SOPE   H4S19875   6.956   5.658   9.939 -0.5338 -1.8133 -2.6613
  175SOPE   C2519876   6.832   5.753   9.776  1.1097  0.6288  0.0705
  175SOPE   H5R19877   6.896   5.692   9.709  1.1968  0.5157  0.2537
  175SOPE   H5S19878   6.732   5.706   9.777  0.6496  1.5345  1.8449
  175SOPE   C2619879   6.817   5.888   9.702 -0.4943 -0.5055  0.3438
  175SOPE   H6R19880   6.728   5.937   9.747 -0.3849 -0.6742  0.7444
  175SOPE   H6S19881   6.909   5.945   9.727 -2.1253  2.3428  0.2721
  175SOPE   C2719882   6.790   5.862   9.555  0.8944  0.2136 -0.8057
  175SOPE   H7R19883   6.878   5.818   9.505  1.9011  2.2632 -0.9460
  175SOPE   H7S19884   6.700   5.797   9.559  1.6466 -0.8076  2.2467
  175SOPE   C2819885   6.754   5.997   9.483 -0.3895  0.3165  0.0995
  175SOPE   H8R19886   6.722   5.973   9.380  1.8780  0.4084 -0.6734
  175SOPE   H8S19887   6.673   6.059   9.528 -0.2368  1.1480 -0.7342
  175SOPE   C2919888   6.877   6.087   9.467 -0.4687  0.6449 -0.0672
  175SOPE   H9119889   6.907   6.142   9.557  1.5985  1.0919 -0.9715
  175SOPE  C21019890   6.954   6.111   9.354  0.4600  0.3487  0.1418
  175SOPE  H10119891   7.045   6.172   9.363  1.2287 -1.0161  2.8349
  175SOPE  C21119892   6.930   6.043   9.222  0.0563 -0.8194 -0.1000
  175SOPE  H11R19893   6.900   5.943   9.261  3.4902 -0.6972  3.5803
  175SOPE  H11S19894   7.020   6.040   9.157 -1.2183 -0.1465 -1.9684
  175SOPE  C21219895   6.821   6.111   9.137 -0.2356  0.2042  0.4084
  175SOPE  H12R19896   6.847   6.217   9.118 -0.1450  0.0848 -0.1574
  175SOPE  H12S19897   6.726   6.110   9.196 -0.4852  0.7261  0.0180
  175SOPE  C21319898   6.784   6.042   9.004  0.2032 -0.4513 -0.0417
  175SOPE  H13R19899   6.696   6.093   8.960 -1.4111 -3.1285 -0.1095
  175SOPE  H13S19900   6.754   5.938   9.030  0.1506 -0.7756 -1.3342
  175SOPE  C21419901   6.891   6.026   8.893  0.0441 -0.3555  0.3979
  175SOPE  H14R19902   6.975   5.968   8.938  0.5762 -0.0502 -0.1944
  175SOPE  H14S19903   6.938   6.125   8.877  3.4491 -1.4845  2.2026
  175SOPE  C21519904   6.825   5.958   8.770  0.2139 -0.3767 -0.2474
  175SOPE  H15R19905   6.740   6.028   8.755  0.7164  0.3883  0.3865
  175SOPE  H15S19906   6.778   5.864   8.806  1.4421 -0.6832  0.6150
  175SOPE  C21619907   6.919   5.941   8.652 -0.0823 -1.4949  0.4586
  175SOPE  H16R19908   7.004   5.870   8.655  0.7719 -0.4942  0.6430
  175SOPE  H16S19909   6.961   6.044   8.643  0.4035 -1.8188 -1.6970
  175SOPE  C21719910   6.850   5.912   8.523  0.2675 -0.2439 -0.5481
  175SOPE  H17R19911   6.905   5.942   8.432 -1.3253 -1.1958 -1.8851
  175SOPE  H17S19912   6.767   5.987   8.513  1.9514  1.8859  0.5698
  175SOPE  C21819913   6.791   5.771   8.506  0.8337 -1.2022  0.2724
  175SOPE  H18R19914   6.792   5.724   8.405 -1.8263 -1.3550  0.2334
  175SOPE  H18S19915   6.692   5.770   8.557  1.2863  1.8598  1.4045
  175SOPE  H18T19916   6.846   5.695   8.565  2.7410 -0.6993 -0.7714
  175SOPE   C3319917   7.041   6.504   9.886 -0.5094 -0.0783  0.3770
  175SOPE   H3X19918   7.149   6.498   9.862 -0.3496  1.1810  0.7488
  175SOPE   H3Y19919   7.030   6.614   9.880  1.0085  0.0004 -1.6171
  175SOPE   C3419920   6.952   6.445   9.764 -0.6865 -0.0491 -0.5333
  175SOPE   H4X19921   6.843   6.441   9.786 -1.0940 -1.0413 -2.5206
  175SOPE   H4Y19922   6.979   6.339   9.746 -0.6120  0.0756 -1.1732
  175SOPE   C3519923   6.974   6.537   9.648 -0.2127  0.3184  0.7173
  175SOPE   H5X19924   7.084   6.529   9.637 -0.1549  2.3587 -0.5289
  175SOPE   H5Y19925   6.944   6.640   9.677 -0.0752  0.0143  2.0058
  175SOPE   C3619926   6.906   6.497   9.515  0.3033  0.0545  0.7121
  175SOPE   H6X19927   6.797   6.519   9.522  0.1733  0.7702 -2.2244
  175SOPE   H6Y19928   6.921   6.388   9.496  0.2570  0.0925  0.4486
  175SOPE   C3719929   6.959   6.584   9.397  0.0763  0.2385 -0.0358
  175SOPE   H7X19930   7.067   6.559   9.391  0.3546  0.1038  3.4961
  175SOPE   H7Y19931   6.952   6.692   9.422 -0.5653 -0.1277  1.5459
  175SOPE   C3819932   6.897   6.553   9.258 -1.7055  0.0497 -0.1908
  175SOPE   H8X19933   6.798   6.604   9.256 -1.8150 -0.1304  0.3805
  175SOPE   H8Y19934   6.882   6.443   9.252 -1.5818 -0.0619  1.2301
  175SOPE   C3919935   6.977   6.602   9.135 -0.2111  0.5813  0.4427
  175SOPE   H9X19936   7.072   6.546   9.123 -0.3724  0.5724 -1.0117
  175SOPE   H9Y19937   6.992   6.712   9.139  1.7742  0.3864 -0.4683
  175SOPE  C31019938   6.905   6.580   9.005 -0.6332  0.6455  0.1390
  175SOPE  H10X19939   6.799   6.605   9.027 -0.2005  1.9230  0.8528
  175SOPE  H10Y19940   6.906   6.473   8.974  0.1883  0.8799 -0.6703
  175SOPE  C31119941   6.946   6.667   8.889 -0.3473 -0.0318 -0.5490
  175SOPE  H11X19942   6.929   6.776   8.905 -0.4737  0.1274 -1.6638
  175SOPE  H11Y19943   6.887   6.642   8.798  0.6981 -1.7844 -0.7879
  175SOPE  C31219944   7.104   6.654   8.863 -0.2343 -0.2659 -0.6724
  175SOPE  H12X19945   7.164   6.657   8.956 -0.6479 -0.7187 -0.3932
  175SOPE  H12Y19946   7.124   6.743   8.799 -3.3962  1.6814  0.8057
  175SOPE  C31319947   7.142   6.532   8.783 -0.4659 -0.1950  0.3570
  175SOPE  H13X19948   7.092   6.443   8.825 -1.2874  0.2079  0.2585
  175SOPE  H13Y19949   7.251   6.515   8.796 -0.2815 -0.7389 -1.6815
  175SOPE  C31419950   7.107   6.547   8.634  0.2236 -0.4390  0.0057
  175SOPE  H14X19951   7.178   6.608   8.575 -0.9484  0.9875 -0.0106
  175SOPE  H14Y19952   7.011   6.603   8.620  0.7119  0.9689  1.8145
  175SOPE  C31519953   7.079   6.406   8.565 -0.4601 -0.5710 -0.2132
  175SOPE  H15X19954   7.018   6.357   8.644  0.8268  2.0610  2.6370
  175SOPE  H15Y19955   7.169   6.345   8.546 -0.9518 -2.7442  3.5645
  175SOPE  C31619956   6.998   6.417   8.431 -0.3441  0.3286 -0.4614
  175SOPE  H16X19957   7.049   6.481   8.356 -0.5031 -0.1127 -0.9513
  175SOPE  H16Y19958   6.914   6.486   8.455  0.4558  1.3945 -0.6172
  175SOPE  C31719959   6.953   6.285   8.380  0.8723  0.2594  0.7371
  175SOPE  H17X19960   6.906   6.225   8.461 -0.5763  0.6325  0.1999
  175SOPE  H17Y19961   7.041   6.240   8.330  2.1033  1.8739  1.3370
  175SOPE  C31819962   6.852   6.273   8.267 -0.1703 -0.6523 -0.1400
  175SOPE  H18X19963   6.831   6.170   8.231 -1.4735 -0.0163 -1.3213
  175SOPE  H18Y19964   6.890   6.338   8.185  0.9749 -2.1531 -0.8392
  175SOPE  H18Z19965   6.760   6.318   8.311  1.5313  3.5098 -0.3251
  176SOPE     N19966   4.124   6.361  10.988  0.7610  0.0273 -0.2890
  176SOPE   HN119967   4.125   6.328  11.087  3.6625  0.3128 -0.1117
  176SOPE   HN219968   4.051   6.434  10.976 -0.4849 -1.6024 -3.5208
  176SOPE   HN319969   4.109   6.288  10.916  1.5523  1.4188 -1.9449
  176SOPE   C1219970   4.270   6.410  10.957  0.7808  0.2085 -0.3565
  176SOPE  H12A19971   4.323   6.458  11.043 -0.5310  0.0738  0.5648
  176SOPE  H12B19972   4.255   6.467  10.863  0.8759 -0.2939 -0.6803
  176SOPE   C1119973   4.360   6.286  10.922  0.0408 -0.2024 -0.3034
  176SOPE  H11A19974   4.347   6.220  11.011 -2.5579  1.1075  0.3849
  176SOPE  H11B19975   4.466   6.316  10.913  0.5240 -1.5096  0.5730
  176SOPE     P19976   4.378   6.078  10.776 -0.8702 -0.2250 -0.5209
  176SOPE   O1319977   4.466   6.041  10.894  0.6651 -0.6789 -0.1238
  176SOPE   O1419978   4.458   6.091  10.652 -0.0123  0.0114  0.2392
  176SOPE   O1219979   4.310   6.224  10.809  0.6903 -0.1584 -0.0686
  176SOPE   O1119980   4.257   5.986  10.758 -0.1213 -0.0926  0.5213
  176SOPE    C119981   4.259   5.870  10.663  0.0602  0.5797  0.1441
  176SOPE    HA19982   4.236   5.782  10.727 -1.1509 -0.8897 -2.2070
  176SOPE    HB19983   4.357   5.844  10.619 -0.1680  0.5581 -0.3503
  176SOPE    C219984   4.148   5.872  10.553  0.0745 -0.1424 -0.0762
  176SOPE    HS19985   4.080   5.935  10.614  4.8586  2.5723  3.1263
  176SOPE   O2119986   4.101   5.738  10.515 -0.2021 -0.6268 -0.2404
  176SOPE   C2119987   3.987   5.733  10.470  0.0060  0.8399  0.6530
  176SOPE   O2219988   3.898   5.820  10.466 -0.0456 -0.9383 -0.5204
  176SOPE   C2219989   3.968   5.596  10.395  0.0737  0.2405  0.1992
  176SOPE   H2R19990   3.875   5.553  10.437 -0.9704 -0.7181 -2.8288
  176SOPE   H2S19991   4.054   5.529  10.419 -1.9152 -2.3858  0.4084
  176SOPE    C319992   4.196   5.954  10.432  0.0291  0.3963  0.2359
  176SOPE    HX19993   4.279   5.910  10.374 -0.8471  1.3230 -1.8191
  176SOPE    HY19994   4.234   6.051  10.471  0.9149 -0.0476  0.4795
  176SOPE   O3119995   4.095   5.975  10.328 -0.1942 -0.0334 -0.4951
  176SOPE   C3119996   4.038   6.092  10.321 -0.1168  0.5022  0.5627
  176SOPE   O3219997   4.045   6.184  10.405  0.1176  0.0317  0.2994
  176SOPE   C3219998   3.955   6.098  10.193 -0.0645 -0.6967 -0.3477
  176SOPE   H2X19999   3.919   5.998  10.160  1.2185 -2.1018  2.2119
  176SOPE   H2Y20000   4.024   6.139  10.115 -0.9368  0.3823 -0.5699
  176SOPE   C2320001   3.947   5.600  10.250 -0.9760  0.0807  0.3196
  176SOPE   H3R20002   3.858   5.662  10.226 -1.8615 -1.2330  0.1054
  176SOPE   H3S20003   3.922   5.496  10.222 -1.0755  0.2431 -0.1967
  176SOPE   C2420004   4.066   5.632  10.160 -0.0344 -0.3164  0.0944
  176SOPE   H4R20005   4.103   5.729  10.201  0.2201 -0.5536  0.4256
  176SOPE   H4S20006   4.147   5.557  10.173  0.9460  0.3941 -1.5914
  176SOPE   C2520007   4.028   5.659  10.021  0.4062  0.3610  0.0046
  176SOPE   H5R20008   3.957   5.584   9.978 -0.5979  1.9476 -1.2066
  176SOPE   H5S20009   3.981   5.759  10.012  2.0384  1.0150 -1.9786
  176SOPE   C2620010   4.143   5.679   9.910 -0.3194  0.0773 -0.3370
  176SOPE   H6R20011   4.190   5.580   9.896 -1.2140 -0.0651 -2.7344
  176SOPE   H6S20012   4.096   5.722   9.819  0.7298 -0.0231 -0.9417
  176SOPE   C2720013   4.250   5.780   9.935  0.4659 -0.1633 -0.7039
  176SOPE   H7R20014   4.213   5.884   9.922 -0.8828 -0.3429  1.2420
  176SOPE   H7S20015   4.271   5.780  10.044 -1.5144  1.7789 -0.2469
  176SOPE   C2820016   4.376   5.747   9.852  0.2340 -0.3114 -0.5895
  176SOPE   H8R20017   4.413   5.663   9.914 -1.1653  0.1305  0.9115
  176SOPE   H8S20018   4.335   5.702   9.759 -1.3176 -0.0660 -0.0551
  176SOPE   C2920019   4.481   5.856   9.832 -0.6183 -0.6151  0.0733
  176SOPE   H9120020   4.544   5.888   9.916 -0.4654  0.5389 -0.4600
  176SOPE  C21020021   4.489   5.931   9.722  0.7560  0.7941  0.2101
  176SOPE  H10120022   4.557   6.017   9.724  0.9697  0.6103  1.8517
  176SOPE  C21120023   4.402   5.927   9.604 -0.0581  0.2110 -0.2470
  176SOPE  H11R20024   4.382   6.026   9.556 -0.3004  0.6271  0.6948
  176SOPE  H11S20025   4.303   5.881   9.624  1.1157 -1.3976  2.2696
  176SOPE  C21220026   4.467   5.850   9.495 -0.9895  0.3392  0.4877
  176SOPE  H12R20027   4.495   5.746   9.522  2.2842  1.3641  1.5253
  176SOPE  H12S20028   4.559   5.894   9.450 -1.1593 -0.8723 -1.1625
  176SOPE  C21320029   4.377   5.831   9.364 -0.1856  0.6930  0.9128
  176SOPE  H13R20030   4.335   5.922   9.316 -0.9713 -0.1196  0.0051
  176SOPE  H13S20031   4.283   5.794   9.410  0.6022 -1.8320  0.6080
  176SOPE  C21420032   4.421   5.724   9.254  0.6158 -0.6380 -0.8573
  176SOPE  H14R20033   4.445   5.633   9.313  0.3617 -0.4720 -0.4948
  176SOPE  H14S20034   4.511   5.758   9.199  1.5706 -1.7156 -0.0208
  176SOPE  C21520035   4.307   5.685   9.157 -0.5080 -0.1789 -0.6413
  176SOPE  H15R20036   4.271   5.772   9.099 -1.0769  0.9617  1.2982
  176SOPE  H15S20037   4.226   5.642   9.220  0.9122 -0.8505  0.8364
  176SOPE  C21620038   4.350   5.565   9.072 -0.1573  0.2185 -0.1872
  176SOPE  H16R20039   4.418   5.498   9.130 -1.2158  1.8639  3.2687
  176SOPE  H16S20040   4.422   5.595   8.993  0.8318 -1.2958  0.0743
  176SOPE  C21720041   4.230   5.492   9.016 -0.3423  1.0939  0.5005
  176SOPE  H17R20042   4.164   5.557   8.955 -2.1258 -0.4255  0.7014
  176SOPE  H17S20043   4.171   5.444   9.097  1.3927 -0.9670  0.6649
  176SOPE  C21820044   4.269   5.389   8.914  0.2229  0.1151  0.3840
  176SOPE  H18R20045   4.321   5.446   8.834 -1.0466  0.3590 -0.2869
  176SOPE  H18S20046   4.192   5.336   8.854  0.7172 -0.0187 -0.1477
  176SOPE  H18T20047   4.340   5.311   8.950 -0.3539  0.5814  2.6538
  176SOPE   C3320048   3.824   6.184  10.207 -0.0633  0.5165  0.5816
  176SOPE   H3X20049   3.852   6.286  10.242  0.1155  0.4903  0.5190
  176SOPE   H3Y20050   3.766   6.133  10.286 -1.3091  1.0736  0.0582
  176SOPE   C3420051   3.731   6.177  10.085  0.5942  0.1384  0.2443
  176SOPE   H4X20052   3.647   6.250  10.092  1.7223  2.0137 -3.2633
  176SOPE   H4Y20053   3.688   6.078  10.060 -1.5072  1.5027 -2.0910
  176SOPE   C3520054   3.813   6.226   9.970 -0.6523 -0.0618  0.5849
  176SOPE   H5X20055   3.873   6.138   9.937 -0.0789 -0.0422  1.5230
  176SOPE   H5Y20056   3.872   6.316   9.996 -0.1216 -0.5988  1.2884
  176SOPE   C3620057   3.720   6.275   9.858 -0.7876 -0.1446  0.0976
  176SOPE   H6X20058   3.644   6.345   9.900  1.2860  2.3086 -0.0294
  176SOPE   H6Y20059   3.674   6.183   9.817 -0.0574  0.1220 -1.3815
  176SOPE   C3720060   3.787   6.341   9.732  0.2249 -0.6088  0.0513
  176SOPE   H7X20061   3.889   6.297   9.720  0.8491  1.0540 -1.1291
  176SOPE   H7Y20062   3.802   6.450   9.744  2.8220 -0.9341  0.4558
  176SOPE   C3820063   3.709   6.305   9.608  0.2025 -0.5346  0.1694
  176SOPE   H8X20064   3.602   6.329   9.627  0.5874  0.2951  1.3633
  176SOPE   H8Y20065   3.712   6.195   9.588 -0.7718 -0.4540 -0.4769
  176SOPE   C3920066   3.757   6.353   9.469  0.5716  0.2242 -0.3029
  176SOPE   H9X20067   3.849   6.294   9.449  0.2539 -0.7608  0.9748
  176SOPE   H9Y20068   3.775   6.462   9.469 -1.1838  0.5646  1.1806
  176SOPE  C31020069   3.645   6.325   9.368 -0.0674  0.6221 -0.6062
  176SOPE  H10X20070   3.568   6.402   9.386  0.3461  0.9985 -0.4154
  176SOPE  H10Y20071   3.604   6.225   9.396  0.0735  0.4042 -1.1734
  176SOPE  C31120072   3.682   6.337   9.219 -0.0595 -0.1653 -0.4212
  176SOPE  H11X20073   3.599   6.323   9.146 -0.2618  0.8805 -0.4090
  176SOPE  H11Y20074   3.753   6.253   9.207 -0.4595 -0.6316  0.3561
  176SOPE  C31220075   3.745   6.479   9.180 -0.1822 -0.1509  0.6607
  176SOPE  H12X20076   3.787   6.470   9.078  2.1747  2.9157  1.2408
  176SOPE  H12Y20077   3.829   6.502   9.248 -1.1818  0.3686  1.7545
  176SOPE  C31320078   3.641   6.589   9.199  0.1891 -0.2219 -0.1931
  176SOPE  H13X20079   3.678   6.693   9.180 -0.3804  0.0447  0.1172
  176SOPE  H13Y20080   3.603   6.589   9.304  1.3028  0.2329  0.2279
  176SOPE  C31420081   3.505   6.577   9.124 -0.0174 -0.0753 -0.2374
  176SOPE  H14X20082   3.438   6.661   9.154 -1.7196 -1.2100 -0.7075
  176SOPE  H14Y20083   3.445   6.491   9.160 -0.3845  0.4897  0.5447
  176SOPE  C31520084   3.513   6.592   8.973  0.6096 -1.1292  0.1134
  176SOPE  H15X20085   3.410   6.599   8.930  0.9498  1.8973 -0.4556
  176SOPE  H15Y20086   3.563   6.509   8.919 -0.3349 -1.1764 -0.7259
  176SOPE  C31620087   3.579   6.724   8.918  1.0130 -0.4864  0.3942
  176SOPE  H16X20088   3.689   6.714   8.905  1.3042 -0.8528  2.7911
  176SOPE  H16Y20089   3.555   6.818   8.971 -0.1006 -0.5392  0.0070
  176SOPE  C31720090   3.521   6.758   8.778  0.2131  0.5914 -0.2497
  176SOPE  H17X20091   3.511   6.661   8.725 -1.4371 -0.6090  2.0843
  176SOPE  H17Y20092   3.591   6.826   8.724 -1.1896  3.3005  1.0901
  176SOPE  C31820093   3.386   6.829   8.769 -0.5012 -0.3830 -0.4229
  176SOPE  H18X20094   3.357   6.864   8.667 -2.9070 -1.3662 -0.1387
  176SOPE  H18Y20095   3.382   6.921   8.831 -0.6707 -1.0047  0.5060
  176SOPE  H18Z20096   3.297   6.772   8.805 -0.1876  0.6809  2.2733
  177SOPE     N20097   2.392   1.603  10.728  0.4830 -0.8111  0.0436
  177SOPE   HN120098   2.342   1.618  10.638  0.6738  1.5989  0.2798
  177SOPE   HN220099   2.327   1.642  10.799  1.7793  0.7711  0.3990
  177SOPE   HN320100   2.472   1.669  10.732  1.1872 -1.5457 -1.1321
  177SOPE   C1220101   2.423   1.457  10.759  0.3199  0.6547 -0.1812
  177SOPE  H12A20102   2.507   1.452  10.832 -0.6364 -2.4019  0.8638
  177SOPE  H12B20103   2.463   1.403  10.670  0.8516 -3.9307  2.5167
  177SOPE   C1120104   2.310   1.388  10.830 -0.3551  0.8517 -0.4964
  177SOPE  H11A20105   2.289   1.445  10.923 -0.3923 -1.1080  0.7557
  177SOPE  H11B20106   2.334   1.285  10.865  0.1068  0.9863 -0.4015
  177SOPE     P20107   2.134   1.252  10.682 -0.3101  0.3439 -0.0074
  177SOPE   O1320108   2.075   1.175  10.792 -0.0792 -0.3763 -0.2237
  177SOPE   O1420109   2.236   1.192  10.594  0.2589 -0.2420  0.5483
  177SOPE   O1220110   2.196   1.382  10.753  0.2162 -0.3226  0.3175
  177SOPE   O1120111   2.015   1.312  10.602 -0.4568  0.2856  0.2649
  177SOPE    C120112   2.031   1.440  10.536  0.3279 -0.4322 -0.5895
  177SOPE    HA20113   2.085   1.512  10.602 -0.5870 -0.0485 -0.2406
  177SOPE    HB20114   1.933   1.487  10.516  1.4422  3.1609  1.3275
  177SOPE    C220115   2.089   1.430  10.394  1.2241  1.3645  1.3820
  177SOPE    HS20116   2.189   1.382  10.397  0.3286 -1.0430 -1.8318
  177SOPE   O2120117   2.097   1.562  10.332 -0.5140  0.1947 -0.4350
  177SOPE   C2120118   2.182   1.647  10.379 -0.4691 -0.2639 -0.1311
  177SOPE   O2220119   2.253   1.620  10.476  0.0839  0.4409  0.8248
  177SOPE   C2220120   2.167   1.784  10.309 -0.6220 -0.3718 -0.5570
  177SOPE   H2R20121   2.189   1.866  10.380  0.3180 -4.5804  4.7136
  177SOPE   H2S20122   2.061   1.795  10.279 -0.7247  0.8675  0.1993
  177SOPE    C320123   2.001   1.328  10.305 -0.2073 -0.3092  0.4770
  177SOPE    HX20124   1.893   1.351  10.302  0.0343  0.9044 -1.9849
  177SOPE    HY20125   2.036   1.232  10.349  3.6499 -0.8947 -3.1668
  177SOPE   O3120126   2.053   1.343  10.171 -1.0211  0.0947  0.4246
  177SOPE   C3120127   1.987   1.245  10.091 -0.3722 -0.4696  0.2777
  177SOPE   O3220128   1.898   1.176  10.136  0.2436 -0.6948 -0.0910
  177SOPE   C3220129   2.053   1.242   9.963 -0.2147 -0.1240 -0.2840
  177SOPE   H2X20130   2.163   1.235   9.967 -0.2176  0.0121  0.0730
  177SOPE   H2Y20131   2.033   1.344   9.922  0.2862  0.6051  1.2070
  177SOPE   C2320132   2.257   1.792  10.189  0.2776 -0.1042  0.1962
  177SOPE   H3R20133   2.238   1.708  10.118 -1.6684  0.8328 -0.4673
  177SOPE   H3S20134   2.366   1.788  10.210  0.7328  1.1854 -1.6676
  177SOPE   C2420135   2.229   1.922  10.112  0.0169 -0.0196  0.4739
  177SOPE   H4R20136   2.119   1.927  10.096 -0.1651 -0.0503  1.6118
  177SOPE   H4S20137   2.258   2.002  10.183  0.4097 -0.4902  0.8512
  177SOPE   C2520138   2.307   1.915   9.977  0.1349  0.7795  0.2804
  177SOPE   H5R20139   2.414   1.912  10.005  0.0109  1.7800  0.9302
  177SOPE   H5S20140   2.289   1.819   9.925 -0.8022  1.1824 -0.1712
  177SOPE   C2620141   2.280   2.025   9.874  0.0178 -0.0749  0.8458
  177SOPE   H6R20142   2.173   2.019   9.844  0.4848 -2.0204 -0.6673
  177SOPE   H6S20143   2.325   2.118   9.913  0.8710 -0.4126  0.6873
  177SOPE   C2720144   2.336   1.989   9.736 -0.4172  0.3630 -0.2445
  177SOPE   H7R20145   2.447   1.992   9.747 -0.3347  0.9793 -1.1494
  177SOPE   H7S20146   2.311   1.883   9.714 -0.8531  0.9122 -2.6630
  177SOPE   C2820147   2.300   2.084   9.625  0.0294  0.7619  0.3665
  177SOPE   H8R20148   2.194   2.055   9.607 -0.4468  3.1923 -1.1160
  177SOPE   H8S20149   2.309   2.191   9.651 -1.8826  0.7050  1.4276
  177SOPE   C2920150   2.380   2.052   9.498  0.8098 -0.0383 -0.7328
  177SOPE   H9120151   2.480   2.007   9.508  1.3360  1.4965  1.9372
  177SOPE  C21020152   2.335   2.066   9.373  0.3147  0.0487  0.0935
  177SOPE  H10120153   2.408   2.071   9.291  0.6301  1.5757  0.4264
  177SOPE  C21120154   2.200   2.116   9.325  0.3588 -0.1444  0.2286
  177SOPE  H11R20155   2.142   2.167   9.404  0.0566  1.1757 -0.8050
  177SOPE  H11S20156   2.141   2.030   9.286 -1.0573  0.5386  0.8182
  177SOPE  C21220157   2.231   2.211   9.196 -0.6074 -0.2875 -0.4975
  177SOPE  H12R20158   2.316   2.170   9.138  1.1320  3.1366 -0.6071
  177SOPE  H12S20159   2.276   2.306   9.233  0.1412  0.0683 -2.2207
  177SOPE  C21320160   2.102   2.246   9.120 -0.6186  0.6316  0.4336
  177SOPE  H13R20161   2.052   2.339   9.151  1.9829  2.1850  0.2916
  177SOPE  H13S20162   2.037   2.157   9.138 -0.7252  0.6545  0.1645
  177SOPE  C21420163   2.132   2.254   8.968 -0.2654  0.1534  0.5545
  177SOPE  H14R20164   2.155   2.154   8.927 -1.7750  0.6158 -1.6105
  177SOPE  H14S20165   2.215   2.326   8.954  0.1017 -0.4924 -0.7602
  177SOPE  C21520166   2.008   2.305   8.884  0.1198  0.1171 -0.4801
  177SOPE  H15R20167   1.959   2.385   8.941  1.4161 -0.0270  0.9011
  177SOPE  H15S20168   1.923   2.233   8.887 -1.3099  1.7875  1.4182
  177SOPE  C21620169   2.057   2.332   8.747 -0.1291 -0.8657 -0.2016
  177SOPE  H16R20170   2.141   2.405   8.755 -1.9350  1.1628  1.4547
  177SOPE  H16S20171   1.978   2.385   8.689 -0.2828  1.3253  1.8788
  177SOPE  C21720172   2.102   2.208   8.671  0.2846  0.1152  0.6491
  177SOPE  H17R20173   2.014   2.140   8.676  0.9085 -0.9873 -1.8013
  177SOPE  H17S20174   2.179   2.144   8.718 -0.3486 -1.2286 -0.0793
  177SOPE  C21820175   2.137   2.244   8.517 -0.5016  0.7983 -0.5268
  177SOPE  H18R20176   2.051   2.298   8.472 -1.3126  0.7015  0.8407
  177SOPE  H18S20177   2.160   2.147   8.468  0.6252  0.2305  1.0286
  177SOPE  H18T20178   2.236   2.293   8.526  0.7556 -1.9508  2.7509
  177SOPE   C3320179   2.004   1.145   9.854 -0.7468 -0.3454  0.0938
  177SOPE   H3X20180   1.895   1.167   9.851 -0.5889  0.3870 -0.8192
  177SOPE   H3Y20181   2.029   1.041   9.884 -1.3511 -0.8924 -1.2514
  177SOPE   C3420182   2.076   1.160   9.715  0.4944 -0.1333 -0.4167
  177SOPE   H4X20183   2.184   1.136   9.716  0.3146 -1.0233  1.3208
  177SOPE   H4Y20184   2.071   1.266   9.680  0.3067  0.4583  1.3329
  177SOPE   C3520185   1.991   1.081   9.607 -0.2598  0.3184 -0.0716
  177SOPE   H5X20186   1.881   1.094   9.600 -0.1916  1.4363  0.6536
  177SOPE   H5Y20187   2.008   0.975   9.634  1.8478  0.4210 -0.8072
  177SOPE   C3620188   2.045   1.097   9.471 -0.3570 -0.5127  0.6294
  177SOPE   H6X20189   2.151   1.064   9.471 -0.3798 -0.6478 -0.7306
  177SOPE   H6Y20190   2.064   1.205   9.452  3.4899 -0.8255  1.7585
  177SOPE   C3720191   1.968   1.025   9.365 -0.2829 -0.1566 -0.5408
  177SOPE   H7X20192   1.865   1.065   9.357  0.0113  0.3895 -2.0115
  177SOPE   H7Y20193   1.971   0.917   9.391 -2.9022  0.1140  1.2301
  177SOPE   C3820194   2.041   1.032   9.225  1.2593  0.6096 -0.3546
  177SOPE   H8X20195   2.137   0.981   9.251  0.3651 -0.1377  1.8007
  177SOPE   H8Y20196   2.070   1.136   9.201  1.8978  0.3759 -0.6351
  177SOPE   C3920197   1.983   0.952   9.114 -0.0442 -0.0828 -0.2532
  177SOPE   H9X20198   1.956   0.849   9.148 -2.2311 -1.1513 -4.4918
  177SOPE   H9Y20199   2.058   0.934   9.035 -0.2783 -0.7406 -0.3388
  177SOPE  C31020200   1.857   1.022   9.065 -0.3442  0.5278  0.7711
  177SOPE  H10X20201   1.887   1.126   9.042  1.0528  0.2214  1.1036
  177SOPE  H10Y20202   1.781   1.032   9.146  2.1977  2.1997  3.0994
  177SOPE  C31120203   1.804   0.956   8.940  0.5545  0.0127 -0.4203
  177SOPE  H11X20204   1.798   0.846   8.953  3.8531 -0.4685 -1.8694
  177SOPE  H11Y20205   1.869   0.963   8.850 -2.7880 -1.9347 -3.2859
  177SOPE  C31220206   1.676   1.010   8.884 -0.4349 -0.7294  0.1658
  177SOPE  H12X20207   1.690   1.118   8.860 -3.4221 -0.2756  0.0139
  177SOPE  H12Y20208   1.601   0.991   8.964 -0.0700  2.1324  1.3127
  177SOPE  C31320209   1.635   0.932   8.749  0.8911  0.0267 -0.4172
  177SOPE  H13X20210   1.594   0.830   8.760 -0.1956  0.6201  1.3557
  177SOPE  H13Y20211   1.729   0.935   8.689  0.7141  1.0354 -0.6693
  177SOPE  C31420212   1.519   1.004   8.664 -0.0296  0.5144  0.2255
  177SOPE  H14X20213   1.553   1.105   8.632  0.8714  0.9210  2.3034
  177SOPE  H14Y20214   1.433   1.017   8.732  0.5283 -1.0496  1.2675
  177SOPE  C31520215   1.480   0.923   8.537 -0.4077 -0.4264  0.0928
  177SOPE  H15X20216   1.476   0.814   8.560 -0.1520 -0.8037 -1.5214
  177SOPE  H15Y20217   1.561   0.929   8.460  0.3148 -0.8279  0.8052
  177SOPE  C31620218   1.338   0.958   8.491  0.3451  0.2041  0.0847
  177SOPE  H16X20219   1.256   0.931   8.560 -0.4951  0.8710 -0.6230
  177SOPE  H16Y20220   1.328   0.887   8.406 -1.1402 -2.9215  2.6537
  177SOPE  C31720221   1.326   1.097   8.420  0.0263 -0.5411  0.3427
  177SOPE  H17X20222   1.427   1.143   8.410 -0.2293 -0.0919 -0.1291
  177SOPE  H17Y20223   1.266   1.176   8.469  1.2460  1.7620 -1.7115
  177SOPE  C31820224   1.272   1.090   8.278 -0.3297  0.6110 -0.0339
  177SOPE  H18X20225   1.331   1.028   8.208  2.1129  2.9798 -0.2607
  177SOPE  H18Y20226   1.287   1.194   8.242  0.4478  0.7426  0.6274
  177SOPE  H18Z20227   1.163   1.069   8.284  0.0136 -1.9296 -1.6637
  178SOPE     N20228   0.125   6.655  10.738 -0.2908 -0.2143  0.7867
  178SOPE   HN120229   0.065   6.701  10.666  0.8525 -0.4643 -0.3773
  178SOPE   HN220230   0.186   6.725  10.783 -0.6332 -0.5362  1.7669
  178SOPE   HN320231   0.188   6.599  10.677 -0.2910  0.6748 -0.0677
  178SOPE   C1220232   0.044   6.584  10.830 -0.0465  1.1341 -0.0954
  178SOPE  H12A20233  -0.032   6.654  10.872  0.6817  3.3155 -2.2244
  178SOPE  H12B20234   0.116   6.542  10.904 -1.0353 -1.1600 -0.3665
  178SOPE   C1120235  -0.035   6.475  10.763  0.0119 -0.5478 -0.7728
  178SOPE  H11A20236  -0.078   6.418  10.848  1.4527  1.0520  1.1242
  178SOPE  H11B20237   0.037   6.407  10.712  4.0455  1.8651  1.1823
  178SOPE     P20238  -0.279   6.502  10.669  0.3882  0.0992  0.2432
  178SOPE   O1320239  -0.350   6.629  10.655 -0.1026 -0.5829  0.1509
  178SOPE   O1420240  -0.305   6.407  10.782  0.2868 -0.0547  0.2353
  178SOPE   O1220241  -0.127   6.540  10.676  0.6843  0.0131  0.3731
  178SOPE   O1120242  -0.280   6.410  10.545  0.4270 -0.1001 -0.3119
  178SOPE    C120243  -0.305   6.454  10.412 -0.7800  0.2115 -0.4457
  178SOPE    HA20244  -0.367   6.545  10.402  0.0573  0.7908 -0.4853
  178SOPE    HB20245  -0.366   6.378  10.358 -0.0662 -1.3103  0.8293
  178SOPE    C220246  -0.172   6.486  10.344  0.7029  0.1021  0.5093
  178SOPE    HS20247  -0.116   6.553  10.414 -2.0835  1.2704  1.7692
  178SOPE   O2120248  -0.212   6.553  10.221  0.1041 -0.3383  0.0296
  178SOPE   C2120249  -0.116   6.623  10.172 -0.0437  0.2905 -0.4246
  178SOPE   O2220250  -0.016   6.667  10.222 -0.4688 -0.0191  0.0732
  178SOPE   C2220251  -0.161   6.664  10.034  0.2807 -0.0163  0.2468
  178SOPE   H2R20252  -0.269   6.688  10.024  0.1393 -1.3229 -1.9161
  178SOPE   H2S20253  -0.143   6.570   9.977  1.8692  1.3940 -1.7235
  178SOPE    C320254  -0.088   6.357  10.321 -0.3521 -0.1986 -0.2521
  178SOPE    HX20255  -0.032   6.334  10.414  0.6617  0.7076 -0.6124
  178SOPE    HY20256  -0.006   6.373  10.247 -1.4600 -1.7006 -1.8627
  178SOPE   O3120257  -0.178   6.255  10.273  0.3729 -0.6357 -0.3022
  178SOPE   C3120258  -0.200   6.261  10.138 -0.0469 -0.5272 -0.3544
  178SOPE   O3220259  -0.152   6.351  10.069 -0.0423 -0.5315  0.1390
  178SOPE   C3220260  -0.292   6.152  10.092  0.0141  0.4776  0.3247
  178SOPE   H2X20261  -0.263   6.060  10.148  2.9444 -0.1290 -1.9645
  178SOPE   H2Y20262  -0.261   6.132   9.988 -1.6527 -0.8273  0.0302
  178SOPE   C2320263  -0.075   6.784   9.989  0.1904 -0.1960 -0.1287
  178SOPE   H3R20264   0.033   6.765  10.006  0.0852 -0.5470  0.1810
  178SOPE   H3S20265  -0.111   6.874  10.044 -1.1592 -1.0909  0.5187
  178SOPE   C2420266  -0.093   6.819   9.838 -0.0437  0.2723 -0.3148
  178SOPE   H4R20267  -0.067   6.722   9.790 -0.5527 -2.1029  3.7654
  178SOPE   H4S20268  -0.202   6.840   9.823  0.0581  0.4735 -0.7929
  178SOPE   C2520269  -0.023   6.947   9.786  1.0849 -0.0534 -0.4179
  178SOPE   H5R20270  -0.042   7.023   9.864  0.0929 -0.5325 -0.1733
  178SOPE   H5S20271   0.086   6.931   9.772  1.2796  1.1384 -0.3281
  178SOPE   C2620272  -0.084   6.985   9.655 -0.1484 -0.2696  0.5242
  178SOPE   H6R20273  -0.195   6.986   9.659 -0.4202  3.4369 -2.4160
  178SOPE   H6S20274  -0.049   7.085   9.620  0.2720 -0.3034  0.8461
  178SOPE   C2720275  -0.037   6.893   9.540  0.2641  0.0525  0.5703
  178SOPE   H7R20276   0.073   6.896   9.523  0.6372 -1.2771  2.4553
  178SOPE   H7S20277  -0.038   6.786   9.570  1.0782 -0.6714 -1.7703
  178SOPE   C2820278  -0.102   6.920   9.398  0.2185  0.0051  0.1392
  178SOPE   H8R20279  -0.116   7.028   9.380 -2.7382 -0.2114  0.6217
  178SOPE   H8S20280  -0.041   6.881   9.314 -1.9257 -0.0268 -1.5121
  178SOPE   C2920281  -0.242   6.867   9.375 -0.1832 -0.1882 -0.5515
  178SOPE   H9120282  -0.309   6.894   9.458 -1.1335  0.2145 -1.4266
  178SOPE  C21020283  -0.287   6.792   9.271 -0.5285 -0.0182 -0.1896
  178SOPE  H10120284  -0.394   6.767   9.280 -0.0592 -1.8086  1.0447
  178SOPE  C21120285  -0.212   6.752   9.153 -0.4643 -0.4722  0.1468
  178SOPE  H11R20286  -0.236   6.646   9.127 -0.8101 -1.4380  3.8588
  178SOPE  H11S20287  -0.103   6.751   9.177 -0.6479  0.7524  1.1527
  178SOPE  C21220288  -0.218   6.844   9.031  0.1263 -0.2598 -0.8134
  178SOPE  H12R20289  -0.173   6.780   8.952  2.0495 -1.5177  1.1883
  178SOPE  H12S20290  -0.158   6.933   9.062 -1.7661  1.1194 -0.9191
  178SOPE  C21320291  -0.365   6.887   8.986  0.4636  0.4532 -0.3157
  178SOPE  H13R20292  -0.407   6.967   9.050  2.0314  0.8576  0.2467
  178SOPE  H13S20293  -0.431   6.801   9.013  0.3329  1.6306  3.7933
  178SOPE  C21420294  -0.383   6.916   8.840  0.6723  0.1186  0.9723
  178SOPE  H14R20295  -0.490   6.924   8.812  0.7969 -1.5756 -0.1942
  178SOPE  H14S20296  -0.343   6.824   8.793  1.1139  2.2028 -3.2864
  178SOPE  C21520297  -0.318   7.046   8.790 -0.0243 -0.3852 -0.3143
  178SOPE  H15R20298  -0.208   7.032   8.781  0.4462  1.2195  2.1195
  178SOPE  H15S20299  -0.323   7.115   8.876  1.6866 -1.9100  1.0912
  178SOPE  C21620300  -0.373   7.104   8.664  0.4516  0.4510 -0.1257
  178SOPE  H16R20301  -0.322   7.202   8.652  0.4698  0.4467 -0.0843
  178SOPE  H16S20302  -0.484   7.118   8.667  0.5950  1.6838 -0.1454
  178SOPE  C21720303  -0.338   7.016   8.540 -0.4168  0.4117 -0.0501
  178SOPE  H17R20304  -0.364   6.910   8.560  0.1959  0.8108  3.5843
  178SOPE  H17S20305  -0.229   7.008   8.522 -0.1477 -3.1138  2.0943
  178SOPE  C21820306  -0.415   7.066   8.423 -0.1912 -0.2390  0.6862
  178SOPE  H18R20307  -0.402   7.005   8.331 -0.6336  0.3366  0.2308
  178SOPE  H18S20308  -0.379   7.168   8.398 -0.9775 -0.2422 -0.5782
  178SOPE  H18T20309  -0.523   7.076   8.445 -0.1628  0.7659  0.4419
  178SOPE   C3320310  -0.443   6.185  10.092 -0.3366 -0.4110 -0.3294
  178SOPE   H3X20311  -0.479   6.194  10.197  1.0971 -5.4311  0.9057
  178SOPE   H3Y20312  -0.503   6.095  10.066  0.8238 -1.3528  0.1085
  178SOPE   C3420313  -0.500   6.297  10.008 -0.5965  0.7212 -0.9765
  178SOPE   H4X20314  -0.440   6.388  10.032 -2.4323  1.2954  1.9344
  178SOPE   H4Y20315  -0.603   6.327  10.038 -0.1958 -0.2153  1.5292
  178SOPE   C3520316  -0.499   6.276   9.859  0.1803  0.1848  0.3026
  178SOPE   H5X20317  -0.576   6.200   9.834  0.8066  0.3868 -2.6752
  178SOPE   H5Y20318  -0.406   6.235   9.815  0.7736  0.5089  1.2315
  178SOPE   C3620319  -0.541   6.410   9.789  0.0806 -0.0713 -0.2545
  178SOPE   H6X20320  -0.636   6.455   9.823  0.3180 -0.2173  0.6306
  178SOPE   H6Y20321  -0.557   6.378   9.684 -0.6460  0.6890 -0.3875
  178SOPE   C3720322  -0.432   6.519   9.796  0.1863 -0.2893 -0.3147
  178SOPE   H7X20323  -0.332   6.471   9.797  0.7523  0.8012 -1.5610
  178SOPE   H7Y20324  -0.430   6.570   9.894 -0.5824 -2.1124  0.7003
  178SOPE   C3820325  -0.432   6.627   9.683  0.1807  0.1467  0.3703
  178SOPE   H8X20326  -0.434   6.577   9.584  1.3215 -1.0090  0.9071
  178SOPE   H8Y20327  -0.339   6.686   9.691  1.6190 -1.8031 -1.0978
  178SOPE   C3920328  -0.559   6.705   9.697  0.3143 -0.0243 -0.1099
  178SOPE   H9X20329  -0.574   6.750   9.797 -3.0104 -3.1245  0.9884
  178SOPE   H9Y20330  -0.651   6.643   9.700 -1.0800  1.8206 -1.6159
  178SOPE  C31020331  -0.583   6.813   9.594 -0.3047  0.3435 -0.2410
  178SOPE  H10X20332  -0.487   6.869   9.581 -0.6249  1.5649  2.1294
  178SOPE  H10Y20333  -0.650   6.886   9.644 -0.2158 -0.6588  1.3838
  178SOPE  C31120334  -0.648   6.767   9.467  0.6072 -0.2350  0.2501
  178SOPE  H11X20335  -0.746   6.723   9.497  2.0369 -2.9241  1.3175
  178SOPE  H11Y20336  -0.594   6.679   9.426 -0.3826 -1.3423  1.2526
  178SOPE  C31220337  -0.653   6.878   9.358 -0.5395  0.2085 -0.5457
  178SOPE  H12X20338  -0.545   6.893   9.336 -0.6679  2.4257  0.1243
  178SOPE  H12Y20339  -0.695   6.977   9.385  1.1057  1.3314 -1.8403
  178SOPE  C31320340  -0.729   6.833   9.228  0.3319 -0.0896 -0.0209
  178SOPE  H13X20341  -0.832   6.804   9.259  0.0926  0.9115  0.1491
  178SOPE  H13Y20342  -0.676   6.742   9.192 -0.1974  0.3927 -2.1333
  178SOPE  C31420343  -0.735   6.952   9.120  0.6563  0.0670 -0.3979
  178SOPE  H14X20344  -0.643   6.981   9.063  0.5779  0.7602 -0.1824
  178SOPE  H14Y20345  -0.765   7.045   9.172 -0.5295 -0.6944  0.3149
  178SOPE  C31520346  -0.850   6.916   9.020  0.2100  0.5525  0.2066
  178SOPE  H15X20347  -0.872   7.004   8.955 -0.9253 -1.9605 -3.0799
  178SOPE  H15Y20348  -0.943   6.902   9.079 -0.6995  1.5068 -0.9608
  178SOPE  C31620349  -0.828   6.790   8.932 -0.1747 -0.3557 -0.5524
  178SOPE  H16X20350  -0.827   6.703   9.001 -1.8907  1.8603  2.5315
  178SOPE  H16Y20351  -0.733   6.797   8.874  0.8091  1.9703  1.1811
  178SOPE  C31720352  -0.943   6.769   8.828  0.5850  0.4449 -0.9531
  178SOPE  H17X20353  -1.029   6.748   8.894  0.5406  0.4245 -1.0160
  178SOPE  H17Y20354  -0.927   6.682   8.760  0.3376 -0.2822 -0.0876
  178SOPE  C31820355  -0.973   6.887   8.736 -0.1238 -0.2898  0.0508
  178SOPE  H18X20356  -1.053   6.862   8.664  0.0783 -1.3426  0.1713
  178SOPE  H18Y20357  -0.886   6.918   8.674  0.3936 -0.0192  0.8888
  178SOPE  H18Z20358  -1.009   6.983   8.780  0.6979  0.6414 -1.2563
  179SOPE     N20359   2.574   5.345   6.578 -0.6023 -0.4074  0.0818
  179SOPE   HN120360   2.673   5.318   6.594 -0.9392 -1.6578  0.1455
  179SOPE   HN220361   2.578   5.448   6.568  2.5171 -0.5649 -1.4480
  179SOPE   HN320362   2.509   5.316   6.654 -1.4079  0.7036 -0.1594
  179SOPE   C1220363   2.516   5.293   6.451  0.4967 -0.2297 -0.2196
  179SOPE  H12A20364   2.579   5.214   6.405  2.0546 -0.0666  1.5225
  179SOPE  H12B20365   2.512   5.372   6.373 -0.3061  0.3629  0.3971
  179SOPE   C1120366   2.372   5.239   6.480 -0.3197 -0.5199 -0.4448
  179SOPE  H11A20367   2.389   5.169   6.565  1.5014  0.5788  0.1551
  179SOPE  H11B20368   2.339   5.175   6.396 -0.1212 -1.3040  0.0665
  179SOPE     P20369   2.124   5.328   6.511  0.1498  0.0851 -0.1730
  179SOPE   O1320370   2.081   5.217   6.594  0.2206 -0.7975  0.0587
  179SOPE   O1420371   2.090   5.329   6.368 -0.3125 -0.0861 -0.4939
  179SOPE   O1220372   2.286   5.346   6.516  0.2054  0.6496 -1.0020
  179SOPE   O1120373   2.086   5.470   6.579 -0.0423 -0.0983 -0.1846
  179SOPE    C120374   2.153   5.517   6.699  0.1510 -0.2076 -0.8681
  179SOPE    HA20375   2.134   5.624   6.720 -0.5807 -0.4205 -0.3724
  179SOPE    HB20376   2.263   5.509   6.689  0.3490  2.6068 -1.6215
  179SOPE    C220377   2.095   5.449   6.828  0.6565 -0.8148  0.4721
  179SOPE    HS20378   2.116   5.340   6.823  1.4609 -0.6079 -1.5565
  179SOPE   O2120379   1.956   5.476   6.843  0.2803 -0.4912  0.1867
  179SOPE   C2120380   1.874   5.380   6.885 -0.2227 -0.3156  0.4176
  179SOPE   O2220381   1.913   5.269   6.913 -0.1639 -0.3048  0.4228
  179SOPE   C2220382   1.726   5.431   6.884 -0.3055 -0.0518  0.4091
  179SOPE   H2R20383   1.693   5.406   6.781 -1.8880  0.8021  0.6692
  179SOPE   H2S20384   1.737   5.542   6.879  0.8235 -0.1949 -2.8814
  179SOPE    C320385   2.172   5.499   6.955 -0.2028  0.3152 -0.4028
  179SOPE    HX20386   2.161   5.609   6.960  2.6966  0.7549 -1.8300
  179SOPE    HY20387   2.280   5.485   6.932 -0.4184 -0.1351 -1.1674
  179SOPE   O3120388   2.134   5.423   7.069 -0.2699  0.9248  0.6497
  179SOPE   C3120389   2.212   5.320   7.102  0.2483  0.0308  0.2092
  179SOPE   O3220390   2.315   5.288   7.044 -0.6140  0.2498  0.2395
  179SOPE   C3220391   2.146   5.246   7.222  0.5712  1.5477  0.0112
  179SOPE   H2X20392   2.203   5.153   7.240  0.3083  0.9463 -2.0710
  179SOPE   H2Y20393   2.050   5.209   7.181  1.1557 -0.2057  0.1813
  179SOPE   C2320394   1.631   5.355   6.981  0.1161 -0.1947 -0.0280
  179SOPE   H3R20395   1.641   5.247   6.958 -1.1234 -0.5479  0.9921
  179SOPE   H3S20396   1.532   5.395   6.950  1.1300  1.1539 -1.7606
  179SOPE   C2420397   1.659   5.388   7.126  0.0267  0.8491  0.7472
  179SOPE   H4R20398   1.768   5.370   7.141 -0.0016 -1.0461 -0.8706
  179SOPE   H4S20399   1.628   5.494   7.141 -1.9858  0.1382  1.9863
  179SOPE   C2520400   1.577   5.313   7.223  0.0469 -0.0370 -0.1760
  179SOPE   H5R20401   1.469   5.306   7.200 -0.2820 -2.4789  1.7115
  179SOPE   H5S20402   1.610   5.207   7.215  0.0857 -0.2142  1.8429
  179SOPE   C2620403   1.584   5.369   7.360 -0.1819 -0.1865  0.1332
  179SOPE   H6R20404   1.691   5.391   7.375 -0.0932 -1.3490  1.4236
  179SOPE   H6S20405   1.520   5.458   7.377  0.3889  0.0988  0.8330
  179SOPE   C2720406   1.535   5.270   7.463  0.1158  0.8644 -0.2241
  179SOPE   H7R20407   1.444   5.216   7.428  1.9264 -1.5899 -1.4353
  179SOPE   H7S20408   1.614   5.194   7.478  1.1019  1.4994 -1.9259
  179SOPE   C2820409   1.493   5.330   7.597  0.1820 -0.1332  0.0761
  179SOPE   H8R20410   1.451   5.429   7.565 -0.2141 -1.0293 -2.4281
  179SOPE   H8S20411   1.412   5.267   7.638  0.3435 -0.6914 -0.4521
  179SOPE   C2920412   1.617   5.349   7.682 -0.4107  0.3987 -0.0089
  179SOPE   H9120413   1.712   5.344   7.626  0.4615  1.1856  1.3537
  179SOPE  C21020414   1.618   5.359   7.820 -0.9281 -0.0234  0.3192
  179SOPE  H10120415   1.714   5.374   7.871  1.0923 -2.9920 -2.2100
  179SOPE  C21120416   1.499   5.363   7.908  0.3682  0.7911 -0.2230
  179SOPE  H11R20417   1.397   5.339   7.869  0.1955 -0.3469  0.8715
  179SOPE  H11S20418   1.488   5.467   7.944  0.5750  1.5083 -2.0849
  179SOPE  C21220419   1.518   5.264   8.024  0.2461  0.8694  0.1665
  179SOPE  H12R20420   1.614   5.284   8.076 -1.0669  0.7139  2.7935
  179SOPE  H12S20421   1.527   5.164   7.976 -1.1483  1.3431 -1.1682
  179SOPE  C21320422   1.415   5.243   8.135 -0.0953 -0.2064 -0.1155
  179SOPE  H13R20423   1.316   5.208   8.099  0.1704  1.4023 -2.6818
  179SOPE  H13S20424   1.393   5.339   8.187 -0.6150  0.1723 -1.0101
  179SOPE  C21420425   1.449   5.134   8.235 -0.2558 -0.9411 -0.0334
  179SOPE  H14R20426   1.476   5.041   8.181 -0.6687 -0.0590 -1.8016
  179SOPE  H14S20427   1.355   5.101   8.284 -1.2990 -0.1506 -1.4486
  179SOPE  C21520428   1.561   5.164   8.329 -0.6176  0.4615  0.0217
  179SOPE  H15R20429   1.649   5.208   8.277  0.7644 -1.9220  0.2047
  179SOPE  H15S20430   1.585   5.065   8.374 -0.9473  0.5271  0.3439
  179SOPE  C21620431   1.521   5.256   8.457 -0.6116 -0.0191  0.0846
  179SOPE  H16R20432   1.438   5.204   8.508 -0.4119 -3.8103 -2.9860
  179SOPE  H16S20433   1.489   5.358   8.428 -1.1240 -0.4117 -0.7660
  179SOPE  C21720434   1.638   5.261   8.558  0.1624 -0.0281 -0.0342
  179SOPE  H17R20435   1.730   5.236   8.501  1.3914 -0.6176  2.0806
  179SOPE  H17S20436   1.625   5.174   8.626 -0.7609 -1.8985 -2.4799
  179SOPE  C21820437   1.652   5.393   8.643 -0.0410  0.0658  0.6370
  179SOPE  H18R20438   1.655   5.480   8.573 -1.5252 -0.8461 -0.6082
  179SOPE  H18S20439   1.734   5.397   8.718  0.5183  1.5151 -0.0175
  179SOPE  H18T20440   1.557   5.419   8.694  1.2564  0.6700  2.9199
  179SOPE   C3320441   2.125   5.327   7.351  0.3347  0.3394  0.1014
  179SOPE   H3X20442   2.058   5.408   7.315 -0.0186 -0.7233 -1.7300
  179SOPE   H3Y20443   2.222   5.363   7.393  0.1795 -0.2037  0.9353
  179SOPE   C3420444   2.050   5.252   7.461 -0.2178 -0.0385  1.1039
  179SOPE   H4X20445   2.098   5.153   7.474 -0.1557 -0.0531  0.7576
  179SOPE   H4Y20446   1.946   5.235   7.426  0.7335  1.0898 -2.7507
  179SOPE   C3520447   2.049   5.323   7.590  0.4387  0.1247  0.1882
  179SOPE   H5X20448   1.977   5.406   7.576 -2.5641 -2.4012 -0.3203
  179SOPE   H5Y20449   2.153   5.361   7.607  0.8308  0.8003 -3.1174
  179SOPE   C3620450   2.001   5.230   7.703 -0.1379  0.5736 -0.5876
  179SOPE   H6X20451   2.064   5.139   7.706 -1.7536 -0.6015 -0.6940
  179SOPE   H6Y20452   1.899   5.190   7.684 -1.3664  0.0446  5.1807
  179SOPE   C3720453   2.023   5.291   7.841  0.0032  0.4591 -0.7639
  179SOPE   H7X20454   1.932   5.353   7.858 -0.3911 -0.9363  2.9208
  179SOPE   H7Y20455   2.111   5.358   7.852  0.5245 -0.2337 -0.6825
  179SOPE   C3820456   2.028   5.196   7.961  0.1093 -0.5548  0.6488
  179SOPE   H8X20457   2.122   5.138   7.957  2.4072  2.9250 -0.1467
  179SOPE   H8Y20458   1.948   5.120   7.950 -0.2947 -0.0608  0.1109
  179SOPE   C3920459   2.020   5.285   8.086  0.2753 -0.1926  0.0422
  179SOPE   H9X20460   1.971   5.233   8.171  2.1802 -0.8746  0.7854
  179SOPE   H9Y20461   1.952   5.371   8.067 -0.2313 -1.2711 -3.8438
  179SOPE  C31020462   2.159   5.341   8.136  0.4698 -0.2990  0.6928
  179SOPE  H10X20463   2.220   5.350   8.043 -0.7575 -1.2779 -0.2407
  179SOPE  H10Y20464   2.197   5.258   8.199  1.1458 -0.8283 -0.3801
  179SOPE  C31120465   2.154   5.479   8.218  1.2777 -0.0649 -0.1799
  179SOPE  H11X20466   2.071   5.540   8.176  1.9352  0.7527 -0.3151
  179SOPE  H11Y20467   2.242   5.546   8.204  0.6647  1.5256  2.7621
  179SOPE  C31220468   2.135   5.451   8.366  0.3296  0.8334 -0.8047
  179SOPE  H12X20469   2.234   5.419   8.403 -0.9982 -0.0599  2.2632
  179SOPE  H12Y20470   2.067   5.368   8.394 -1.1849  2.9248  2.2976
  179SOPE  C31320471   2.075   5.566   8.446  0.4441  0.2284  0.6071
  179SOPE  H13X20472   1.966   5.572   8.425  0.5331  1.8276  0.4839
  179SOPE  H13Y20473   2.105   5.663   8.401 -0.5318  0.5290  0.5814
  179SOPE  C31420474   2.087   5.551   8.597  0.0105 -0.5390  0.3750
  179SOPE  H14X20475   2.184   5.599   8.621 -0.6170  0.8088  0.3247
  179SOPE  H14Y20476   2.071   5.443   8.617 -5.8009 -0.0038  0.3810
  179SOPE  C31520477   1.974   5.630   8.667  0.1198  0.5633  0.5554
  179SOPE  H15X20478   1.876   5.579   8.659  1.1169 -1.2853 -0.4554
  179SOPE  H15Y20479   1.959   5.720   8.604  0.4830  0.9453  1.0022
  179SOPE  C31620480   2.006   5.676   8.807 -0.1358 -0.6933  0.0600
  179SOPE  H16X20481   1.938   5.757   8.841  3.0346  1.5561  1.6306
  179SOPE  H16Y20482   2.100   5.736   8.797 -2.3465  3.0309 -0.4820
  179SOPE  C31720483   2.015   5.558   8.900  0.7610 -0.0120 -0.2045
  179SOPE  H17X20484   2.057   5.474   8.841  1.9493  0.2755  0.2036
  179SOPE  H17Y20485   1.917   5.518   8.932 -0.4179  0.4146 -3.0423
  179SOPE  C31820486   2.116   5.589   9.005 -0.8594 -0.6857  0.0778
  179SOPE  H18X20487   2.086   5.671   9.074 -0.8715  1.7623 -2.5969
  179SOPE  H18Y20488   2.208   5.623   8.953 -2.4977  3.1178 -0.7459
  179SOPE  H18Z20489   2.132   5.497   9.063 -0.5522 -2.0530 -2.0620
  180SOPE     N20490   2.297   1.199   6.317  0.0063  0.2399 -0.0020
  180SOPE   HN120491   2.244   1.124   6.268  0.7130 -0.4112  0.2242
  180SOPE   HN220492   2.369   1.229   6.249  0.8441 -0.8010  0.4004
  180SOPE   HN320493   2.347   1.154   6.396 -3.1392 -1.1231  1.4073
  180SOPE   C1220494   2.205   1.314   6.357  0.5044  0.2173 -0.8420
  180SOPE  H12A20495   2.166   1.354   6.261  0.9198  0.6794 -0.8254
  180SOPE  H12B20496   2.269   1.393   6.402 -0.6634  0.7787 -0.1161
  180SOPE   C1120497   2.086   1.280   6.446  0.0389  0.2414  0.1300
  180SOPE  H11A20498   2.015   1.366   6.453 -2.0713 -1.5135  1.8713
  180SOPE  H11B20499   2.106   1.261   6.554 -3.6901  2.6974  1.4617
  180SOPE     P20500   1.873   1.153   6.343 -0.0586 -0.1890  0.1365
  180SOPE   O1320501   1.845   1.010   6.305  0.6310 -0.1944 -0.2397
  180SOPE   O1420502   1.850   1.261   6.240 -0.7319  0.6071 -0.4551
  180SOPE   O1220503   2.027   1.166   6.388 -0.0336  0.7525 -0.2936
  180SOPE   O1120504   1.790   1.183   6.482  0.5728 -0.0412  0.3417
  180SOPE    C120505   1.825   1.100   6.596  0.5301  0.3084  0.0569
  180SOPE    HA20506   1.916   1.038   6.586  1.3908  0.9753  2.9467
  180SOPE    HB20507   1.737   1.034   6.615 -0.0517  0.8224 -0.7837
  180SOPE    C220508   1.833   1.183   6.727  0.5992  0.0019  0.5970
  180SOPE    HS20509   1.753   1.260   6.718  0.9593  0.3554  0.3413
  180SOPE   O2120510   1.962   1.246   6.732 -0.1930  0.2660 -0.3829
  180SOPE   C2120511   1.962   1.372   6.776 -0.5743  0.0310  0.0580
  180SOPE   O2220512   1.861   1.438   6.795 -0.6213  0.4861  0.0981
  180SOPE   C2220513   2.106   1.419   6.792  0.6928 -0.6044  0.0187
  180SOPE   H2R20514   2.149   1.435   6.691  0.5976  1.1250  0.2190
  180SOPE   H2S20515   2.165   1.342   6.845  1.8839  1.2071  1.4067
  180SOPE    C320516   1.815   1.088   6.846 -0.4136 -0.1951 -0.8373
  180SOPE    HX20517   1.852   0.986   6.823 -1.2101 -0.1920 -2.2489
  180SOPE    HY20518   1.706   1.088   6.868 -0.8222 -1.2273 -2.6308
  180SOPE   O3120519   1.889   1.140   6.959 -0.1248 -0.6200 -0.1686
  180SOPE   C3120520   1.871   1.084   7.080  0.1406 -0.4279  0.4050
  180SOPE   O3220521   1.810   0.979   7.100  0.5631 -0.6143  0.1578
  180SOPE   C3220522   1.934   1.172   7.186  0.4790  0.2426  0.3851
  180SOPE   H2X20523   1.864   1.258   7.183 -1.7363 -1.4951 -0.6110
  180SOPE   H2Y20524   2.038   1.196   7.154  0.3360  0.6476  0.2101
  180SOPE   C2320525   2.128   1.539   6.883  0.5736 -0.0861 -0.6539
  180SOPE   H3R20526   2.092   1.520   6.987 -2.4896  1.2475 -1.3434
  180SOPE   H3S20527   2.058   1.619   6.849  0.6404  0.9577  1.4822
  180SOPE   C2420528   2.273   1.583   6.889 -0.0797  0.3912  0.6288
  180SOPE   H4R20529   2.340   1.496   6.870  1.6376  2.0855 -1.6594
  180SOPE   H4S20530   2.277   1.657   6.806 -0.1617  0.7699  0.9609
  180SOPE   C2520531   2.297   1.660   7.014 -0.3635 -0.1478 -0.0895
  180SOPE   H5R20532   2.380   1.732   6.997 -1.6976  2.2177  2.6389
  180SOPE   H5S20533   2.209   1.725   7.031 -1.2467 -1.3110 -0.0609
  180SOPE   C2620534   2.316   1.575   7.143  0.2372 -0.5215  0.1153
  180SOPE   H6R20535   2.286   1.471   7.120 -0.3281 -0.6379  1.3179
  180SOPE   H6S20536   2.423   1.578   7.171 -0.0801 -1.8940  1.5620
  180SOPE   C2720537   2.231   1.621   7.262 -0.3024  0.0359 -0.3892
  180SOPE   H7R20538   2.245   1.729   7.286  0.0834  0.0986 -0.8881
  180SOPE   H7S20539   2.123   1.598   7.254 -0.4258  0.1955  0.5991
  180SOPE   C2820540   2.269   1.549   7.399 -0.0634 -0.1461 -0.8092
  180SOPE   H8R20541   2.253   1.441   7.378 -2.1011  0.1731 -1.0623
  180SOPE   H8S20542   2.378   1.560   7.418 -0.3114 -0.8692  1.1986
  180SOPE   C2920543   2.181   1.581   7.518  0.0693 -0.0385 -0.2998
  180SOPE   H9120544   2.078   1.544   7.505  0.9110 -1.6320 -3.2866
  180SOPE  C21020545   2.221   1.643   7.631 -0.0239  0.7773 -0.2385
  180SOPE  H10120546   2.147   1.657   7.711  0.0834  0.4176 -0.0785
  180SOPE  C21120547   2.358   1.689   7.670 -0.4988  0.1124 -0.3505
  180SOPE  H11R20548   2.430   1.606   7.653 -2.1432 -1.2354 -1.0855
  180SOPE  H11S20549   2.365   1.710   7.779  0.3882 -0.2159 -0.3357
  180SOPE  C21220550   2.401   1.816   7.593  0.1865 -0.0818 -0.3338
  180SOPE  H12R20551   2.335   1.901   7.622  1.4204  0.8827 -0.2611
  180SOPE  H12S20552   2.408   1.794   7.484 -0.2140 -5.2502  0.4606
  180SOPE  C21320553   2.542   1.859   7.638 -0.0067  0.2655  0.4810
  180SOPE  H13R20554   2.583   1.934   7.567  0.8936 -1.6023 -1.0615
  180SOPE  H13S20555   2.606   1.769   7.627  0.0900  0.3264  0.5467
  180SOPE  C21420556   2.545   1.914   7.781  0.2854  0.2692 -0.9263
  180SOPE  H14R20557   2.500   1.838   7.848  1.5543  2.1716  2.3229
  180SOPE  H14S20558   2.478   2.003   7.777 -0.0293  0.0058 -1.7212
  180SOPE  C21520559   2.689   1.941   7.827 -0.2550 -0.6750  0.0197
  180SOPE  H15R20560   2.741   2.003   7.750 -0.7916 -0.7237 -0.3862
  180SOPE  H15S20561   2.735   1.840   7.838 -0.6879 -1.2548 -2.6693
  180SOPE  C21620562   2.702   2.021   7.954 -0.1550 -0.7061  0.8643
  180SOPE  H16R20563   2.652   1.967   8.037  0.1766  0.1877  1.6609
  180SOPE  H16S20564   2.649   2.115   7.927 -0.3305 -0.5835  1.6300
  180SOPE  C21720565   2.839   2.055   7.972 -0.8004  0.1922  0.1196
  180SOPE  H17R20566   2.895   2.094   7.885  2.4189 -3.5220  0.2515
  180SOPE  H17S20567   2.883   1.955   7.992 -1.1396 -0.7607 -3.3649
  180SOPE  C21820568   2.860   2.159   8.082  0.1797 -0.5552 -0.5918
  180SOPE  H18R20569   2.825   2.123   8.180  4.0488 -3.6245 -0.0899
  180SOPE  H18S20570   2.818   2.260   8.062 -0.2921 -0.6564 -0.1310
  180SOPE  H18T20571   2.966   2.181   8.106 -0.5438  2.2952  0.3773
  180SOPE   C3320572   1.924   1.117   7.329  0.7233 -0.6778 -0.1394
  180SOPE   H3X20573   1.956   1.011   7.339 -0.3774 -1.0591 -0.5724
  180SOPE   H3Y20574   1.817   1.126   7.356  0.4995 -0.5445 -1.0593
  180SOPE   C3420575   2.003   1.207   7.428  0.1533  0.3471 -0.3156
  180SOPE   H4X20576   1.995   1.313   7.396  0.8494  0.8241  0.9819
  180SOPE   H4Y20577   2.112   1.184   7.425  0.1727  0.5055 -1.0336
  180SOPE   C3520578   1.967   1.188   7.574  0.5507  0.2917 -0.4773
  180SOPE   H5X20579   2.002   1.085   7.597  0.2560 -0.2612 -2.3660
  180SOPE   H5Y20580   1.857   1.181   7.581  0.5264 -2.3629 -2.1705
  180SOPE   C3620581   2.035   1.296   7.664  0.0762  0.3466 -0.1745
  180SOPE   H6X20582   1.978   1.389   7.646  0.2399  0.6751  0.9286
  180SOPE   H6Y20583   2.141   1.304   7.631  0.0616 -0.2241 -0.3695
  180SOPE   C3720584   2.019   1.270   7.814 -0.8351  0.2012 -0.4810
  180SOPE   H7X20585   2.061   1.169   7.833  1.7442  1.2894  0.1252
  180SOPE   H7Y20586   1.918   1.267   7.860 -0.0338  1.4721  1.5377
  180SOPE   C3820587   2.093   1.369   7.915  0.1279 -0.0586 -0.2949
  180SOPE   H8X20588   2.054   1.469   7.884  2.5031  1.0044 -0.1017
  180SOPE   H8Y20589   2.203   1.372   7.896  0.2518  1.0512  0.4879
  180SOPE   C3920590   2.068   1.337   8.060  0.4223 -0.3064 -1.0697
  180SOPE   H9X20591   2.114   1.237   8.076  2.7295  0.6737 -1.2497
  180SOPE   H9Y20592   1.960   1.333   8.087  0.8583  1.8751  1.4497
  180SOPE  C31020593   2.125   1.438   8.159 -0.2300 -0.1114  0.4145
  180SOPE  H10X20594   2.234   1.440   8.141 -0.5865  0.2079 -2.0961
  180SOPE  H10Y20595   2.108   1.392   8.259 -2.8652  1.3769  0.7592
  180SOPE  C31120596   2.073   1.575   8.154  0.5151 -1.4473 -0.4374
  180SOPE  H11X20597   1.966   1.579   8.182  1.2432 -0.2212  2.5541
  180SOPE  H11Y20598   2.096   1.613   8.053  2.4199  0.0603  0.4970
  180SOPE  C31220599   2.139   1.675   8.254 -0.0407 -0.6609  0.0239
  180SOPE  H12X20600   2.115   1.776   8.215  1.8298 -1.2181 -2.8422
  180SOPE  H12Y20601   2.249   1.662   8.239  0.1929 -0.6932  1.5588
  180SOPE  C31320602   2.113   1.655   8.402 -0.0271 -0.3345 -0.5975
  180SOPE  H13X20603   2.147   1.559   8.447  0.2121  0.9427  2.1093
  180SOPE  H13Y20604   2.002   1.660   8.414 -0.0615  0.4454 -1.1821
  180SOPE  C31420605   2.173   1.767   8.499  0.2206  0.0008 -0.3243
  180SOPE  H14X20606   2.130   1.869   8.488  0.1043 -0.0524 -0.3703
  180SOPE  H14Y20607   2.282   1.781   8.480  0.6222  0.4477  2.0237
  180SOPE  C31520608   2.170   1.714   8.645  0.0816 -0.0342 -0.7509
  180SOPE  H15X20609   2.226   1.619   8.641 -1.0313 -0.8049  0.8368
  180SOPE  H15Y20610   2.065   1.681   8.661 -0.2030  0.8839 -0.6388
  180SOPE  C31620611   2.216   1.816   8.755 -1.5633  0.4388  0.0419
  180SOPE  H16X20612   2.152   1.908   8.753 -1.4005  0.5450 -0.8875
  180SOPE  H16Y20613   2.321   1.841   8.731 -1.2788  1.1558  1.9245
  180SOPE  C31720614   2.222   1.758   8.895 -0.1703  0.6421  0.4880
  180SOPE  H17X20615   2.296   1.676   8.908  0.4257  1.2878  1.3111
  180SOPE  H17Y20616   2.121   1.714   8.911  0.1733  0.5187  2.7061
  180SOPE  C31820617   2.234   1.851   9.014 -0.7076  0.5653 -0.3312
  180SOPE  H18X20618   2.312   1.929   8.998 -0.0620 -0.3776 -1.9795
  180SOPE  H18Y20619   2.241   1.796   9.110  2.8237  1.5166  0.1006
  180SOPE  H18Z20620   2.148   1.922   9.014 -0.6607  0.7450 -3.4138
  181SOPE     N20621   0.017   1.534   6.116 -0.4196 -0.7436 -0.1198
  181SOPE   HN120622   0.092   1.471   6.081 -0.0870  0.8164 -2.4313
  181SOPE   HN220623  -0.070   1.476   6.120 -0.5063 -0.5513  1.0346
  181SOPE   HN320624  -0.006   1.600   6.039 -2.5797 -2.6394 -1.2312
  181SOPE   C1220625   0.048   1.612   6.249 -0.0466  0.0094 -0.5982
  181SOPE  H12A20626   0.059   1.525   6.318 -5.6003 -1.2242 -0.8256
  181SOPE  H12B20627  -0.045   1.667   6.275  0.2428  0.2831 -0.1243
  181SOPE   C1120628   0.181   1.684   6.244  0.6652 -0.0063  0.4120
  181SOPE  H11A20629   0.262   1.607   6.249  0.8030  0.0964 -0.1757
  181SOPE  H11B20630   0.177   1.749   6.334  0.2565  0.5182  0.0204
  181SOPE     P20631   0.230   1.892   6.088 -0.0301  0.2007 -0.1836
  181SOPE   O1320632   0.110   1.978   6.047  0.6371  0.3408  0.1139
  181SOPE   O1420633   0.348   1.884   5.998 -0.6019 -0.0513 -0.0827
  181SOPE   O1220634   0.189   1.748   6.119  0.0998 -0.7873 -0.3730
  181SOPE   O1120635   0.270   1.944   6.226 -0.3291 -0.0613 -1.0196
  181SOPE    C120636   0.344   2.063   6.261 -0.2293 -0.3470 -0.6234
  181SOPE    HA20637   0.378   2.128   6.178  0.2347 -0.1190 -0.2578
  181SOPE    HB20638   0.436   2.030   6.314  0.3913  1.1586 -0.7184
  181SOPE    C220639   0.261   2.152   6.364  0.7296 -0.1362 -0.1985
  181SOPE    HS20640   0.256   2.250   6.313 -0.0024  0.6876  1.3722
  181SOPE   O2120641   0.335   2.158   6.486  0.2441  0.1097 -0.1165
  181SOPE   C2120642   0.331   2.276   6.536 -0.2148 -0.3104  0.7010
  181SOPE   O2220643   0.282   2.376   6.485 -0.1741  0.5582  0.3282
  181SOPE   C2220644   0.408   2.268   6.666 -0.0826  0.1506  0.5188
  181SOPE   H2R20645   0.518   2.271   6.646 -0.3244  0.4190 -0.8752
  181SOPE   H2S20646   0.376   2.171   6.709 -2.2302 -1.1989 -3.6419
  181SOPE    C320647   0.113   2.107   6.384  0.3262 -0.0201 -0.7574
  181SOPE    HX20648   0.103   1.997   6.391  1.1096  0.0030  1.6444
  181SOPE    HY20649   0.061   2.134   6.290 -0.3897  0.8748 -0.1287
  181SOPE   O3120650   0.054   2.166   6.501 -0.7066 -0.2132 -0.1478
  181SOPE   C3120651  -0.039   2.266   6.483 -0.5989 -0.3606 -0.0708
  181SOPE   O3220652  -0.066   2.311   6.375 -0.8525  0.8136 -0.3136
  181SOPE   C3220653  -0.095   2.302   6.618 -0.4007 -0.8679  0.3196
  181SOPE   H2X20654  -0.053   2.401   6.644 -0.1913 -0.3287 -1.8630
  181SOPE   H2Y20655  -0.065   2.224   6.691  1.2470 -2.2021 -1.6322
  181SOPE   C2320656   0.358   2.372   6.766 -0.6692  0.2025 -0.1756
  181SOPE   H3R20657   0.247   2.377   6.767 -0.6189  2.1260  0.1573
  181SOPE   H3S20658   0.398   2.472   6.738  0.4297  0.4261  2.0622
  181SOPE   C2420659   0.397   2.324   6.907  0.1952  0.2019  0.0335
  181SOPE   H4R20660   0.340   2.232   6.934  2.4049 -1.6048 -1.0546
  181SOPE   H4S20661   0.501   2.284   6.903 -0.7379 -2.3772 -0.4549
  181SOPE   C2520662   0.391   2.429   7.019 -0.4951 -0.7575 -0.1743
  181SOPE   H5R20663   0.447   2.519   6.985 -0.5021 -1.1300 -1.2021
  181SOPE   H5S20664   0.285   2.459   7.039  0.1781  3.3479 -1.6490
  181SOPE   C2620665   0.445   2.402   7.154 -0.3982 -0.4144  0.5289
  181SOPE   H6R20666   0.539   2.346   7.136 -0.9919 -0.7987 -1.6515
  181SOPE   H6S20667   0.484   2.494   7.202  0.4342 -0.9442  0.8842
  181SOPE   C2720668   0.354   2.321   7.241  0.4768 -0.6973  0.3359
  181SOPE   H7R20669   0.268   2.387   7.268  0.1281 -0.8368 -0.4042
  181SOPE   H7S20670   0.317   2.234   7.183 -0.1131 -0.3318  0.1464
  181SOPE   C2820671   0.416   2.284   7.379 -0.0833  0.4694  0.4031
  181SOPE   H8R20672   0.339   2.216   7.421 -0.3525 -0.3433 -1.3197
  181SOPE   H8S20673   0.505   2.221   7.360 -0.6806  0.1919 -1.7232
  181SOPE   C2920674   0.446   2.392   7.481 -0.4112  1.1254  0.7087
  181SOPE   H9120675   0.547   2.431   7.462  0.0314  0.8102  2.3218
  181SOPE  C21020676   0.383   2.430   7.588  0.2095  0.1415  0.1598
  181SOPE  H10120677   0.429   2.503   7.656  1.2520 -1.5625  1.3452
  181SOPE  C21120678   0.247   2.381   7.625 -0.0558  0.7383 -0.3051
  181SOPE  H11R20679   0.199   2.323   7.543 -1.0108 -2.6670  2.4108
  181SOPE  H11S20680   0.183   2.471   7.638 -0.5627  0.3505 -0.0489
  181SOPE  C21220681   0.214   2.305   7.757  0.3968 -0.2887  0.6809
  181SOPE  H12R20682   0.270   2.209   7.759 -1.1603 -1.2162  0.5599
  181SOPE  H12S20683   0.107   2.279   7.764 -0.1160  1.5778  0.3011
  181SOPE  C21320684   0.248   2.377   7.889 -0.5172 -0.8460  0.1631
  181SOPE  H13R20685   0.205   2.479   7.889 -0.7278 -0.9291 -0.6246
  181SOPE  H13S20686   0.358   2.380   7.904 -0.2504  1.3450 -1.7230
  181SOPE  C21420687   0.187   2.320   8.013 -0.4119 -0.6542 -0.4228
  181SOPE  H14R20688   0.234   2.222   8.036  0.0350 -0.1959  0.6962
  181SOPE  H14S20689   0.078   2.304   7.999 -0.2174 -1.4196 -1.1415
  181SOPE  C21520690   0.200   2.421   8.128 -0.5751 -0.0127 -0.3534
  181SOPE  H15R20691   0.301   2.462   8.149 -2.0236  3.3052  0.8695
  181SOPE  H15S20692   0.182   2.358   8.219  1.6162 -0.2361 -0.0253
  181SOPE  C21620693   0.096   2.531   8.131  0.5627 -0.3154  0.5754
  181SOPE  H16R20694  -0.006   2.487   8.131 -0.2331  1.4166  1.5962
  181SOPE  H16S20695   0.093   2.601   8.045 -2.8837 -1.9848 -0.8374
  181SOPE  C21720696   0.090   2.623   8.253  0.0423  0.5214  0.8377
  181SOPE  H17R20697   0.067   2.546   8.330 -1.5324 -1.5191 -1.4964
  181SOPE  H17S20698   0.003   2.691   8.240 -1.1296 -1.1201 -0.2828
  181SOPE  C21820699   0.215   2.704   8.287 -0.2746 -0.3134 -0.3187
  181SOPE  H18R20700   0.201   2.754   8.385 -1.7832  2.2191 -1.7263
  181SOPE  H18S20701   0.231   2.796   8.227  1.5074  1.6534  2.8421
  181SOPE  H18T20702   0.304   2.637   8.279 -1.7755 -2.1353 -3.2798
  181SOPE   C3320703  -0.248   2.309   6.622 -0.6773 -0.2774  0.1415
  181SOPE   H3X20704  -0.279   2.212   6.578  0.9267 -0.1847 -1.2780
  181SOPE   H3Y20705  -0.283   2.400   6.567  0.4160 -1.0456 -1.9193
  181SOPE   C3420706  -0.319   2.311   6.763  0.1596 -0.0103 -0.3162
  181SOPE   H4X20707  -0.325   2.215   6.818  2.6579 -0.4426 -0.6981
  181SOPE   H4Y20708  -0.425   2.344   6.761  0.2727  0.4238  0.5438
  181SOPE   C3520709  -0.258   2.424   6.850 -0.4501  0.5038 -0.4831
  181SOPE   H5X20710  -0.270   2.520   6.795 -1.7934  0.3809 -0.4444
  181SOPE   H5Y20711  -0.148   2.416   6.861 -0.4513 -0.6055 -1.0595
  181SOPE   C3620712  -0.309   2.435   7.003  0.1456 -0.3355  0.3381
  181SOPE   H6X20713  -0.343   2.338   7.046  4.8018 -1.5938  1.7554
  181SOPE   H6Y20714  -0.401   2.495   6.992 -0.6355 -0.5374  4.1700
  181SOPE   C3720715  -0.226   2.530   7.092 -0.0997  0.7388  0.0397
  181SOPE   H7X20716  -0.227   2.631   7.045 -1.1759  1.4147  1.4492
  181SOPE   H7Y20717  -0.128   2.481   7.075  0.1688  0.9445  0.9644
  181SOPE   C3820718  -0.280   2.537   7.233 -0.0430 -0.3714 -0.9137
  181SOPE   H8X20719  -0.289   2.435   7.277 -2.8468 -0.4781 -1.5097
  181SOPE   H8Y20720  -0.376   2.593   7.226 -0.7187 -1.3958 -0.1772
  181SOPE   C3920721  -0.192   2.624   7.324 -0.4099  0.2629 -0.5528
  181SOPE   H9X20722  -0.185   2.729   7.287  2.4198  0.2744 -0.2221
  181SOPE   H9Y20723  -0.090   2.580   7.314  0.4490  1.1766  2.9219
  181SOPE  C31020724  -0.224   2.622   7.473 -0.7087 -0.7575 -0.6282
  181SOPE  H10X20725  -0.236   2.519   7.514 -0.3859  0.3120  2.3735
  181SOPE  H10Y20726  -0.323   2.671   7.480 -0.3570 -0.0755 -0.3469
  181SOPE  C31120727  -0.126   2.703   7.556  0.5134  0.3112  0.7201
  181SOPE  H11X20728  -0.124   2.806   7.515 -1.5380 -0.2788 -0.9807
  181SOPE  H11Y20729  -0.026   2.661   7.533  0.4877  1.0029 -0.7961
  181SOPE  C31220730  -0.155   2.713   7.709 -0.3169 -0.1492  0.3874
  181SOPE  H12X20731  -0.153   2.609   7.746 -2.3258 -0.1402  0.6362
  181SOPE  H12Y20732  -0.261   2.743   7.724 -0.6163 -1.3071  0.6317
  181SOPE  C31320733  -0.063   2.817   7.787 -0.2614  0.4001 -0.2264
  181SOPE  H13X20734  -0.079   2.918   7.745  1.9889  0.9643  0.1648
  181SOPE  H13Y20735   0.043   2.788   7.771 -0.6784 -1.1775 -0.3630
  181SOPE  C31420736  -0.100   2.805   7.935  0.3980 -0.8379 -0.2654
  181SOPE  H14X20737  -0.064   2.710   7.979 -0.0974 -1.1340 -0.4842
  181SOPE  H14Y20738  -0.210   2.800   7.952  0.1516 -0.8993 -1.7461
  181SOPE  C31520739  -0.046   2.923   8.020 -0.3964 -0.3941  0.0339
  181SOPE  H15X20740  -0.058   3.015   7.958  0.8971 -1.5818 -2.1134
  181SOPE  H15Y20741   0.064   2.922   8.035 -0.3192  2.1041  0.1158
  181SOPE  C31620742  -0.133   2.959   8.148  0.0475  0.1642 -0.7344
  181SOPE  H16X20743  -0.142   2.863   8.203 -2.7008  0.9186  0.3372
  181SOPE  H16Y20744  -0.240   2.976   8.123  0.1042  0.3223 -0.8713
  181SOPE  C31720745  -0.079   3.082   8.227  0.1425  0.3501 -0.2366
  181SOPE  H17X20746  -0.067   3.166   8.154  2.3364  1.2545  1.0669
  181SOPE  H17Y20747   0.020   3.047   8.263 -0.4830  0.0953  1.3243
  181SOPE  C31820748  -0.161   3.124   8.350  0.0420 -0.1957 -0.0978
  181SOPE  H18X20749  -0.180   3.040   8.421 -0.6816  1.5586  1.8980
  181SOPE  H18Y20750  -0.261   3.172   8.345  1.0502  1.8553 -2.2165
  181SOPE  H18Z20751  -0.101   3.198   8.407 -1.2888 -0.5923  1.9190
  182SOPE     N20752   4.230   1.567   6.228 -0.1268  0.6989  0.3903
  182SOPE   HN120753   4.312   1.627   6.209  2.0643 -2.2796 -0.2567
  182SOPE   HN220754   4.266   1.476   6.194 -1.5800  0.3015 -0.1695
  182SOPE   HN320755   4.149   1.603   6.173 -1.7641 -1.4298  1.2317
  182SOPE   C1220756   4.196   1.602   6.372  0.5024  0.1228  0.3263
  182SOPE  H12A20757   4.175   1.710   6.382  2.0061  0.2163  3.8238
  182SOPE  H12B20758   4.283   1.577   6.437 -0.1427  0.0296  1.1717
  182SOPE   C1120759   4.082   1.523   6.438 -0.1588 -0.0621 -0.0822
  182SOPE  H11A20760   3.992   1.543   6.376 -0.6451  0.3378  0.7415
  182SOPE  H11B20761   4.069   1.574   6.536 -1.0708  0.9249 -0.6829
  182SOPE     P20762   4.049   1.275   6.365 -0.4295  0.3366 -0.3670
  182SOPE   O1320763   4.083   1.140   6.413  0.5407 -0.2389 -0.0537
  182SOPE   O1420764   4.082   1.299   6.227 -0.1858 -0.0826  0.7187
  182SOPE   O1220765   4.114   1.386   6.464  0.0550  0.2447  0.1762
  182SOPE   O1120766   3.897   1.291   6.396 -0.2027  0.1680 -0.1818
  182SOPE    C120767   3.862   1.304   6.535  0.1361 -0.3370  0.8502
  182SOPE    HA20768   3.888   1.405   6.573  1.6887 -0.9665  1.5414
  182SOPE    HB20769   3.909   1.239   6.612  1.2319 -0.2088  0.3130
  182SOPE    C220770   3.706   1.275   6.545 -0.4684 -0.1567 -0.2007
  182SOPE    HS20771   3.654   1.320   6.458 -1.0138  0.3604  0.3803
  182SOPE   O2120772   3.660   1.331   6.666  0.6685 -0.3914  0.3360
  182SOPE   C2120773   3.523   1.352   6.658  0.0222  0.3508  0.6099
  182SOPE   O2220774   3.459   1.326   6.560  0.9445 -0.7063 -0.0784
  182SOPE   C2220775   3.474   1.428   6.781 -0.3380  0.0821 -0.0236
  182SOPE   H2R20776   3.367   1.451   6.761 -0.6443 -0.8882  0.4678
  182SOPE   H2S20777   3.531   1.523   6.777  0.1974 -0.2408 -2.8681
  182SOPE    C320778   3.676   1.121   6.537  0.5022  0.7190  0.3410
  182SOPE    HX20779   3.718   1.072   6.447  1.8318 -0.7586  1.7055
  182SOPE    HY20780   3.566   1.104   6.529  1.0707 -3.4696 -1.2185
  182SOPE   O3120781   3.729   1.051   6.651 -0.4275 -0.6125  0.1652
  182SOPE   C3120782   3.652   1.019   6.751  0.7087  0.1254 -0.5838
  182SOPE   O3220783   3.530   1.039   6.755 -0.5486  0.5640 -0.1436
  182SOPE   C3220784   3.737   0.940   6.856 -0.0283 -1.2064  0.4797
  182SOPE   H2X20785   3.847   0.931   6.841 -0.0566 -0.8289 -0.0055
  182SOPE   H2Y20786   3.693   0.838   6.851  1.5490 -1.8665 -0.7457
  182SOPE   C2320787   3.511   1.337   6.903  0.0891 -0.1567 -0.5993
  182SOPE   H3R20788   3.620   1.316   6.904  0.1183  0.0050  0.1180
  182SOPE   H3S20789   3.475   1.233   6.894  1.3373 -0.6398 -0.1836
  182SOPE   C2420790   3.484   1.395   7.044  0.0101  0.2608  0.7834
  182SOPE   H4R20791   3.524   1.499   7.044 -0.5948  0.5082 -0.7245
  182SOPE   H4S20792   3.376   1.399   7.070 -0.5935 -3.5120 -0.5236
  182SOPE   C2520793   3.558   1.319   7.151  0.5086 -0.1356 -0.3627
  182SOPE   H5R20794   3.514   1.217   7.149 -0.9874  0.4999 -1.6385
  182SOPE   H5S20795   3.665   1.302   7.126  0.3594 -2.1005  0.1933
  182SOPE   C2620796   3.546   1.384   7.289  0.5263  0.0216  0.3358
  182SOPE   H6R20797   3.614   1.472   7.300 -1.3788  1.7589 -0.9025
  182SOPE   H6S20798   3.441   1.419   7.291  0.2019 -0.9073 -0.0337
  182SOPE   C2720799   3.577   1.279   7.395  0.4242 -0.2689 -0.8943
  182SOPE   H7R20800   3.527   1.186   7.363 -0.3783 -0.7709  1.6384
  182SOPE   H7S20801   3.689   1.281   7.395  0.4290 -0.6448 -1.2213
  182SOPE   C2820802   3.519   1.310   7.535 -0.0315 -0.0835 -0.0100
  182SOPE   H8R20803   3.588   1.390   7.570  0.0710  0.4878 -1.4772
  182SOPE   H8S20804   3.416   1.351   7.525  0.9490  2.2973 -1.1994
  182SOPE   C2920805   3.513   1.191   7.631  0.2102 -0.4655  1.3144
  182SOPE   H9120806   3.466   1.101   7.589 -0.7186  0.6081 -0.0220
  182SOPE  C21020807   3.573   1.189   7.751  0.4584  0.4340 -1.1100
  182SOPE  H10120808   3.566   1.094   7.806 -0.6349  1.0213 -0.1760
  182SOPE  C21120809   3.657   1.297   7.820  0.8708  0.1156  0.3266
  182SOPE  H11R20810   3.634   1.393   7.767 -0.7236 -0.7169 -0.5782
  182SOPE  H11S20811   3.763   1.269   7.804  0.4411 -2.8030  1.9099
  182SOPE  C21220812   3.611   1.333   7.961 -0.5912  0.0036 -0.8837
  182SOPE  H12R20813   3.508   1.375   7.960 -0.6287  0.0144 -3.1781
  182SOPE  H12S20814   3.694   1.398   7.997 -1.3810 -0.1740  1.3591
  182SOPE  C21320815   3.631   1.227   8.072  0.0629 -0.6035  0.8036
  182SOPE  H13R20816   3.735   1.188   8.064  0.0213 -0.4235 -0.8630
  182SOPE  H13S20817   3.564   1.138   8.063  1.6841 -1.8853  0.7987
  182SOPE  C21420818   3.598   1.278   8.207  1.0076 -0.2526  0.2256
  182SOPE  H14R20819   3.493   1.315   8.207  0.7840 -0.8851  0.0305
  182SOPE  H14S20820   3.659   1.368   8.229  1.5058 -0.2137 -1.1905
  182SOPE  C21520821   3.605   1.175   8.311  0.1669  0.4744 -0.3804
  182SOPE  H15R20822   3.705   1.128   8.296  0.1592  0.7048 -1.2115
  182SOPE  H15S20823   3.533   1.091   8.298 -0.2910  0.8802 -0.5008
  182SOPE  C21620824   3.581   1.239   8.448  0.1023 -0.5451 -0.3386
  182SOPE  H16R20825   3.570   1.154   8.520 -0.8086 -0.1542 -0.0133
  182SOPE  H16S20826   3.486   1.295   8.439 -2.5072 -4.2981  1.1864
  182SOPE  C21720827   3.705   1.316   8.499 -0.1151 -0.5838 -0.4142
  182SOPE  H17R20828   3.740   1.399   8.434 -1.1218 -1.2832 -1.9060
  182SOPE  H17S20829   3.791   1.247   8.514  0.7184  0.1987 -1.4584
  182SOPE  C21820830   3.673   1.379   8.638 -0.0099 -0.3712 -0.3962
  182SOPE  H18R20831   3.734   1.467   8.670 -1.0252 -0.9399  3.6510
  182SOPE  H18S20832   3.689   1.305   8.719  1.3158  0.4996  0.1729
  182SOPE  H18T20833   3.565   1.403   8.637 -0.5403 -2.5924 -0.6509
  182SOPE   C3320834   3.715   1.008   6.999 -0.7142 -0.1398  0.2668
  182SOPE   H3X20835   3.615   1.055   7.004 -1.0378 -0.8866  1.0584
  182SOPE   H3Y20836   3.786   1.092   7.019 -1.6543  0.7791 -0.1421
  182SOPE   C3420837   3.728   0.902   7.110  0.2243 -0.4783  0.0375
  182SOPE   H4X20838   3.838   0.887   7.117  0.2478 -0.4639 -0.2794
  182SOPE   H4Y20839   3.684   0.801   7.094 -1.5685  0.3458 -0.4896
  182SOPE   C3520840   3.677   0.959   7.245  0.2279 -0.2363 -0.1135
  182SOPE   H5X20841   3.566   0.957   7.247 -0.0537  3.2694 -3.3634
  182SOPE   H5Y20842   3.710   1.064   7.257 -0.7836 -0.0625  1.5829
  182SOPE   C3620843   3.734   0.877   7.354  0.4699  0.5918 -0.5395
  182SOPE   H6X20844   3.844   0.895   7.359  0.3078  1.4761 -0.0533
  182SOPE   H6Y20845   3.708   0.771   7.331 -0.7901  0.4767  1.2044
  182SOPE   C3720846   3.679   0.905   7.499 -0.6281 -0.0784  0.4525
  182SOPE   H7X20847   3.576   0.865   7.507 -0.4911 -0.3841  0.7182
  182SOPE   H7Y20848   3.687   1.014   7.516 -2.4371 -0.1990  2.3465
  182SOPE   C3820849   3.761   0.835   7.602  0.0194  0.3559 -0.1878
  182SOPE   H8X20850   3.865   0.873   7.597 -0.7021  2.6402  0.8074
  182SOPE   H8Y20851   3.765   0.730   7.567  1.4502  0.3783 -0.1147
  182SOPE   C3920852   3.715   0.857   7.746 -0.3521 -0.5094 -0.4233
  182SOPE   H9X20853   3.611   0.828   7.772 -1.2565  2.5295 -0.1734
  182SOPE   H9Y20854   3.707   0.967   7.760 -0.1182 -0.2028 -2.4162
  182SOPE  C31020855   3.816   0.806   7.846 -0.5124  0.2708  0.1671
  182SOPE  H10X20856   3.915   0.855   7.836 -1.1368  1.3300 -1.0548
  182SOPE  H10Y20857   3.821   0.696   7.830 -2.1502  0.0194  1.0748
  182SOPE  C31120858   3.755   0.823   7.990  0.1449 -0.1488  0.4057
  182SOPE  H11X20859   3.654   0.777   7.989 -0.1061  0.3713 -0.7090
  182SOPE  H11Y20860   3.736   0.931   8.006  1.0237 -0.0586  0.8703
  182SOPE  C31220861   3.836   0.765   8.100 -0.0340  0.3972 -0.0236
  182SOPE  H12X20862   3.943   0.796   8.091  0.6596 -2.1100 -1.2715
  182SOPE  H12Y20863   3.837   0.654   8.089  0.2618  0.5152 -1.2926
  182SOPE  C31320864   3.775   0.803   8.238 -0.1641  0.3114  0.1502
  182SOPE  H13X20865   3.669   0.772   8.244 -0.2789  0.6377 -0.1303
  182SOPE  H13Y20866   3.768   0.914   8.241 -0.5995  0.2641  1.8115
  182SOPE  C31420867   3.859   0.751   8.358  0.6342 -0.1128 -0.1707
  182SOPE  H14X20868   3.861   0.640   8.349 -3.2529 -0.4841  1.4830
  182SOPE  H14Y20869   3.801   0.774   8.450  1.0898  1.5571 -0.2758
  182SOPE  C31520870   3.988   0.827   8.372 -0.1348  0.1517 -0.3695
  182SOPE  H15X20871   3.967   0.935   8.387 -0.9806 -0.0796  0.1991
  182SOPE  H15Y20872   4.055   0.825   8.284  0.9176  2.9407  0.2780
  182SOPE  C31620873   4.073   0.781   8.490  0.0012  0.2873  0.0705
  182SOPE  H16X20874   4.103   0.674   8.490  0.4766  0.4191  0.2555
  182SOPE  H16Y20875   4.002   0.785   8.576  2.1912 -0.5314  2.0200
  182SOPE  C31720876   4.198   0.857   8.525  0.2743 -0.2613  0.1822
  182SOPE  H17X20877   4.187   0.967   8.517 -0.7594 -0.0763  2.9104
  182SOPE  H17Y20878   4.270   0.820   8.449 -0.4361 -1.7030  0.1723
  182SOPE  C31820879   4.259   0.817   8.657 -0.5738  0.1839  0.4148
  182SOPE  H18X20880   4.358   0.865   8.672 -0.2880 -0.6531  1.3021
  182SOPE  H18Y20881   4.266   0.708   8.677  3.2679  0.2765  0.2793
  182SOPE  H18Z20882   4.191   0.869   8.728  0.0315 -0.4517  1.4776
  183SOPE     N20883   4.763   0.739   6.136  0.3555  0.6972  0.4095
  183SOPE   HN120884   4.745   0.638   6.153 -1.6796  0.6956 -1.3274
  183SOPE   HN220885   4.666   0.774   6.140  0.0858 -0.0779  0.8322
  183SOPE   HN320886   4.808   0.758   6.044  0.9744  0.0467  0.5633
  183SOPE   C1220887   4.839   0.791   6.257  0.8022 -0.2190  0.7185
  183SOPE  H12A20888   4.772   0.789   6.345 -0.5774  1.0148 -0.2518
  183SOPE  H12B20889   4.847   0.900   6.237 -1.0696 -0.1179  0.3335
  183SOPE   C1120890   4.975   0.739   6.289  0.6747  0.0336 -0.0765
  183SOPE  H11A20891   4.962   0.630   6.276 -0.3353  0.1051  0.2222
  183SOPE  H11B20892   4.991   0.758   6.398 -0.4996 -0.3319  0.1743
  183SOPE     P20893   5.225   0.721   6.200 -0.2583 -0.1838  0.0659
  183SOPE   O1320894   5.319   0.828   6.231 -0.6150  0.0209 -0.2304
  183SOPE   O1420895   5.243   0.661   6.064  0.1264 -0.3841 -0.2605
  183SOPE   O1220896   5.082   0.796   6.205  0.4331 -0.0719  0.1134
  183SOPE   O1120897   5.211   0.619   6.316  0.1764  0.2504  0.1910
  183SOPE    C120898   5.204   0.475   6.291  0.3331 -0.4475 -0.0713
  183SOPE    HA20899   5.271   0.449   6.206  0.7710 -0.4053  0.2521
  183SOPE    HB20900   5.098   0.454   6.269 -0.0825  0.0303  1.3276
  183SOPE    C220901   5.244   0.400   6.421 -0.1432 -0.8532 -0.8796
  183SOPE    HS20902   5.213   0.293   6.416  0.4358 -1.0636 -0.2320
  183SOPE   O2120903   5.190   0.472   6.536  0.1303 -0.4608  0.3483
  183SOPE   C2120904   5.058   0.461   6.552 -0.4317 -0.1977  0.7809
  183SOPE   O2220905   4.993   0.376   6.489 -0.3946  0.0586  0.2753
  183SOPE   C2220906   5.005   0.581   6.633 -0.1831  0.7039 -0.1223
  183SOPE   H2R20907   5.004   0.668   6.563 -0.4603 -0.2154 -1.2991
  183SOPE   H2S20908   5.080   0.602   6.712 -1.1827  0.2872  0.9773
  183SOPE    C320909   5.395   0.412   6.454 -0.6852  0.4660 -0.4248
  183SOPE    HX20910   5.430   0.516   6.437 -2.0778  0.7698 -1.5927
  183SOPE    HY20911   5.447   0.352   6.376 -1.4336 -0.1569 -0.4598
  183SOPE   O3120912   5.431   0.348   6.579  0.0225 -0.6602  0.3683
  183SOPE   C3120913   5.508   0.422   6.657  0.2113  0.0006  0.7704
  183SOPE   O3220914   5.565   0.523   6.625  0.7042  0.5280  0.4501
  183SOPE   C3220915   5.548   0.339   6.774  0.6936  0.3020 -0.2663
  183SOPE   H2X20916   5.654   0.307   6.771  0.7585  0.5988 -1.7776
  183SOPE   H2Y20917   5.479   0.252   6.783 -1.8433  2.3177  1.4548
  183SOPE   C2320918   4.860   0.557   6.686 -0.1606  0.1840  0.5526
  183SOPE   H3R20919   4.791   0.548   6.600  1.9134 -0.3935 -1.1374
  183SOPE   H3S20920   4.821   0.651   6.731 -1.6302 -0.8107  1.4289
  183SOPE   C2420921   4.849   0.445   6.789 -0.2341  0.6127 -0.0341
  183SOPE   H4R20922   4.745   0.405   6.798  0.2733 -1.2505 -1.5359
  183SOPE   H4S20923   4.913   0.356   6.768 -0.8712  0.1250  0.0343
  183SOPE   C2520924   4.880   0.506   6.925  0.2574  0.3522 -0.5741
  183SOPE   H5R20925   4.977   0.559   6.909  1.0846 -0.8654  0.2635
  183SOPE   H5S20926   4.810   0.583   6.963 -0.0519 -0.7906  1.2908
  183SOPE   C2620927   4.907   0.405   7.038  0.0336  0.3327  0.2231
  183SOPE   H6R20928   4.848   0.315   7.011 -0.9504  0.8405  0.6172
  183SOPE   H6S20929   5.013   0.378   7.020  0.3422  0.6626  1.4514
  183SOPE   C2720930   4.885   0.444   7.185 -0.2347  0.1492  0.3135
  183SOPE   H7R20931   4.903   0.552   7.206  0.4604  0.2374 -0.6670
  183SOPE   H7S20932   4.779   0.421   7.211 -0.1355  0.1424  0.7264
  183SOPE   C2820933   4.967   0.360   7.290 -0.0011  0.5514  0.6557
  183SOPE   H8R20934   4.944   0.255   7.262  1.3986  0.3793  0.0562
  183SOPE   H8S20935   5.077   0.362   7.277  0.2447 -4.3450  0.3955
  183SOPE   C2920936   4.922   0.396   7.430  0.5304  0.4996  0.9837
  183SOPE   H9120937   4.829   0.345   7.460 -0.4006 -0.3375 -2.7330
  183SOPE  C21020938   4.972   0.485   7.516 -0.6699 -0.0112 -0.5518
  183SOPE  H10120939   4.919   0.485   7.612  0.1890  2.6427  0.0014
  183SOPE  C21120940   5.086   0.586   7.503 -0.0580  0.0886 -0.1854
  183SOPE  H11R20941   5.101   0.607   7.395 -0.7426  3.2013  0.2355
  183SOPE  H11S20942   5.184   0.551   7.540  0.4838  1.3868 -0.3495
  183SOPE  C21220943   5.058   0.714   7.577 -0.0878  0.4684 -0.0771
  183SOPE  H12R20944   4.952   0.739   7.555 -0.1623 -1.4521 -2.2314
  183SOPE  H12S20945   5.129   0.792   7.543  0.3022  0.0437 -0.2520
  183SOPE  C21320946   5.080   0.694   7.724  0.5809  0.3170 -0.6250
  183SOPE  H13R20947   5.180   0.658   7.756 -0.5871 -1.9083  0.8092
  183SOPE  H13S20948   5.010   0.617   7.765  2.4013 -0.4633  1.2268
  183SOPE  C21420949   5.053   0.819   7.815  0.2748  0.0545 -0.1948
  183SOPE  H14R20950   4.959   0.868   7.780 -0.4374 -1.5733 -0.6869
  183SOPE  H14S20951   5.130   0.898   7.812 -2.4460  2.8680 -0.9941
  183SOPE  C21520952   5.016   0.795   7.967  0.3100  0.4694  0.3722
  183SOPE  H15R20953   5.092   0.722   8.003  0.6758  0.3311 -0.6429
  183SOPE  H15S20954   4.920   0.739   7.967  0.8019 -0.3962 -0.2531
  183SOPE  C21620955   5.021   0.927   8.052  1.0148  0.3327 -0.3302
  183SOPE  H16R20956   4.935   0.988   8.016  3.1732  2.9331 -1.3931
  183SOPE  H16S20957   5.105   0.989   8.015 -0.9684  2.4853 -1.5034
  183SOPE  C21720958   5.025   0.894   8.200  0.4794  0.2218 -0.4111
  183SOPE  H17R20959   5.045   0.993   8.246  0.4171  0.1505 -0.2296
  183SOPE  H17S20960   5.117   0.836   8.222 -0.3775 -1.0493 -0.0165
  183SOPE  C21820961   4.905   0.814   8.262 -0.6199 -1.0799  0.1363
  183SOPE  H18R20962   4.919   0.805   8.372  1.4827  0.9431  0.1032
  183SOPE  H18S20963   4.906   0.717   8.207  0.6056 -1.3469  0.6002
  183SOPE  H18T20964   4.812   0.871   8.242 -0.8602  0.2490  4.0423
  183SOPE   C3320965   5.518   0.414   6.907  0.1220  0.0962  0.3049
  183SOPE   H3X20966   5.409   0.411   6.930  0.2807  3.9723  2.3612
  183SOPE   H3Y20967   5.559   0.517   6.898  1.9922 -0.5142  1.3565
  183SOPE   C3420968   5.592   0.358   7.033 -0.5112 -0.0223 -0.2554
  183SOPE   H4X20969   5.702   0.362   7.019 -0.5802 -3.0037 -2.4785
  183SOPE   H4Y20970   5.564   0.251   7.040 -0.8899 -0.0424 -1.8678
  183SOPE   C3520971   5.549   0.431   7.165  0.0522 -0.7271 -0.5374
  183SOPE   H5X20972   5.558   0.540   7.144 -0.5751 -0.7807 -1.1434
  183SOPE   H5Y20973   5.629   0.398   7.235  0.0028 -1.0639 -0.6376
  183SOPE   C3620974   5.414   0.395   7.219 -0.0009 -0.3792 -0.2021
  183SOPE   H6X20975   5.418   0.285   7.233 -0.4707 -0.2712  0.9172
  183SOPE   H6Y20976   5.328   0.430   7.159 -0.1676  1.5183  1.0436
  183SOPE   C3720977   5.385   0.439   7.364  0.8609  0.2962 -0.2618
  183SOPE   H7X20978   5.284   0.404   7.393  0.8184 -0.1369 -0.9142
  183SOPE   H7Y20979   5.404   0.549   7.366 -1.3763  0.7155  0.6768
  183SOPE   C3820980   5.483   0.391   7.469  0.2717 -0.4680 -0.0406
  183SOPE   H8X20981   5.580   0.444   7.456 -0.3966  0.3736 -1.9236
  183SOPE   H8Y20982   5.492   0.280   7.465  0.9165 -0.4470  0.6576
  183SOPE   C3920983   5.443   0.414   7.614 -0.3860  0.1060  0.3713
  183SOPE   H9X20984   5.349   0.361   7.637 -1.9001  2.0036 -1.0993
  183SOPE   H9Y20985   5.417   0.520   7.635 -3.5154 -0.0550 -1.9442
  183SOPE  C31020986   5.545   0.360   7.722 -0.3635  0.2721 -0.0547
  183SOPE  H10X20987   5.641   0.400   7.682  0.0947 -0.7768 -0.0450
  183SOPE  H10Y20988   5.537   0.250   7.707  0.7054  0.1606  0.0838
  183SOPE  C31120989   5.513   0.406   7.867 -0.6362  0.2664 -0.2104
  183SOPE  H11X20990   5.416   0.364   7.901 -1.6276  1.2168 -1.7222
  183SOPE  H11Y20991   5.496   0.515   7.857 -1.8328  0.3338  1.9537
  183SOPE  C31220992   5.624   0.388   7.968 -0.7560 -0.1348 -0.4654
  183SOPE  H12X20993   5.721   0.417   7.923 -1.5233  0.4985 -1.8113
  183SOPE  H12Y20994   5.631   0.281   7.997 -4.3466 -1.1657 -2.6347
  183SOPE  C31320995   5.599   0.474   8.098 -0.6398  0.2175  0.6962
  183SOPE  H13X20996   5.491   0.475   8.125 -0.2852 -2.3097  2.5019
  183SOPE  H13Y20997   5.627   0.579   8.075  0.0806 -0.2802 -0.8146
  183SOPE  C31420998   5.683   0.426   8.222  0.2251  0.5840 -0.4442
  183SOPE  H14X20999   5.622   0.345   8.267 -2.2471  2.2494 -0.5582
  183SOPE  H14Y21000   5.681   0.500   8.306 -0.1654 -0.7380  0.7619
  183SOPE  C31521001   5.820   0.372   8.184  0.3788  0.0285  0.1882
  183SOPE  H15X21002   5.885   0.436   8.119 -0.4136 -1.1270 -1.8358
  183SOPE  H15Y21003   5.804   0.285   8.116 -0.0466  2.3546 -2.9559
  183SOPE  C31621004   5.895   0.337   8.312  0.4226  0.4641  0.7581
  183SOPE  H16X21005   5.890   0.419   8.387 -2.4805 -1.0930  2.4693
  183SOPE  H16Y21006   6.002   0.319   8.290  1.0848  1.0462  3.1612
  183SOPE  C31721007   5.839   0.213   8.387  0.1040 -0.0166 -0.0027
  183SOPE  H17X21008   5.734   0.219   8.420  0.6155  0.0058  1.6963
  183SOPE  H17Y21009   5.899   0.208   8.480  0.5546 -1.5454 -0.3520
  183SOPE  C31821010   5.867   0.089   8.310 -0.4771  0.2283  0.0216
  183SOPE  H18X21011   5.971   0.089   8.269 -0.1742  0.9551  0.7641
  183SOPE  H18Y21012   5.789   0.082   8.231  1.7802  0.5941 -2.4123
  183SOPE  H18Z21013   5.854   0.000   8.375  2.5434  1.1708  2.1578
  184SOPE     N21014   3.892   1.339   6.035 -0.1918 -0.0386 -0.1860
  184SOPE   HN121015   3.900   1.427   5.981  2.0896  0.9234  1.5691
  184SOPE   HN221016   3.959   1.338   6.114 -0.8637 -1.8141  0.4099
  184SOPE   HN321017   3.911   1.262   5.968  1.9172 -0.2070  0.5530
  184SOPE   C1221018   3.749   1.343   6.082  0.0090  0.3049  0.6254
  184SOPE  H12A21019   3.712   1.251   6.133 -1.1919 -1.4236 -2.9989
  184SOPE  H12B21020   3.695   1.348   5.984  0.5804 -1.6199  0.1604
  184SOPE   C1121021   3.718   1.470   6.161  0.3575  0.2598  0.5494
  184SOPE  H11A21022   3.771   1.452   6.257  1.7329 -0.0835 -0.2512
  184SOPE  H11B21023   3.612   1.468   6.193 -0.2758  1.4920 -1.3280
  184SOPE     P21024   3.873   1.678   6.116 -0.0550 -0.3925  0.1605
  184SOPE   O1321025   3.856   1.807   6.042  0.5489  0.2855  0.1672
  184SOPE   O1421026   3.997   1.602   6.090 -0.3496  0.2672 -0.0590
  184SOPE   O1221027   3.750   1.590   6.091  0.1301 -0.1146 -0.5523
  184SOPE   O1121028   3.860   1.705   6.267  0.1243  0.0062 -0.1652
  184SOPE    C121029   3.777   1.810   6.325  0.7710  0.0254  0.4543
  184SOPE    HA21030   3.685   1.765   6.369  0.7439  1.1232  1.5677
  184SOPE    HB21031   3.731   1.882   6.254 -0.1672  0.4947  1.5039
  184SOPE    C221032   3.846   1.876   6.446  0.5329 -0.6783 -0.2799
  184SOPE    HS21033   3.951   1.903   6.423 -0.2475  1.2433 -1.9102
  184SOPE   O2121034   3.840   1.793   6.566  0.0503 -0.0695  0.1234
  184SOPE   C2121035   3.943   1.801   6.648 -0.4359 -0.1845  0.2433
  184SOPE   O2221036   4.059   1.836   6.621  0.2642 -0.0144  0.1027
  184SOPE   C2221037   3.892   1.759   6.778  0.1737 -0.4643 -0.1090
  184SOPE   H2R21038   3.789   1.801   6.776 -1.4410 -4.0260 -2.2244
  184SOPE   H2S21039   3.955   1.799   6.860 -0.5846  3.5384 -1.2994
  184SOPE    C321040   3.778   2.011   6.468 -0.2486 -0.0208  0.1794
  184SOPE    HX21041   3.667   2.006   6.461 -0.5832  4.6985 -3.5676
  184SOPE    HY21042   3.789   2.062   6.370 -2.0893  2.6451  1.2246
  184SOPE   O3121043   3.813   2.077   6.587 -0.1653  0.1604 -0.4848
  184SOPE   C3121044   3.929   2.136   6.588 -1.0259 -0.6995  0.2220
  184SOPE   O3221045   4.008   2.154   6.496  0.0632 -0.2780 -0.0769
  184SOPE   C3221046   3.947   2.206   6.717 -0.3211  0.0604  0.3356
  184SOPE   H2X21047   3.893   2.302   6.708 -1.0281 -0.4104 -0.6311
  184SOPE   H2Y21048   4.054   2.227   6.735 -0.3161 -1.2866  2.3005
  184SOPE   C2321049   3.876   1.606   6.808  0.0050 -1.0878  0.7884
  184SOPE   H3R21050   3.976   1.564   6.835 -0.0222 -0.9770  1.0690
  184SOPE   H3S21051   3.832   1.547   6.725  1.5917 -2.5166  0.9035
  184SOPE   C2421052   3.777   1.593   6.927  0.3524  0.5038  1.1899
  184SOPE   H4R21053   3.677   1.625   6.890  1.2549  0.4511 -1.5526
  184SOPE   H4S21054   3.758   1.488   6.955 -1.2466  0.2054 -0.7473
  184SOPE   C2521055   3.810   1.678   7.057 -0.1280 -0.2174 -0.2108
  184SOPE   H5R21056   3.883   1.760   7.036  0.3413 -0.6482 -0.2914
  184SOPE   H5S21057   3.718   1.736   7.080 -0.6818 -0.1767 -2.3168
  184SOPE   C2621058   3.859   1.592   7.181 -0.5891 -0.2293 -0.1350
  184SOPE   H6R21059   3.790   1.514   7.220 -1.4035  1.2067  1.3909
  184SOPE   H6S21060   3.946   1.529   7.150 -0.7494 -0.8215  0.5992
  184SOPE   C2721061   3.907   1.678   7.302  0.4265 -0.4814 -0.6183
  184SOPE   H7R21062   3.977   1.760   7.274  0.4738  0.0039  0.8682
  184SOPE   H7S21063   3.816   1.723   7.346 -0.5869 -2.7706 -0.2300
  184SOPE   C2821064   3.982   1.599   7.410  0.2555 -0.4193  0.1456
  184SOPE   H8R21065   3.918   1.511   7.433  0.6234 -0.4781  0.9585
  184SOPE   H8S21066   4.078   1.557   7.373  1.0815  1.8746 -0.5173
  184SOPE   C2921067   4.008   1.692   7.531 -0.7337  0.0798  0.2822
  184SOPE   H9121068   4.067   1.780   7.503 -0.4287  0.9395  3.2606
  184SOPE  C21021069   3.981   1.674   7.665 -0.3340 -0.1461  0.2167
  184SOPE  H10121070   4.009   1.759   7.728 -1.5661  1.0555 -0.7926
  184SOPE  C21121071   3.921   1.551   7.743  0.0155 -0.4961 -0.1000
  184SOPE  H11R21072   3.937   1.456   7.688  3.4793  0.1803 -0.5058
  184SOPE  H11S21073   3.813   1.568   7.759 -0.6722 -1.3132 -3.2119
  184SOPE  C21221074   3.980   1.528   7.883 -0.1033  0.2264  0.0814
  184SOPE  H12R21075   4.089   1.508   7.869  0.0139  0.6553  0.3710
  184SOPE  H12S21076   3.927   1.440   7.925 -2.4824  1.1385 -0.8246
  184SOPE  C21321077   3.949   1.626   7.993  0.6440  0.5599 -0.2861
  184SOPE  H13R21078   3.842   1.630   8.025  0.7671  2.4262 -0.0085
  184SOPE  H13S21079   3.979   1.722   7.945  0.0354  0.3460 -1.1316
  184SOPE  C21421080   4.044   1.600   8.112  0.2909 -0.1007  0.3578
  184SOPE  H14R21081   4.038   1.686   8.182 -1.6345  0.4652 -0.4446
  184SOPE  H14S21082   4.151   1.603   8.079 -0.5971 -0.1140 -2.8517
  184SOPE  C21521083   4.012   1.474   8.196 -0.2801 -0.6464 -0.0065
  184SOPE  H15R21084   4.013   1.388   8.126  0.5132  0.6375 -1.6365
  184SOPE  H15S21085   3.907   1.493   8.227  0.1803  1.0851  0.6217
  184SOPE  C21621086   4.109   1.447   8.314 -0.7186  0.2294  0.4526
  184SOPE  H16R21087   4.211   1.455   8.271 -0.3250 -1.4081  0.9865
  184SOPE  H16S21088   4.089   1.343   8.348  0.8886 -0.0974  0.4576
  184SOPE  C21721089   4.107   1.551   8.425  0.0231  0.1725  0.2455
  184SOPE  H17R21090   4.016   1.613   8.412  0.9494  1.7921  1.0974
  184SOPE  H17S21091   4.192   1.622   8.418 -0.1015  0.6287  2.6240
  184SOPE  C21821092   4.129   1.490   8.562  0.3908  0.4916 -0.4775
  184SOPE  H18R21093   4.098   1.566   8.637  1.8385 -1.0078  1.7920
  184SOPE  H18S21094   4.237   1.465   8.569  0.0956 -0.7980 -0.0871
  184SOPE  H18T21095   4.063   1.401   8.571 -3.2620  2.3565 -4.9740
  184SOPE   C3321096   3.903   2.123   6.841 -0.5249 -0.3116  0.4758
  184SOPE   H3X21097   3.951   2.024   6.855 -0.1913 -0.2348 -0.0736
  184SOPE   H3Y21098   3.796   2.096   6.853  0.0695 -2.3076  1.7649
  184SOPE   C3421099   3.936   2.181   6.979  0.2061  0.4111 -0.5156
  184SOPE   H4X21100   3.896   2.277   7.016  2.1962  0.0221  3.1977
  184SOPE   H4Y21101   4.046   2.197   6.977 -0.0555  2.4395 -0.8116
  184SOPE   C3521102   3.891   2.081   7.087  0.9131  0.5233 -0.7189
  184SOPE   H5X21103   3.963   2.000   7.064  2.4877  2.4937 -3.5047
  184SOPE   H5Y21104   3.783   2.056   7.088  0.7285  1.3129 -0.2557
  184SOPE   C3621105   3.937   2.130   7.231 -0.1191  0.2121  0.7312
  184SOPE   H6X21106   3.896   2.234   7.234 -2.7078 -0.6860 -0.2962
  184SOPE   H6Y21107   4.046   2.136   7.251 -0.1077  2.1354  0.3162
  184SOPE   C3721108   3.886   2.051   7.350 -0.1115  0.2827  0.2023
  184SOPE   H7X21109   3.912   1.942   7.349 -1.6665 -0.0998 -1.0551
  184SOPE   H7Y21110   3.775   2.044   7.349 -0.0358 -3.5432 -2.4879
  184SOPE   C3821111   3.927   2.123   7.485 -0.0218  0.6747 -0.0339
  184SOPE   H8X21112   3.902   2.230   7.467  0.3302  0.6050 -0.9836
  184SOPE   H8Y21113   4.038   2.117   7.483 -0.0720 -0.7574 -2.1871
  184SOPE   C3921114   3.853   2.051   7.594 -0.6697 -0.3891 -0.7977
  184SOPE   H9X21115   3.892   1.947   7.591  1.1912  0.1839  1.0631
  184SOPE   H9Y21116   3.743   2.064   7.584 -0.7516 -0.8655 -0.5330
  184SOPE  C31021117   3.896   2.112   7.731  0.0162  0.4835 -0.0586
  184SOPE  H10X21118   3.869   2.220   7.735 -1.0835  0.1816  1.0707
  184SOPE  H10Y21119   4.007   2.109   7.734 -0.0127 -1.5875  0.3025
  184SOPE  C31121120   3.852   2.038   7.858  0.4591  0.0972  0.1784
  184SOPE  H11X21121   3.879   1.931   7.843  1.0513  0.5358 -2.1927
  184SOPE  H11Y21122   3.743   2.029   7.878  0.6183 -3.8384  0.1048
  184SOPE  C31221123   3.925   2.099   7.982 -0.3892  0.3556 -0.3451
  184SOPE  H12X21124   3.896   2.206   7.972 -0.8390  0.4682  1.6860
  184SOPE  H12Y21125   4.033   2.082   7.961  0.7974  3.5570  2.3089
  184SOPE  C31321126   3.878   2.033   8.115 -0.4633 -0.1442 -0.2817
  184SOPE  H13X21127   3.903   1.925   8.126  0.1879 -0.2386 -2.3181
  184SOPE  H13Y21128   3.767   2.042   8.114 -0.8041 -2.6195 -3.4024
  184SOPE  C31421129   3.934   2.114   8.236 -0.4593  0.0123  0.8637
  184SOPE  H14X21130   4.025   2.166   8.202 -1.8242  2.0471  0.1345
  184SOPE  H14Y21131   3.968   2.042   8.314  2.5381  0.2141 -0.1188
  184SOPE  C31521132   3.840   2.221   8.291 -0.2903  0.1765  0.0587
  184SOPE  H15X21133   3.774   2.185   8.373  1.2066 -2.4944  0.2173
  184SOPE  H15Y21134   3.787   2.272   8.208 -1.3956 -0.0629  0.5871
  184SOPE  C31621135   3.936   2.323   8.368  0.7640  0.2244  0.2141
  184SOPE  H16X21136   3.869   2.390   8.427 -1.2297 -1.2208 -0.2799
  184SOPE  H16Y21137   4.012   2.369   8.302  1.7858 -1.0005  0.5027
  184SOPE  C31721138   4.010   2.260   8.485 -0.1902 -0.4018 -0.0539
  184SOPE  H17X21139   4.079   2.181   8.450  1.2958  0.3043  1.2168
  184SOPE  H17Y21140   3.930   2.230   8.556 -1.3040 -0.1821 -1.1658
  184SOPE  C31821141   4.087   2.375   8.550 -0.5078  0.0262  0.0496
  184SOPE  H18X21142   4.145   2.335   8.637  2.4391  1.1749 -1.2542
  184SOPE  H18Y21143   4.023   2.458   8.587  0.1189  0.6517 -0.2436
  184SOPE  H18Z21144   4.164   2.421   8.485 -1.7142  2.2787  0.1000
  185SAPI   C1221145   4.368   3.289  11.248  0.5801  0.2947  0.1551
  185SAPI    H221146   4.316   3.387  11.247 -1.1365 -0.5785  0.3355
  185SAPI    O221147   4.486   3.298  11.333  0.4557  0.6435 -0.1846
  185SAPI   HO221148   4.555   3.347  11.288 -0.0430  0.5798 -1.0403
  185SAPI   C1321149   4.265   3.182  11.293 -0.3045  0.7980  0.7375
  185SAPI    H321150   4.177   3.207  11.231  2.2535  1.6404 -2.8228
  185SAPI    O321151   4.231   3.204  11.427 -0.8468 -0.1459  0.6083
  185SAPI   HO321152   4.171   3.134  11.455 -0.9334 -0.3824 -0.1319
  185SAPI   C1421153   4.322   3.043  11.267  0.4615 -0.3061  0.4267
  185SAPI    H421154   4.423   3.037  11.314  1.2674 -2.1562 -1.3773
  185SAPI    O421155   4.223   2.953  11.316  0.2352  0.3094 -0.5208
  185SAPI   HO421156   4.136   2.968  11.278 -0.0853  1.7998  0.6947
  185SAPI   C1521157   4.341   3.014  11.121 -0.3621 -0.3603  0.0183
  185SAPI    H521158   4.249   3.030  11.061  1.1232  0.6171 -2.1126
  185SAPI    O521159   4.377   2.879  11.081 -0.1608  0.1342 -0.3941
  185SAPI   HO521160   4.298   2.829  11.059  0.2275 -1.7293  2.0038
  185SAPI   C1621161   4.448   3.114  11.073  0.1229  0.6676  0.3355
  185SAPI    H621162   4.537   3.098  11.138  0.9768 -0.9324 -1.1320
  185SAPI    O621163   4.487   3.095  10.936  0.0387 -0.3449 -0.1577
  185SAPI   HO621164   4.578   3.127  10.928 -0.3343  0.7717 -0.0878
  185SAPI   C1121165   4.402   3.258  11.098  0.4244 -0.1427  0.5737
  185SAPI    H121166   4.307   3.274  11.044  1.2562  0.9860 -0.6003
  185SAPI     P21167   4.463   3.478  10.978  0.0118 -0.0981 -0.0888
  185SAPI   O1321168   4.580   3.569  10.995  0.1219 -0.3783 -0.4555
  185SAPI   O1421169   4.327   3.526  11.022 -0.3270 -0.3402  0.6579
  185SAPI   O1221170   4.509   3.344  11.057 -0.5905 -0.0874 -0.3241
  185SAPI   O1121171   4.459   3.425  10.826 -0.2641 -0.2304  0.2669
  185SAPI    C121172   4.354   3.479  10.741 -0.7686  0.2462  0.0932
  185SAPI    HA21173   4.259   3.424  10.760 -0.1153 -0.4853  1.3952
  185SAPI    HB21174   4.337   3.588  10.753 -2.5133  0.1264 -0.8635
  185SAPI    C221175   4.396   3.473  10.592 -0.1714  0.5788 -0.6024
  185SAPI    HS21176   4.309   3.510  10.534 -1.1931 -0.0209  0.4976
  185SAPI   O2121177   4.436   3.337  10.562 -0.4940 -0.3104  0.2209
  185SAPI   C2121178   4.338   3.254  10.561 -0.5126  0.6176  0.4218
  185SAPI   O2221179   4.220   3.273  10.588  0.0027 -0.5228  0.0656
  185SAPI   C2221180   4.384   3.118  10.514  0.4109 -0.1479 -0.1444
  185SAPI   H2R21181   4.416   3.139  10.410 -2.4898  0.0144 -1.1072
  185SAPI   H2S21182   4.470   3.084  10.576  0.1923  1.6704  1.2398
  185SAPI    C321183   4.519   3.560  10.559 -0.5592 -0.2416  0.2587
  185SAPI    HX21184   4.611   3.510  10.597  0.2594  1.0887  0.0920
  185SAPI    HY21185   4.506   3.658  10.610 -0.7670  0.2048 -0.6366
  185SAPI   O3121186   4.537   3.578  10.420 -0.0987  0.3729 -0.0666
  185SAPI   C3121187   4.588   3.699  10.378  0.0818  0.1557  0.0389
  185SAPI   O3221188   4.621   3.787  10.453 -0.1826  0.0072 -0.4928
  185SAPI   C3221189   4.598   3.697  10.227 -0.0166  0.3622  0.3079
  185SAPI   H2X21190   4.511   3.646  10.181 -1.4364  0.2684  2.8934
  185SAPI   H2Y21191   4.674   3.623  10.196 -0.1715 -0.5307  1.9411
  185SAPI   C2321192   4.271   3.006  10.513 -0.3815  0.2947  0.0482
  185SAPI   H3R21193   4.225   3.004  10.614  0.2078 -1.6423  0.3130
  185SAPI   H3S21194   4.325   2.909  10.508 -0.9074 -0.0358  0.6326
  185SAPI   C2421195   4.176   3.020  10.393  0.1114 -0.1012 -0.2282
  185SAPI   H4R21196   4.144   3.126  10.382  1.5320  0.2008 -1.8508
  185SAPI   H4S21197   4.082   2.971  10.425  0.7737 -0.3892  1.3844
  185SAPI   C2521198   4.234   2.954  10.270  0.2666  0.1744 -0.5887
  185SAPI   H5R21199   4.284   2.857  10.286  1.8023  0.5566 -2.6034
  185SAPI   C2621200   4.242   3.002  10.148 -0.2137 -0.3191 -0.3302
  185SAPI   H6R21201   4.280   2.940  10.066 -1.0449 -2.0536  0.5551
  185SAPI   C2721202   4.192   3.132  10.089  0.3274 -0.2683 -0.4985
  185SAPI   H7R21203   4.230   3.154   9.987  0.1426  0.3196 -0.4468
  185SAPI   H7S21204   4.221   3.214  10.158 -2.0974  1.0249 -0.9189
  185SAPI   C2821205   4.043   3.134  10.085 -1.2181 -0.1968 -0.1138
  185SAPI   H8R21206   4.000   3.090  10.176 -0.3686  4.2519  2.7653
  185SAPI   C2921207   3.953   3.185   9.996  0.2073 -0.0869  0.2675
  185SAPI   H9R21208   3.846   3.171  10.018 -0.1255 -1.7143 -1.9703
  185SAPI  C21021209   3.987   3.263   9.872  0.3267 -0.5482 -0.1129
  185SAPI  H10R21210   4.081   3.321   9.882  3.0600 -4.4739 -0.9077
  185SAPI  H10S21211   3.907   3.333   9.840  0.7921 -0.7309 -1.7148
  185SAPI  C21121212   4.020   3.168   9.757  0.7820 -0.4133  0.1205
  185SAPI  H11R21213   4.068   3.074   9.788 -2.7512 -1.9047  1.5400
  185SAPI  C21221214   3.991   3.193   9.627  0.3828  0.4511  0.3359
  185SAPI  H12R21215   4.020   3.116   9.554 -0.9745  1.4863 -1.3890
  185SAPI  C21321216   3.915   3.320   9.575 -1.0897 -0.0602 -0.3387
  185SAPI  H13R21217   3.900   3.395   9.656 -0.3393  0.9848 -1.1528
  185SAPI  H13S21218   3.817   3.289   9.534 -1.8761  0.7360  0.8749
  185SAPI  C21421219   3.996   3.384   9.468 -0.2193  0.1652 -0.0701
  185SAPI  H14R21220   4.069   3.451   9.516 -0.5919  0.4029  0.1703
  185SAPI  C21521221   3.972   3.383   9.340 -0.9660 -0.6781 -0.2089
  185SAPI  H15R21222   4.042   3.437   9.274 -1.2937  0.8185  0.6529
  185SAPI  C21621223   3.867   3.313   9.262  0.3040  0.0119  0.6862
  185SAPI  H16R21224   3.829   3.227   9.322  1.1101  0.2253  1.5291
  185SAPI  H16S21225   3.920   3.266   9.176 -1.3215  0.0197 -0.3619
  185SAPI  C21721226   3.755   3.403   9.216 -0.2362 -0.1364 -0.2747
  185SAPI  H17R21227   3.710   3.463   9.298  0.7952  0.8941 -0.4352
  185SAPI  H17S21228   3.678   3.339   9.168 -0.3620 -0.5451  0.4541
  185SAPI  C21821229   3.795   3.505   9.112  0.1788 -0.4048 -0.4640
  185SAPI  H18R21230   3.835   3.604   9.142 -2.4002  1.6880 -3.2165
  185SAPI  H18S21231   3.701   3.545   9.068  1.2387  0.6245 -1.9015
  185SAPI  C21921232   3.894   3.467   9.005  0.0506  1.1654  0.6196
  185SAPI  H19R21233   3.875   3.366   8.965 -3.1567  1.3933  1.2654
  185SAPI  H19S21234   3.995   3.465   9.051  1.2238  0.3734 -1.8040
  185SAPI  C22021235   3.897   3.570   8.886  0.2914  0.4385 -0.3291
  185SAPI  H20R21236   3.958   3.539   8.799  0.5854 -0.2741  0.1289
  185SAPI  H20S21237   3.935   3.668   8.924 -2.1418  1.2387  0.2116
  185SAPI  H20T21238   3.794   3.583   8.847  0.3723  1.2535 -0.3037
  185SAPI   C3321239   4.608   3.845  10.184  0.2024 -0.3413 -0.3035
  185SAPI   H3X21240   4.661   3.910  10.257  0.8108  0.4181 -1.3745
  185SAPI   H3Y21241   4.510   3.895  10.165 -0.1800 -0.3130  1.5780
  185SAPI   C3421242   4.695   3.860  10.057 -0.5345 -0.4848  0.2637
  185SAPI   H4X21243   4.803   3.847  10.081 -0.5066  1.5063  1.4148
  185SAPI   H4Y21244   4.688   3.964  10.019  1.4945 -0.8869 -1.4574
  185SAPI   C3521245   4.657   3.766   9.945  0.0272  0.0785 -0.6407
  185SAPI   H5X21246   4.548   3.748   9.932 -0.0852  0.7109 -0.6114
  185SAPI   H5Y21247   4.695   3.667   9.976  1.7432  0.3382 -1.7916
  185SAPI   C3621248   4.716   3.811   9.811 -1.1221 -0.0260 -0.2892
  185SAPI   H6X21249   4.827   3.809   9.811 -1.0834  1.4366  0.1681
  185SAPI   H6Y21250   4.693   3.916   9.785  0.8310  0.0523 -1.9811
  185SAPI   C3721251   4.683   3.727   9.691  0.3761 -0.5580 -0.9179
  185SAPI   H7X21252   4.574   3.707   9.698  0.4256 -0.3845  3.1392
  185SAPI   H7Y21253   4.733   3.629   9.711  2.0424  0.6261  1.1113
  185SAPI   C3821254   4.726   3.783   9.555  0.0347 -0.1500  0.4578
  185SAPI   H8X21255   4.829   3.825   9.563 -0.9165  2.3375  0.5178
  185SAPI   H8Y21256   4.665   3.871   9.529  0.1722  0.0668  0.8580
  185SAPI   C3921257   4.721   3.685   9.433 -0.1106  0.1144 -0.5887
  185SAPI   H9X21258   4.616   3.651   9.434  0.1467 -0.7968 -1.7297
  185SAPI   H9Y21259   4.790   3.599   9.449 -0.5187  0.2268  2.1049
  185SAPI  C31021260   4.729   3.747   9.297 -0.2211 -0.1720 -0.5406
  185SAPI  H10X21261   4.816   3.814   9.281 -0.4359  0.3866  0.5532
  185SAPI  H10Y21262   4.640   3.813   9.297  1.2394  1.9548  1.6245
  185SAPI  C31121263   4.711   3.647   9.173 -0.6022 -0.2045  0.6544
  185SAPI  H11X21264   4.609   3.603   9.183 -0.7341  0.1210  0.7518
  185SAPI  H11Y21265   4.782   3.563   9.190 -1.4895 -0.9912  0.5193
  185SAPI  C31221266   4.711   3.718   9.036  0.2241 -0.1929  0.1232
  185SAPI  H12X21267   4.802   3.781   9.027 -0.5322  0.9088 -0.1315
  185SAPI  H12Y21268   4.627   3.791   9.042 -0.7818 -1.1951 -1.0847
  185SAPI  C31321269   4.695   3.615   8.919 -0.1785  0.3325 -0.5099
  185SAPI  H13X21270   4.594   3.572   8.941  0.7752 -0.9440  1.6761
  185SAPI  H13Y21271   4.772   3.536   8.927  3.0700  3.2977  0.1915
  185SAPI  C31421272   4.694   3.698   8.797  0.0021  1.0666 -0.0461
  185SAPI  H14X21273   4.793   3.747   8.793  0.8658 -0.5741  0.2362
  185SAPI  H14Y21274   4.614   3.774   8.813  0.4003  1.9072 -1.8470
  185SAPI  C31521275   4.672   3.613   8.677 -0.2657  0.1546  0.0421
  185SAPI  H15X21276   4.577   3.558   8.692  0.6234 -1.0312  1.6358
  185SAPI  H15Y21277   4.760   3.545   8.675  0.1858  0.6014  2.1835
  185SAPI  C31621278   4.676   3.700   8.551  0.0175  0.0139  0.7827
  185SAPI  H16X21279   4.657   3.636   8.462  3.0696 -0.0809  0.0696
  185SAPI  H16Y21280   4.778   3.742   8.540 -0.3010  0.7154  0.4799
  185SAPI  C31721281   4.567   3.816   8.561  0.7641  0.0728  0.6948
  185SAPI  H17X21282   4.606   3.898   8.626 -0.1744  0.5024  0.7428
  185SAPI  H17Y21283   4.491   3.763   8.622  0.9707 -3.0175 -1.5457
  185SAPI  C31821284   4.494   3.863   8.431 -0.7721  0.2422 -0.0793
  185SAPI  H18X21285   4.550   3.948   8.386 -1.3942  0.7821  0.1499
  185SAPI  H18Y21286   4.396   3.909   8.454 -0.2646  2.4896 -1.9464
  185SAPI  H18Z21287   4.482   3.780   8.359 -1.7092  0.5102 -0.2505
  186SAPI   C1221288   6.183   0.224  10.893 -0.2518  0.1862  0.2763
  186SAPI    H221289   6.092   0.189  10.946 -1.2366  0.1757 -1.3534
  186SAPI    O221290   6.239   0.334  10.965 -0.5799  0.5103  0.4650
  186SAPI   HO221291   6.173   0.352  11.032 -1.3140 -0.7781  0.1154
  186SAPI   C1321292   6.279   0.107  10.892 -0.2263 -0.1160  0.8981
  186SAPI    H321293   6.225   0.033  10.829  0.1587 -1.9037  2.5625
  186SAPI    O321294   6.309   0.060  11.024 -0.1610  0.1855 -0.0165
  186SAPI   HO321295   6.358   0.133  11.062 -2.4353  1.4068  0.7404
  186SAPI   C1421296   6.409   0.147  10.824  0.3419  0.0360 -0.4076
  186SAPI    H421297   6.449   0.237  10.875  0.5458  1.0611 -2.2570
  186SAPI    O421298   6.501   0.041  10.819  0.1522  0.1239  0.3486
  186SAPI   HO421299   6.488  -0.027  10.751  1.4003 -3.0658  3.0323
  186SAPI   C1521300   6.375   0.202  10.685  0.2871 -0.5880  0.3302
  186SAPI    H521301   6.329   0.118  10.628  1.4265 -0.4502 -0.8253
  186SAPI    O521302   6.491   0.237  10.608 -0.5887  0.2679  0.2684
  186SAPI   HO521303   6.528   0.319  10.643  1.2495 -1.8296  3.8985
  186SAPI   C1621304   6.267   0.308  10.676 -0.6698 -0.1422  0.2613
  186SAPI    H621305   6.306   0.403  10.719 -0.6212  0.4093 -0.9835
  186SAPI    O621306   6.235   0.346  10.538  0.2826  0.6718  0.8602
  186SAPI   HO621307   6.150   0.309  10.512  0.7226  0.6307 -0.6433
  186SAPI   C1121308   6.140   0.267  10.747  0.5500  0.1686  0.1406
  186SAPI    H121309   6.099   0.171  10.710  0.4655 -0.1022  0.9223
  186SAPI     P21310   5.882   0.354  10.757  0.3923 -0.4379  0.4780
  186SAPI   O1321311   5.835   0.491  10.771 -0.3492  0.2608  0.3145
  186SAPI   O1421312   5.847   0.249  10.852  0.3998 -0.1148  0.2320
  186SAPI   O1221313   6.043   0.370  10.741 -0.5082 -0.5339 -0.0837
  186SAPI   O1121314   5.839   0.312  10.607  0.0316  0.1556 -0.1749
  186SAPI    C121315   5.814   0.177  10.571 -0.5851  0.1523  0.3750
  186SAPI    HA21316   5.847   0.102  10.647  1.2754  0.6596  0.1308
  186SAPI    HB21317   5.705   0.161  10.563 -0.9183  1.0335  2.5289
  186SAPI    C221318   5.894   0.129  10.450 -0.6138 -0.5142 -0.4239
  186SAPI    HS21319   5.997   0.159  10.478 -1.5694  0.4758  2.4225
  186SAPI   O2121320   5.854   0.191  10.327  0.5926  0.3955 -0.3036
  186SAPI   C2121321   5.910   0.305  10.308 -0.8110 -0.3368  0.2142
  186SAPI   O2221322   6.004   0.353  10.373  0.5300 -0.2806  0.0497
  186SAPI   C2221323   5.832   0.377  10.198  0.3358 -0.1376 -0.2876
  186SAPI   H2R21324   5.725   0.348  10.203  0.0569  1.0594  1.3369
  186SAPI   H2S21325   5.829   0.485  10.225  1.3175 -0.6458  2.0556
  186SAPI    C321326   5.885  -0.026  10.433  0.3277 -0.4848 -0.2153
  186SAPI    HX21327   5.778  -0.046  10.410  0.1527 -0.5033  0.5958
  186SAPI    HY21328   5.912  -0.082  10.525 -0.9396 -2.2924 -0.8736
  186SAPI   O3121329   5.972  -0.070  10.324  0.4294  0.3324 -1.1597
  186SAPI   C3121330   6.099  -0.081  10.360  0.2173 -0.2388  0.0363
  186SAPI   O3221331   6.142  -0.059  10.473  0.1592  0.1142 -0.2448
  186SAPI   C3221332   6.181  -0.117  10.238 -0.5991  0.4740  0.4383
  186SAPI   H2X21333   6.128  -0.195  10.179 -0.2798  1.5614 -1.3729
  186SAPI   H2Y21334   6.277  -0.167  10.266 -0.9806 -0.4382  0.1711
  186SAPI   C2321335   5.887   0.377  10.057  0.6010 -0.1133  0.4830
  186SAPI   H3R21336   5.991   0.416  10.062 -0.5084  3.1696  0.3257
  186SAPI   H3S21337   5.823   0.447   9.999 -0.1256 -0.7138  0.5343
  186SAPI   C2421338   5.884   0.241   9.981 -0.8733 -0.4197 -0.4271
  186SAPI   H4R21339   5.932   0.162  10.043  2.3913 -0.3334 -2.5769
  186SAPI   H4S21340   5.966   0.254   9.907 -1.1017  1.0369 -0.4497
  186SAPI   C2521341   5.750   0.214   9.917  0.9412 -0.6847  0.1107
  186SAPI   H5R21342   5.690   0.152   9.985  0.6761 -1.9272 -1.2096
  186SAPI   C2621343   5.697   0.246   9.799  0.6349  0.5704 -0.1745
  186SAPI   H6R21344   5.594   0.215   9.773  0.5275  0.6188  0.1955
  186SAPI   C2721345   5.767   0.328   9.694  0.3837 -0.3716 -0.0603
  186SAPI   H7R21346   5.809   0.246   9.631 -0.8265 -0.9463 -0.1412
  186SAPI   H7S21347   5.861   0.378   9.728 -0.3541 -0.6952  2.6140
  186SAPI   C2821348   5.665   0.422   9.617 -0.8463  0.5147  0.1908
  186SAPI   H8R21349   5.625   0.505   9.676  1.4888  0.3902  2.0654
  186SAPI   C2921350   5.613   0.393   9.493 -0.6444  0.0175 -0.1781
  186SAPI   H9R21351   5.545   0.460   9.439 -2.4330 -1.0147  0.6998
  186SAPI  C21021352   5.654   0.279   9.415 -0.5459  0.1474 -0.1678
  186SAPI  H10R21353   5.610   0.195   9.473  0.5018  0.4926  1.1701
  186SAPI  H10S21354   5.762   0.257   9.426 -0.8087 -1.6702 -0.8932
  186SAPI  C21121355   5.616   0.269   9.271 -0.3878  0.3344  0.5944
  186SAPI  H11R21356   5.548   0.189   9.237 -0.5823  0.9507 -0.5235
  186SAPI  C21221357   5.657   0.357   9.174  0.1809  0.4206 -0.2262
  186SAPI  H12R21358   5.635   0.328   9.070 -0.1514 -0.2325  0.0168
  186SAPI  C21321359   5.744   0.478   9.194  0.1336  0.0722  0.1022
  186SAPI  H13R21360   5.813   0.460   9.280  0.6066  0.4080 -0.2029
  186SAPI  H13S21361   5.684   0.568   9.218  0.2872  0.5071 -1.0648
  186SAPI  C21421362   5.820   0.515   9.067  0.6047  0.2141 -0.8544
  186SAPI  H14R21363   5.928   0.526   9.079  0.4691 -0.4394  1.4454
  186SAPI  C21521364   5.770   0.531   8.942  0.3011 -0.5728  0.2428
  186SAPI  H15R21365   5.847   0.545   8.864 -0.4123 -2.3159 -0.8317
  186SAPI  C21621366   5.619   0.536   8.900  0.1348 -0.2700  0.2428
  186SAPI  H16R21367   5.553   0.570   8.983  1.7101  3.1533  0.2600
  186SAPI  H16S21368   5.585   0.435   8.870 -0.0706 -0.0119 -0.4165
  186SAPI  C21721369   5.575   0.631   8.780  0.2334  0.3584  0.7539
  186SAPI  H17R21370   5.605   0.732   8.814 -0.2728  0.7294  0.1139
  186SAPI  H17S21371   5.465   0.624   8.762  0.3764 -0.3276  0.1244
  186SAPI  C21821372   5.646   0.597   8.644  0.6760  0.6193  0.5536
  186SAPI  H18R21373   5.748   0.640   8.649  0.8357  0.3772 -0.3970
  186SAPI  H18S21374   5.590   0.658   8.570 -0.1458 -1.1935 -0.4099
  186SAPI  C21921375   5.662   0.453   8.602 -0.0783 -0.3288 -0.6773
  186SAPI  H19R21376   5.714   0.394   8.681  0.2209 -0.4436 -0.9573
  186SAPI  H19S21377   5.721   0.463   8.508 -1.2740  2.6492 -1.2068
  186SAPI  C22021378   5.527   0.390   8.560  0.8399  0.4716 -0.4131
  186SAPI  H20R21379   5.476   0.446   8.479  1.0293 -0.1641 -0.9874
  186SAPI  H20S21380   5.454   0.386   8.643  1.6088 -1.1359  0.2303
  186SAPI  H20T21381   5.541   0.288   8.517 -2.2998  0.8248 -2.5876
  186SAPI   C3321382   6.209   0.006  10.144 -0.4793  0.3497 -1.0127
  186SAPI   H3X21383   6.116   0.064  10.127  0.1978  1.1977 -1.8620
  186SAPI   H3Y21384   6.241  -0.026  10.043  0.4400 -1.2124 -0.2623
  186SAPI   C3421385   6.318   0.107  10.194  0.4928 -0.1911  0.1369
  186SAPI   H4X21386   6.404   0.051  10.237  0.6359 -1.5776 -1.8083
  186SAPI   H4Y21387   6.282   0.171  10.277 -2.1246 -0.5294 -0.6553
  186SAPI   C3521388   6.383   0.187  10.083  0.0239  0.4071  0.3206
  186SAPI   H5X21389   6.394   0.127   9.990 -2.3190 -0.5694  0.5950
  186SAPI   H5Y21390   6.480   0.224  10.121  0.3597  0.7035 -0.7794
  186SAPI   C3621391   6.299   0.321  10.059  0.5670  0.1453  0.3776
  186SAPI   H6X21392   6.328   0.399  10.133 -0.4369 -0.5976  1.5843
  186SAPI   H6Y21393   6.193   0.288  10.064  1.0381 -1.3954  0.7591
  186SAPI   C3721394   6.322   0.381   9.914  0.2033  0.5347  0.6464
  186SAPI   H7X21395   6.432   0.390   9.924  0.4763 -0.7019 -0.9364
  186SAPI   H7Y21396   6.263   0.476   9.909 -0.3718  0.1548  0.0569
  186SAPI   C3821397   6.271   0.291   9.802  0.4044 -0.5651 -0.2364
  186SAPI   H8X21398   6.172   0.244   9.819  0.5681 -1.5437 -1.7715
  186SAPI   H8Y21399   6.334   0.202   9.783 -1.8580 -2.4809  0.7501
  186SAPI   C3921400   6.236   0.379   9.681 -0.2203  0.6221 -0.3514
  186SAPI   H9X21401   6.171   0.462   9.715 -1.6007 -0.8778  0.8617
  186SAPI   H9Y21402   6.188   0.307   9.612  0.6914 -1.3272  0.9597
  186SAPI  C31021403   6.359   0.444   9.620 -0.3255 -0.3882  0.1623
  186SAPI  H10X21404   6.432   0.370   9.579 -0.6141  1.1767 -3.6350
  186SAPI  H10Y21405   6.410   0.509   9.695  0.2593  0.5353 -0.9991
  186SAPI  C31121406   6.337   0.541   9.500  0.2845 -0.5466 -0.1765
  186SAPI  H11X21407   6.430   0.601   9.491  0.7810 -1.0471  1.3308
  186SAPI  H11Y21408   6.261   0.620   9.520 -1.3246 -2.4022  1.5040
  186SAPI  C31221409   6.306   0.477   9.363 -0.1454 -0.3318 -0.5636
  186SAPI  H12X21410   6.208   0.425   9.356 -0.3769 -0.2737  1.6696
  186SAPI  H12Y21411   6.389   0.407   9.335 -1.1325 -1.5212 -0.5939
  186SAPI  C31321412   6.308   0.578   9.248 -0.2319  0.3394  0.3650
  186SAPI  H13X21413   6.402   0.636   9.235  0.3118 -0.1794  1.7486
  186SAPI  H13Y21414   6.220   0.645   9.261  0.6528  1.7657 -0.8570
  186SAPI  C31421415   6.295   0.518   9.104  0.0854 -0.2668 -0.4575
  186SAPI  H14X21416   6.209   0.448   9.118 -0.4698  0.7189  1.3384
  186SAPI  H14Y21417   6.392   0.471   9.078 -0.6923 -1.6839 -0.9222
  186SAPI  C31521418   6.248   0.621   8.997 -0.3511 -0.3273 -0.5682
  186SAPI  H15X21419   6.325   0.692   8.960  0.3446  0.2164  1.7500
  186SAPI  H15Y21420   6.169   0.684   9.041  2.2008  1.8666  1.1498
  186SAPI  C31621421   6.210   0.548   8.872 -0.4771  0.0477 -0.3577
  186SAPI  H16X21422   6.154   0.454   8.894  0.7361 -1.1274 -1.9828
  186SAPI  H16Y21423   6.294   0.509   8.810 -2.0523 -0.7941 -2.0715
  186SAPI  C31721424   6.115   0.619   8.775  0.6882  0.0483 -0.5163
  186SAPI  H17X21425   6.169   0.706   8.731  1.6722  0.8530  2.0529
  186SAPI  H17Y21426   6.028   0.657   8.833  0.0223 -1.8546 -0.2091
  186SAPI  C31821427   6.068   0.536   8.658  0.0589  0.0858 -0.9113
  186SAPI  H18X21428   5.975   0.490   8.696  0.7115 -1.4508 -1.0875
  186SAPI  H18Y21429   6.139   0.452   8.641  0.9502  0.5111  0.5628
  186SAPI  H18Z21430   6.047   0.588   8.562  0.2265  1.7928 -0.0655
  187SAPI   C1221431   4.460   3.904   6.083  0.2766 -0.3785  0.8648
  187SAPI    H221432   4.462   3.890   6.193 -2.0128 -0.6419  0.9334
  187SAPI    O221433   4.322   3.903   6.046 -0.5956  0.0056  0.8916
  187SAPI   HO221434   4.260   3.900   6.120 -1.0951 -0.3788  0.4573
  187SAPI   C1321435   4.534   4.037   6.064  0.2357  0.1500  0.1709
  187SAPI    H321436   4.631   4.027   6.116 -0.4824  1.3714  1.8249
  187SAPI    O321437   4.460   4.141   6.131 -0.0176  0.2674 -0.1456
  187SAPI   HO321438   4.404   4.183   6.066  2.1002  1.4601 -1.3134
  187SAPI   C1421439   4.559   4.063   5.917 -0.2235  0.1428  0.0854
  187SAPI    H421440   4.462   4.073   5.864 -2.0643  0.3078  3.2707
  187SAPI    O421441   4.633   4.187   5.890 -0.5476 -0.2433  0.2589
  187SAPI   HO421442   4.588   4.265   5.922  0.6926  0.2610  0.8626
  187SAPI   C1521443   4.621   3.943   5.846  0.6855  0.4644 -0.0037
  187SAPI    H521444   4.713   3.919   5.904 -0.2018 -0.8379  0.9247
  187SAPI    O521445   4.660   3.970   5.712 -0.5350 -0.1712 -0.3503
  187SAPI   HO521446   4.754   3.948   5.712 -0.5749 -0.3398 -0.6453
  187SAPI   C1621447   4.544   3.813   5.865  0.1941  0.5819 -0.0460
  187SAPI    H621448   4.438   3.825   5.834  0.1700  5.2438  1.1247
  187SAPI    O621449   4.598   3.703   5.793 -0.3056 -0.4019  0.1200
  187SAPI   HO621450   4.648   3.643   5.849 -2.2460 -2.7767 -0.5065
  187SAPI   C1121451   4.532   3.787   6.011  0.4457  0.0711  0.0051
  187SAPI    H121452   4.635   3.805   6.050  0.4280  0.3672 -0.0814
  187SAPI     P21453   4.562   3.524   6.070 -0.0297 -0.3203  0.1350
  187SAPI   O1321454   4.695   3.546   6.005 -0.0228 -0.1311 -0.7349
  187SAPI   O1421455   4.481   3.412   6.013 -0.0760  0.8859  0.1370
  187SAPI   O1221456   4.476   3.663   6.052 -0.0269  0.1070 -0.4930
  187SAPI   O1121457   4.579   3.511   6.229 -0.0739 -0.5726  0.1432
  187SAPI    C121458   4.680   3.589   6.302 -0.1774  0.0987  0.6021
  187SAPI    HA21459   4.761   3.517   6.328 -0.4529  1.2166  5.3575
  187SAPI    HB21460   4.712   3.682   6.249 -0.3144  0.6780  1.5218
  187SAPI    C221461   4.618   3.652   6.427 -0.4599 -0.1023  0.4002
  187SAPI    HS21462   4.598   3.568   6.496 -0.6445  1.0515  1.8140
  187SAPI   O2121463   4.501   3.723   6.400 -0.0179  0.3645  0.1762
  187SAPI   C2121464   4.388   3.670   6.430  0.4667 -0.2063  0.5604
  187SAPI   O2221465   4.366   3.556   6.459 -0.2389 -0.3865  0.1720
  187SAPI   C2221466   4.269   3.772   6.398 -0.5152 -0.1411 -0.4848
  187SAPI   H2R21467   4.308   3.875   6.413  0.3296 -0.0685 -2.7913
  187SAPI   H2S21468   4.241   3.754   6.291 -1.4204  1.6337 -0.5807
  187SAPI    C321469   4.736   3.737   6.495 -0.3032 -0.3125  0.2316
  187SAPI    HX21470   4.731   3.835   6.442 -0.2256 -0.3447  0.1627
  187SAPI    HY21471   4.832   3.694   6.458  1.5156  4.1174 -0.8476
  187SAPI   O3121472   4.728   3.753   6.639  0.4513 -0.1736 -0.3330
  187SAPI   C3121473   4.779   3.656   6.709 -0.3865  0.3574 -0.2967
  187SAPI   O3221474   4.863   3.575   6.664  0.3998  0.1534  0.0355
  187SAPI   C3221475   4.715   3.649   6.845 -0.1359 -0.2879 -0.3189
  187SAPI   H2X21476   4.717   3.751   6.890  0.1985 -0.3393 -0.2105
  187SAPI   H2Y21477   4.778   3.576   6.901  0.0205 -0.3868 -0.6206
  187SAPI   C2321478   4.147   3.748   6.490 -0.4355 -0.3632  0.4032
  187SAPI   H3R21479   4.106   3.648   6.464 -1.0901  0.4765 -2.0475
  187SAPI   H3S21480   4.079   3.823   6.445  1.7508  1.2980 -0.3248
  187SAPI   C2421481   4.173   3.761   6.644  0.4678  0.2789  0.8726
  187SAPI   H4R21482   4.222   3.861   6.653 -2.2388  2.0798 -2.2705
  187SAPI   H4S21483   4.241   3.677   6.672 -1.4363 -1.0760  1.6111
  187SAPI   C2521484   4.035   3.747   6.708  1.1210  0.1828  0.0366
  187SAPI   H5R21485   3.965   3.695   6.642 -1.0963  0.2437  2.2060
  187SAPI   C2621486   3.994   3.786   6.835  0.0977 -0.0061 -0.0716
  187SAPI   H6R21487   3.889   3.766   6.861  0.1721 -0.2296  0.0689
  187SAPI   C2721488   4.077   3.856   6.940  0.8450 -0.5021 -0.1782
  187SAPI   H7R21489   4.151   3.915   6.881  2.2292 -0.9338  1.0571
  187SAPI   H7S21490   4.134   3.785   7.003  0.5628 -0.1892  0.4368
  187SAPI   C2821491   4.001   3.952   7.028 -0.2409 -0.2609  0.2883
  187SAPI   H8R21492   3.988   4.051   6.982  1.8244 -0.1828 -0.2303
  187SAPI   C2921493   3.927   3.927   7.137 -0.2856  0.0695 -0.5557
  187SAPI   H9R21494   3.878   4.011   7.189 -0.7305  0.5368 -1.6928
  187SAPI  C21021495   3.913   3.795   7.200  0.2975 -0.1215 -0.0946
  187SAPI  H10R21496   3.962   3.782   7.299  0.6079  0.6694 -0.1360
  187SAPI  H10S21497   3.988   3.729   7.150  0.8524 -0.6434  1.3768
  187SAPI  C21121498   3.783   3.715   7.184 -0.6386  0.0143  0.0080
  187SAPI  H11R21499   3.763   3.686   7.080 -0.9447  1.2048 -0.2874
  187SAPI  C21221500   3.699   3.676   7.280  0.0034 -0.0029 -0.5029
  187SAPI  H12R21501   3.603   3.631   7.251 -0.0931 -0.2693  0.2098
  187SAPI  C21321502   3.720   3.697   7.426 -0.0746  0.0072  0.6874
  187SAPI  H13R21503   3.813   3.642   7.453  0.0224 -1.4605 -2.2005
  187SAPI  H13S21504   3.639   3.637   7.472  1.5962 -2.2300  0.8938
  187SAPI  C21421505   3.725   3.831   7.488  0.1958 -0.5482 -0.0823
  187SAPI  H14R21506   3.713   3.916   7.419  1.1974 -0.9362 -0.7558
  187SAPI  C21521507   3.697   3.861   7.615  0.4347 -0.3884  0.6432
  187SAPI  H15R21508   3.703   3.968   7.638  1.1015 -0.2655 -0.0319
  187SAPI  C21621509   3.678   3.763   7.727 -0.6048 -0.3221 -0.3405
  187SAPI  H16R21510   3.668   3.664   7.678 -0.2434 -0.4222 -0.2186
  187SAPI  H16S21511   3.585   3.778   7.785 -0.2347 -1.6746  0.6376
  187SAPI  C21721512   3.800   3.741   7.828  0.5005  0.6561  0.2171
  187SAPI  H17R21513   3.801   3.839   7.879 -0.6148 -0.0484  1.6439
  187SAPI  H17S21514   3.894   3.736   7.768  0.6088  0.9544  0.3595
  187SAPI  C21821515   3.780   3.622   7.929 -0.2438 -0.2151  0.4193
  187SAPI  H18R21516   3.862   3.623   8.004  0.8611  2.5564 -0.6828
  187SAPI  H18S21517   3.792   3.531   7.866  1.0110  1.7401 -2.3636
  187SAPI  C21921518   3.651   3.626   8.008  0.3502 -0.2792  0.3187
  187SAPI  H19R21519   3.644   3.536   8.073 -0.9107  0.3692  1.1165
  187SAPI  H19S21520   3.571   3.617   7.931  0.3131 -1.3351  0.4736
  187SAPI  C22021521   3.635   3.751   8.095  0.5177 -0.2854  0.1129
  187SAPI  H20R21522   3.699   3.744   8.186  0.0855 -1.8918  0.3244
  187SAPI  H20S21523   3.530   3.748   8.131  0.0340 -0.6729 -1.2901
  187SAPI  H20T21524   3.655   3.845   8.040 -1.8181 -0.8392 -1.8241
  187SAPI   C3321525   4.569   3.600   6.848 -0.0864 -0.6614  0.8912
  187SAPI   H3X21526   4.551   3.523   6.770 -0.4352  0.1512  0.1521
  187SAPI   H3Y21527   4.505   3.686   6.818  0.2182 -1.1252 -1.2301
  187SAPI   C3421528   4.519   3.558   6.988  0.3269  0.7284  0.0407
  187SAPI   H4X21529   4.419   3.512   6.973  0.1366  1.4136 -0.9675
  187SAPI   H4Y21530   4.497   3.641   7.059 -1.6462 -0.7647  1.2877
  187SAPI   C3521531   4.615   3.458   7.062  0.4618 -0.0430 -0.5762
  187SAPI   H5X21532   4.689   3.523   7.115 -0.2350  0.8388 -0.6609
  187SAPI   H5Y21533   4.675   3.389   6.999  0.3024 -1.0013  0.2951
  187SAPI   C3621534   4.532   3.385   7.174  0.3506 -0.5561 -0.2735
  187SAPI   H6X21535   4.458   3.315   7.129 -0.5454 -0.7276  1.3930
  187SAPI   H6Y21536   4.477   3.468   7.224  3.0048 -0.1542  2.2276
  187SAPI   C3721537   4.611   3.296   7.261  0.7219 -1.2174  0.0897
  187SAPI   H7X21538   4.689   3.358   7.311 -1.6462  0.3406  2.1648
  187SAPI   H7Y21539   4.663   3.213   7.209  0.8743 -1.2464  0.2848
  187SAPI   C3821540   4.530   3.236   7.381 -0.2399  0.2634 -0.3174
  187SAPI   H8X21541   4.505   3.131   7.353  3.0709 -0.6569 -0.3015
  187SAPI   H8Y21542   4.436   3.293   7.391  0.6115  1.8294 -0.9741
  187SAPI   C3921543   4.609   3.249   7.514 -0.4192  0.3912  0.3038
  187SAPI   H9X21544   4.625   3.354   7.548 -1.2243  0.2650  1.0955
  187SAPI   H9Y21545   4.711   3.208   7.495 -0.7352 -0.1472 -0.2623
  187SAPI  C31021546   4.546   3.173   7.627 -0.3163 -0.0689 -0.0665
  187SAPI  H10X21547   4.501   3.080   7.587  0.3460 -0.0382 -0.8995
  187SAPI  H10Y21548   4.473   3.243   7.673  2.1297  1.9408  0.9762
  187SAPI  C31121549   4.636   3.146   7.752 -0.2116  0.5841 -0.5797
  187SAPI  H11X21550   4.706   3.228   7.778  1.6370 -1.7626  2.6003
  187SAPI  H11Y21551   4.703   3.062   7.722  2.3010  1.8197  1.1624
  187SAPI  C31221552   4.580   3.106   7.888  0.1617 -0.2028  0.4235
  187SAPI  H12X21553   4.521   3.012   7.883 -2.4592  1.3317  0.3677
  187SAPI  H12Y21554   4.516   3.188   7.927  0.7751  1.0084 -1.0109
  187SAPI  C31321555   4.698   3.075   7.972  0.0425  0.1324 -0.3512
  187SAPI  H13X21556   4.763   3.004   7.917 -1.9484 -0.4466 -2.1228
  187SAPI  H13Y21557   4.655   3.011   8.052 -1.7278 -1.1216 -2.1957
  187SAPI  C31421558   4.775   3.185   8.041 -0.4646 -0.3563 -0.4183
  187SAPI  H14X21559   4.830   3.252   7.971  1.7087 -0.5410  1.0442
  187SAPI  H14Y21560   4.847   3.136   8.109 -0.9392 -3.7301 -2.1325
  187SAPI  C31521561   4.689   3.273   8.138 -0.1230 -0.4005 -0.9976
  187SAPI  H15X21562   4.638   3.210   8.213  0.9875  0.4060  0.5034
  187SAPI  H15Y21563   4.607   3.321   8.081  1.5870  1.8860 -1.7194
  187SAPI  C31621564   4.766   3.371   8.226  0.0198 -0.0199  0.3850
  187SAPI  H16X21565   4.701   3.424   8.299  0.0343 -1.4935  1.5133
  187SAPI  H16Y21566   4.821   3.445   8.164 -0.8484 -2.8167 -4.2408
  187SAPI  C31721567   4.857   3.298   8.319  0.2845  0.5166  0.5396
  187SAPI  H17X21568   4.946   3.259   8.265  1.0424  1.6681  0.9127
  187SAPI  H17Y21569   4.802   3.214   8.368 -0.4146 -0.4760 -1.8153
  187SAPI  C31821570   4.908   3.385   8.429 -0.0282 -0.4464 -0.3109
  187SAPI  H18X21571   4.970   3.470   8.394  0.2980 -0.4329  0.2909
  187SAPI  H18Y21572   4.972   3.324   8.496  1.4537  1.6669  0.2974
  187SAPI  H18Z21573   4.820   3.420   8.488  0.4224 -1.2459  0.8821
  188SAPI   C1221574   0.084   6.654   5.974  0.3406  0.2583 -0.4459
  188SAPI    H221575   0.193   6.655   5.995  0.0979  0.3242  0.8353
  188SAPI    O221576   0.069   6.779   5.900  0.5313 -0.3358  0.4396
  188SAPI   HO221577   0.083   6.849   5.964  5.9366 -0.5268 -0.0579
  188SAPI   C1321578   0.049   6.532   5.891 -0.0671  0.2657 -0.3743
  188SAPI    H321579   0.059   6.439   5.951 -0.6182  0.5486  0.1705
  188SAPI    O321580   0.139   6.532   5.781  0.3788  0.2529 -0.1773
  188SAPI   HO321581   0.135   6.618   5.739  2.7517  1.6280  2.1285
  188SAPI   C1421582  -0.098   6.534   5.860 -0.4113  0.1011  0.1738
  188SAPI    H421583  -0.122   6.624   5.800 -2.9309 -0.9744 -0.6009
  188SAPI    O421584  -0.134   6.425   5.777  0.4171  0.4159 -0.1368
  188SAPI   HO421585  -0.086   6.412   5.695 -0.4479 -3.3184 -0.2372
  188SAPI   C1521586  -0.180   6.532   5.997 -0.0850  0.4021  0.5329
  188SAPI    H521587  -0.157   6.443   6.060 -3.0115 -0.2958  0.7261
  188SAPI    O521588  -0.319   6.525   5.967 -0.7561  0.0572 -0.2555
  188SAPI   HO521589  -0.327   6.486   5.880 -1.2179 -1.6780  0.5323
  188SAPI   C1621590  -0.145   6.663   6.071  0.6353  0.5220  0.0648
  188SAPI    H621591  -0.167   6.750   6.006  2.7229  1.4250  0.4578
  188SAPI    O621592  -0.214   6.668   6.196  0.1885  0.1134 -0.0361
  188SAPI   HO621593  -0.182   6.745   6.244  0.7710 -0.1663  0.0212
  188SAPI   C1121594  -0.002   6.658   6.100 -0.2815 -0.3510  0.1016
  188SAPI    H121595   0.016   6.562   6.153  0.6454 -0.0907  0.2805
  188SAPI     P21596   0.182   6.757   6.268  0.5956  0.4067 -0.5274
  188SAPI   O1321597   0.257   6.886   6.263 -0.0204  0.1861  0.0226
  188SAPI   O1421598   0.250   6.627   6.241 -0.1123 -0.5931 -0.1309
  188SAPI   O1221599   0.043   6.775   6.175  0.3013 -0.2037 -1.0510
  188SAPI   O1121600   0.132   6.737   6.410  0.4316  0.6657 -0.3369
  188SAPI    C121601   0.192   6.749   6.534 -0.2396 -0.0011 -0.4063
  188SAPI    HA21602   0.276   6.821   6.527  1.3613 -1.8578 -1.1124
  188SAPI    HB21603   0.121   6.795   6.606  0.3606  3.6498 -1.9683
  188SAPI    C221604   0.242   6.610   6.593  0.4528 -0.3258  0.7635
  188SAPI    HS21605   0.172   6.540   6.543 -0.4094  1.4461 -0.6408
  188SAPI   O2121606   0.229   6.624   6.732 -0.2197 -0.0839  0.4927
  188SAPI   C2121607   0.209   6.498   6.787  0.5443 -0.3245  0.2993
  188SAPI   O2221608   0.204   6.394   6.727 -0.1533  0.0554  0.1355
  188SAPI   C2221609   0.205   6.510   6.937 -0.0761  0.0563  0.2793
  188SAPI   H2R21610   0.294   6.455   6.974  0.3099  0.8154  0.5128
  188SAPI   H2S21611   0.217   6.617   6.965  0.6857 -0.5722  2.5590
  188SAPI    C321612   0.387   6.568   6.548 -0.1498 -0.7436  0.1007
  188SAPI    HX21613   0.394   6.577   6.437  0.4086  0.3779  0.2085
  188SAPI    HY21614   0.389   6.460   6.571 -0.8946 -0.9919 -0.9093
  188SAPI   O3121615   0.495   6.644   6.615  0.7207  0.7614  0.8888
  188SAPI   C3121616   0.540   6.599   6.724  0.0632  0.2325 -0.2665
  188SAPI   O3221617   0.493   6.511   6.796  0.0543 -0.1437  0.1115
  188SAPI   C3221618   0.664   6.694   6.761 -0.4234  0.8868  0.1560
  188SAPI   H2X21619   0.616   6.786   6.802  1.4893  1.1388  1.9880
  188SAPI   H2Y21620   0.726   6.716   6.672 -1.3545 -1.1915 -1.0598
  188SAPI   C2321621   0.068   6.457   6.998  0.3329 -0.4535  0.1325
  188SAPI   H3R21622   0.044   6.355   6.961  1.0943 -0.2738 -0.9067
  188SAPI   H3S21623  -0.004   6.527   6.949  1.8704 -0.2202 -1.9209
  188SAPI   C2421624   0.066   6.456   7.154  0.2095  0.2808  0.3524
  188SAPI   H4R21625   0.156   6.395   7.176  1.2249  1.0177 -1.5241
  188SAPI   H4S21626  -0.017   6.390   7.186  0.3175 -0.8597 -1.5607
  188SAPI   C2521627   0.064   6.588   7.224  0.2168 -1.1467 -0.0398
  188SAPI   H5R21628  -0.036   6.634   7.233  0.1984 -1.3440  0.7829
  188SAPI   C2621629   0.158   6.653   7.293  0.7491 -0.3522 -0.3200
  188SAPI   H6R21630   0.128   6.742   7.351 -2.5369 -2.0809  0.8507
  188SAPI   C2721631   0.305   6.609   7.316 -0.1322 -0.3067 -0.1771
  188SAPI   H7R21632   0.368   6.640   7.231 -1.1881  1.4592 -0.3658
  188SAPI   H7S21633   0.318   6.499   7.322  0.0970 -0.2828 -0.2496
  188SAPI   C2821634   0.375   6.675   7.436  0.2694  0.0423 -0.0575
  188SAPI   H8R21635   0.324   6.765   7.472 -1.8615 -1.5546  1.1824
  188SAPI   C2921636   0.495   6.638   7.485 -0.0826  0.1535  0.4310
  188SAPI   H9R21637   0.540   6.713   7.551 -2.1142  1.0827  0.8522
  188SAPI  C21021638   0.583   6.520   7.438  0.1706  0.1046 -0.0865
  188SAPI  H10R21639   0.533   6.490   7.343 -0.1872  0.1332  0.0920
  188SAPI  H10S21640   0.567   6.436   7.508 -2.0882  1.1395  0.7175
  188SAPI  C21121641   0.729   6.545   7.411 -0.7121 -0.5794 -1.0706
  188SAPI  H11R21642   0.761   6.546   7.306 -2.8861 -1.1213 -1.7853
  188SAPI  C21221643   0.821   6.560   7.509  0.1662  0.4633  0.2064
  188SAPI  H12R21644   0.921   6.590   7.474  0.6286 -0.7961  0.4076
  188SAPI  C21321645   0.791   6.559   7.656  0.3097 -0.0944 -0.3564
  188SAPI  H13R21646   0.870   6.500   7.709  0.4039 -1.3898 -1.8576
  188SAPI  H13S21647   0.704   6.495   7.682  1.4144 -0.3044  3.5332
  188SAPI  C21421648   0.783   6.703   7.709  0.4513  0.2096  0.0396
  188SAPI  H14R21649   0.828   6.777   7.640  1.1351 -1.8307 -1.8153
  188SAPI  C21521650   0.733   6.739   7.827 -0.1424 -0.0537 -0.1870
  188SAPI  H15R21651   0.732   6.845   7.855 -0.4282 -0.3316  0.9309
  188SAPI  C21621652   0.678   6.644   7.925  0.0197 -0.8790 -0.2223
  188SAPI  H16R21653   0.673   6.542   7.883  0.5207 -1.0230  0.0608
  188SAPI  H16S21654   0.579   6.680   7.961  0.0839  0.2414 -1.1299
  188SAPI  C21721655   0.767   6.627   8.051  0.1906  0.0786  0.3819
  188SAPI  H17R21656   0.874   6.607   8.028  0.6081 -0.3868  2.4647
  188SAPI  H17S21657   0.721   6.545   8.110 -0.1298 -0.1419 -0.1749
  188SAPI  C21821658   0.760   6.749   8.142 -0.0266  0.0847 -0.5665
  188SAPI  H18R21659   0.662   6.745   8.195  0.4814  0.4582  0.4261
  188SAPI  H18S21660   0.762   6.842   8.080  1.8061  0.0326 -0.6393
  188SAPI  C21921661   0.879   6.757   8.233  0.1162  0.5306 -0.4455
  188SAPI  H19R21662   0.969   6.767   8.169  0.1649 -0.2362 -0.5005
  188SAPI  H19S21663   0.884   6.665   8.295  3.0693  0.0818 -1.1911
  188SAPI  C22021664   0.873   6.877   8.326 -0.3664 -0.1368  0.3167
  188SAPI  H20R21665   0.782   6.873   8.390 -1.3617  1.7738 -0.8764
  188SAPI  H20S21666   0.867   6.968   8.262  0.4726  0.9522  1.7004
  188SAPI  H20T21667   0.968   6.884   8.384  0.6375  0.0968 -1.2850
  188SAPI   C3321668   0.742   6.633   6.878  0.6881  0.0378 -0.0491
  188SAPI   H3X21669   0.778   6.528   6.863 -2.5151 -1.0993 -0.5383
  188SAPI   H3Y21670   0.677   6.640   6.967  0.9028  0.8508  0.0518
  188SAPI   C3421671   0.862   6.722   6.905  0.0882  0.3380  0.2852
  188SAPI   H4X21672   0.846   6.819   6.854 -0.8364  0.1179  0.1464
  188SAPI   H4Y21673   0.948   6.677   6.852  1.2098  0.2792  2.0521
  188SAPI   C3521674   0.890   6.731   7.053  0.7257 -0.3901  0.1900
  188SAPI   H5X21675   0.888   6.628   7.095  1.0642 -0.2785  0.4811
  188SAPI   H5Y21676   0.806   6.783   7.102  0.1783 -1.1770  0.1058
  188SAPI   C3621677   1.021   6.798   7.085 -0.6882  0.4951  0.6035
  188SAPI   H6X21678   1.018   6.908   7.070 -2.9799  0.3525 -0.4753
  188SAPI   H6Y21679   1.102   6.755   7.022 -1.5592 -0.0154 -0.2009
  188SAPI   C3721680   1.046   6.775   7.232  0.0457  0.1915  0.3480
  188SAPI   H7X21681   1.045   6.666   7.250  1.8491  0.1945  0.6920
  188SAPI   H7Y21682   0.974   6.829   7.296 -1.6985  0.1654 -1.4994
  188SAPI   C3821683   1.188   6.821   7.269 -0.3458  0.2375  0.2045
  188SAPI   H8X21684   1.215   6.911   7.210  0.2408  0.4184  0.7293
  188SAPI   H8Y21685   1.255   6.741   7.231 -1.3183 -0.0807 -0.8869
  188SAPI   C3921686   1.204   6.860   7.411  0.4111 -0.2114 -0.2697
  188SAPI   H9X21687   1.126   6.931   7.446  2.4769  0.5333  3.2366
  188SAPI   H9Y21688   1.305   6.903   7.427  1.0519 -1.6813 -0.2072
  188SAPI  C31021689   1.205   6.732   7.503  0.6483  0.1551  0.1279
  188SAPI  H10X21690   1.286   6.668   7.463  0.3090  0.0689 -0.4180
  188SAPI  H10Y21691   1.111   6.676   7.486  0.4996  0.2439  0.6393
  188SAPI  C31121692   1.228   6.767   7.652 -0.8763 -0.6878  0.4323
  188SAPI  H11X21693   1.171   6.854   7.690 -0.9538 -0.6875  0.3178
  188SAPI  H11Y21694   1.335   6.789   7.669 -1.8490  2.5464  3.2984
  188SAPI  C31221695   1.195   6.643   7.744  0.0826  0.1877 -0.1641
  188SAPI  H12X21696   1.267   6.564   7.714 -0.2039 -0.9761  2.0301
  188SAPI  H12Y21697   1.089   6.614   7.729 -0.0875 -0.5830  2.1394
  188SAPI  C31321698   1.209   6.668   7.894  0.1198 -0.5927  0.6578
  188SAPI  H13X21699   1.120   6.723   7.930  0.6770 -0.9885  2.7886
  188SAPI  H13Y21700   1.303   6.723   7.913 -1.3734  1.6877  1.8635
  188SAPI  C31421701   1.211   6.533   7.980  0.3598 -0.0288  0.5099
  188SAPI  H14X21702   1.300   6.469   7.965  1.8433  1.8937  0.6345
  188SAPI  H14Y21703   1.118   6.479   7.954  0.7126 -0.0113 -0.8896
  188SAPI  C31521704   1.209   6.566   8.129  0.3654  0.1449 -0.1084
  188SAPI  H15X21705   1.121   6.625   8.163 -0.7453 -1.3434 -0.2687
  188SAPI  H15Y21706   1.305   6.619   8.148  0.3211  1.2590 -2.6399
  188SAPI  C31621707   1.219   6.435   8.201 -0.2039  0.2410 -0.3737
  188SAPI  H16X21708   1.328   6.416   8.192  0.2303  0.0481  3.6193
  188SAPI  H16Y21709   1.158   6.363   8.143 -0.4703 -0.8922  1.2497
  188SAPI  C31721710   1.173   6.450   8.343 -0.2808  0.1632 -0.6204
  188SAPI  H17X21711   1.067   6.483   8.339  0.6504  3.8462  0.6327
  188SAPI  H17Y21712   1.242   6.529   8.380  1.0435 -0.6934 -1.1733
  188SAPI  C31821713   1.191   6.324   8.427 -0.3587 -0.1459 -0.0880
  188SAPI  H18X21714   1.199   6.359   8.533 -1.1901 -0.0108 -0.0574
  188SAPI  H18Y21715   1.287   6.278   8.398  0.7703  3.0749 -2.0061
  188SAPI  H18Z21716   1.107   6.251   8.422 -3.0083  2.7332 -1.5456
  189POPC     N21717   2.154   4.868  10.780  0.1451  0.8041  0.5697
  189POPC   C1221718   2.005   4.867  10.756 -0.0940 -0.1530 -0.4779
  189POPC  H12A21719   1.962   4.966  10.749 -2.6978 -1.1654 -0.0544
  189POPC  H12B21720   1.960   4.840  10.851 -1.4405  1.7713 -0.5095
  189POPC   C1321721   2.216   4.915  10.651  0.3210 -0.6204 -0.3269
  189POPC  H13A21722   2.193   4.844  10.573  1.2491 -0.7855 -0.4619
  189POPC  H13B21723   2.173   5.009  10.622  0.8535  0.3736  1.8811
  189POPC  H13C21724   2.324   4.914  10.655  0.2845 -0.5337  0.9739
  189POPC   C1421725   2.191   4.959  10.887  0.5136  0.9619 -0.7947
  189POPC  H14A21726   2.294   4.946  10.917  0.0966  1.1215  0.7616
  189POPC  H14B21727   2.168   5.059  10.852 -0.1069  0.8388 -0.7526
  189POPC  H14C21728   2.136   4.947  10.979  1.2037  1.9540 -0.2350
  189POPC   C1521729   2.203   4.732  10.816  0.0312  0.3022 -0.1609
  189POPC  H15A21730   2.307   4.718  10.792 -0.7407 -0.5219 -3.4233
  189POPC  H15B21731   2.166   4.657  10.748  0.7541  0.3188 -0.5803
  189POPC  H15C21732   2.175   4.698  10.915 -2.5729  0.3952 -0.7722
  189POPC   C1121733   1.951   4.778  10.639 -0.5485  0.0319 -0.3708
  189POPC  H11A21734   1.990   4.810  10.540 -2.9970  1.2050 -1.0159
  189POPC  H11B21735   1.842   4.792  10.623 -0.3499 -1.5258 -4.2460
  189POPC     P21736   1.863   4.541  10.673  0.0668  0.3961  0.1763
  189POPC   O1321737   1.766   4.597  10.766 -0.0012  0.3591  0.0189
  189POPC   O1421738   1.915   4.405  10.683  0.6253  0.7154 -0.3007
  189POPC   O1221739   1.986   4.639  10.661  0.5214 -0.3026 -0.0501
  189POPC   O1121740   1.796   4.569  10.527  0.2981 -0.0617  0.0944
  189POPC    C121741   1.831   4.468  10.434  0.5347 -0.3310  0.9760
  189POPC    HA21742   1.787   4.369  10.459  0.1300 -0.3149  0.3656
  189POPC    HB21743   1.940   4.452  10.425  0.2631 -1.1498 -1.8339
  189POPC    C221744   1.791   4.518  10.293  0.4674  0.3018 -0.9287
  189POPC    HS21745   1.680   4.516  10.288  0.5000 -0.3922 -1.5127
  189POPC   O2121746   1.848   4.440  10.190 -0.3610  0.8309 -0.1519
  189POPC   C2121747   1.785   4.322  10.174 -0.2675  0.5722  0.5118
  189POPC   O2221748   1.686   4.287  10.241 -0.6934  0.0989  0.2334
  189POPC   C2221749   1.855   4.228  10.063  0.9952  0.5659 -0.1346
  189POPC   H2R21750   1.805   4.129  10.061  2.1806 -0.0253 -1.2501
  189POPC   H2S21751   1.960   4.215  10.096  0.6633 -0.4179  0.5840
  189POPC    C321752   1.826   4.668  10.265 -0.0511 -0.1560 -0.3196
  189POPC    HX21753   1.937   4.674  10.263 -0.0006 -0.9270 -0.2913
  189POPC    HY21754   1.778   4.728  10.345  0.6738  0.6955 -0.5097
  189POPC   O3121755   1.790   4.710  10.128 -0.2909  0.9968 -0.8421
  189POPC   C3121756   1.846   4.822  10.088 -0.5254  0.1327 -0.1245
  189POPC   O3221757   1.943   4.878  10.147  0.0279 -0.0330 -0.5231
  189POPC   C3221758   1.772   4.872   9.965 -0.3479 -0.0555  0.4809
  189POPC   H2X21759   1.806   4.976   9.943 -0.4236  0.1173  1.1475
  189POPC   H2Y21760   1.667   4.883   9.998 -0.3290  2.2408 -0.0501
  189POPC   C2321761   1.851   4.300   9.926 -0.4652  0.3791 -0.9591
  189POPC   H3R21762   1.935   4.267   9.861 -1.5848 -0.6142 -1.9779
  189POPC   H3S21763   1.859   4.409   9.945 -1.4195  0.8375 -2.8696
  189POPC   C2421764   1.727   4.262   9.845 -0.0281  0.9784 -0.0152
  189POPC   H4R21765   1.639   4.281   9.909  0.4284  0.0392  0.9147
  189POPC   H4S21766   1.739   4.153   9.828 -0.9220  0.9241 -0.3185
  189POPC   C2521767   1.715   4.335   9.712 -0.1565 -0.0015 -0.6506
  189POPC   H5R21768   1.753   4.438   9.728  1.0854 -0.6338  0.7605
  189POPC   H5S21769   1.607   4.332   9.687 -0.5839 -3.1056  1.0544
  189POPC   C2621770   1.814   4.282   9.612  0.3799 -0.3371 -0.0552
  189POPC   H6R21771   1.782   4.182   9.574  0.7106  0.0711 -1.4783
  189POPC   H6S21772   1.916   4.263   9.652  0.5095  2.5383  1.1754
  189POPC   C2721773   1.839   4.373   9.493  0.1392 -0.0762  1.1560
  189POPC   H7R21774   1.921   4.339   9.426  0.6167  0.2351  1.5787
  189POPC   H7S21775   1.877   4.472   9.526  0.3338  0.6185 -1.0541
  189POPC   C2821776   1.716   4.398   9.407 -0.0489 -0.7765 -0.0366
  189POPC   H8R21777   1.745   4.475   9.332  0.3709 -0.0353  0.8680
  189POPC   H8S21778   1.639   4.450   9.468 -2.8946 -4.0524 -0.5892
  189POPC   C2921779   1.655   4.280   9.343 -0.4275 -0.1641 -0.5415
  189POPC   H9121780   1.555   4.253   9.380  0.4223  0.0480  2.1109
  189POPC  C21021781   1.700   4.203   9.237  0.3062  0.3812 -0.0377
  189POPC  H10121782   1.627   4.129   9.203  0.5066  0.5622 -0.8777
  189POPC  C21121783   1.826   4.216   9.159 -0.0922 -0.2430  0.6360
  189POPC  H11R21784   1.884   4.121   9.163 -0.4830 -0.4693  0.9505
  189POPC  H11S21785   1.890   4.291   9.211 -0.4264 -0.7038  1.7364
  189POPC  C21221786   1.800   4.255   9.014 -0.0087 -0.0483  0.5188
  189POPC  H12R21787   1.900   4.283   8.976  0.2274  0.5874  1.5699
  189POPC  H12S21788   1.729   4.340   9.016 -0.0065  0.0355 -1.4830
  189POPC  C21321789   1.744   4.141   8.927 -0.8839 -0.2137  0.0874
  189POPC  H13R21790   1.636   4.137   8.953 -1.2707 -1.0134 -1.4906
  189POPC  H13S21791   1.797   4.045   8.943  0.8407  0.5182 -1.0000
  189POPC  C21421792   1.744   4.192   8.780 -0.2557 -0.3518  0.1098
  189POPC  H14R21793   1.839   4.246   8.766  2.0546 -4.4255 -1.7434
  189POPC  H14S21794   1.655   4.258   8.776 -0.5693 -0.6490  1.5180
  189POPC  C21521795   1.728   4.087   8.672  1.1133  0.0409 -0.2966
  189POPC  H15R21796   1.628   4.040   8.679 -0.4828  2.4771 -3.8573
  189POPC  H15S21797   1.810   4.012   8.681  1.7155  0.4704 -1.8367
  189POPC  C21621798   1.736   4.151   8.535 -0.3094 -0.3969 -0.1620
  189POPC  H16R21799   1.771   4.082   8.456 -0.0037 -1.7653  1.1349
  189POPC  H16S21800   1.812   4.232   8.538  0.9485 -1.5892  2.0655
  189POPC  C21721801   1.599   4.204   8.497 -0.2904  0.5868  0.3706
  189POPC  H17R21802   1.606   4.285   8.421  2.5526  1.6947  1.6690
  189POPC  H17S21803   1.557   4.256   8.586  1.9412 -2.2859  3.3168
  189POPC  C21821804   1.503   4.087   8.444  0.3020 -0.5435 -0.1954
  189POPC  H18R21805   1.478   4.024   8.532 -0.6129 -2.4687 -1.7482
  189POPC  H18S21806   1.555   4.022   8.370  0.3628 -0.5394 -0.1567
  189POPC  H18T21807   1.404   4.112   8.401  0.2066 -0.1669  0.2269
  189POPC   C3321808   1.778   4.781   9.842 -0.9034 -0.5015  0.2220
  189POPC   H3X21809   1.680   4.796   9.791 -0.1635  0.0355 -1.0774
  189POPC   H3Y21810   1.788   4.675   9.873 -0.8034 -1.0639 -1.6277
  189POPC   C3421811   1.880   4.794   9.735  0.4304  0.4906  0.3845
  189POPC   H4X21812   1.875   4.704   9.670  1.1057 -0.3584  1.4667
  189POPC   H4Y21813   1.982   4.811   9.777  1.2204  0.6364 -1.4734
  189POPC   C3521814   1.855   4.911   9.630  0.3695  0.9889 -0.1738
  189POPC   H5X21815   1.853   5.006   9.688 -0.1218  1.7309 -1.3694
  189POPC   H5Y21816   1.751   4.897   9.596  0.7833 -0.4364 -0.9411
  189POPC   C3621817   1.967   4.925   9.538  0.6247  0.7343  0.9281
  189POPC   H6X21818   2.064   4.937   9.590  1.7060  2.4413 -1.2885
  189POPC   H6Y21819   1.959   5.024   9.487  1.9681  0.4802  0.1743
  189POPC   C3721820   1.977   4.815   9.424  0.2454 -0.2701  0.6289
  189POPC   H7X21821   2.011   4.719   9.468  0.0597 -0.3042  0.6974
  189POPC   H7Y21822   2.050   4.856   9.351  1.0465 -0.7704  1.1377
  189POPC   C3821823   1.844   4.802   9.346 -0.3889 -0.3978  0.7513
  189POPC   H8X21824   1.805   4.902   9.315 -0.3911 -1.0976 -1.7562
  189POPC   H8Y21825   1.768   4.741   9.399  1.3079 -1.3863  2.1504
  189POPC   C3921826   1.858   4.713   9.215 -0.0139  0.2407 -0.3968
  189POPC   H9X21827   1.889   4.610   9.240 -0.5640  0.0362 -0.5360
  189POPC   H9Y21828   1.929   4.755   9.140 -0.4070  3.1206  0.6844
  189POPC  C31021829   1.725   4.712   9.146  0.1844  0.6511 -0.1138
  189POPC  H10X21830   1.656   4.791   9.185 -1.0691 -0.2661 -0.3965
  189POPC  H10Y21831   1.668   4.624   9.182  0.4978  1.0305  1.4025
  189POPC  C31121832   1.724   4.735   8.987  0.5199  0.3862  0.4020
  189POPC  H11X21833   1.778   4.827   8.954  1.6826 -0.9868 -1.7152
  189POPC  H11Y21834   1.624   4.737   8.939  1.7166 -0.7329 -2.2911
  189POPC  C31221835   1.806   4.624   8.918  0.3434 -0.2497  0.1458
  189POPC  H12X21836   1.744   4.533   8.931  0.6561 -0.3968  0.6185
  189POPC  H12Y21837   1.908   4.611   8.960  0.5092  0.1579 -0.1149
  189POPC  C31321838   1.838   4.631   8.767  0.4874  0.1928  0.7137
  189POPC  H13X21839   1.889   4.539   8.731  1.9585  0.8227  1.1107
  189POPC  H13Y21840   1.909   4.716   8.757  0.7997 -0.2083 -0.7021
  189POPC  C31421841   1.716   4.675   8.682  0.7481  0.6683  0.2433
  189POPC  H14X21842   1.676   4.769   8.727  1.1789  0.4428  1.1162
  189POPC  H14Y21843   1.632   4.602   8.686 -0.9592  2.5407  0.1613
  189POPC  C31521844   1.750   4.691   8.535  0.6787 -0.5960 -0.6542
  189POPC  H15X21845   1.825   4.774   8.536 -0.4886  0.5089  1.6512
  189POPC  H15Y21846   1.657   4.730   8.489  0.6742 -1.5180 -1.4523
  189POPC  C31621847   1.777   4.558   8.462 -0.4742 -0.6855 -0.2228
  189POPC  H16X21848   1.817   4.578   8.361 -0.6686 -0.5150 -0.2671
  189POPC  H16Y21849   1.686   4.500   8.436 -2.5089  0.9469  2.5748
  189POPC  H16Z21850   1.845   4.490   8.517  0.0972 -0.1402 -0.2395
  190POPC     N21851   4.351   1.906  11.198  0.3704  0.6644  0.3490
  190POPC   C1221852   4.394   2.034  11.130 -0.1761  0.1720 -0.3669
  190POPC  H12A21853   4.491   2.006  11.091  1.1604  1.7958  1.5454
  190POPC  H12B21854   4.426   2.114  11.196  1.8123 -0.5968 -0.3297
  190POPC   C1321855   4.211   1.924  11.239  0.7406  0.0314 -0.2046
  190POPC  H13A21856   4.213   2.000  11.316  3.4432 -1.4866  1.4105
  190POPC  H13B21857   4.137   1.935  11.162 -0.7830 -2.2241  0.8261
  190POPC  H13C21858   4.177   1.834  11.288  1.6261 -0.5501 -0.6249
  190POPC   C1421859   4.355   1.798  11.085 -0.4205 -0.1189 -0.7098
  190POPC  H14A21860   4.327   1.844  10.991 -1.1632 -0.6285 -0.7491
  190POPC  H14B21861   4.452   1.753  11.070 -0.1684  0.6788 -1.5486
  190POPC  H14C21862   4.278   1.725  11.108  1.2251 -0.9355  2.7860
  190POPC   C1521863   4.440   1.867  11.315 -0.0377 -0.0008 -0.4278
  190POPC  H15A21864   4.431   1.937  11.396  2.0679 -0.8870  0.6655
  190POPC  H15B21865   4.543   1.874  11.281 -0.1322 -2.5787 -1.5120
  190POPC  H15C21866   4.404   1.775  11.359  0.1474 -0.3431 -0.9809
  190POPC   C1121867   4.313   2.086  11.011 -1.0225  0.1473  0.2378
  190POPC  H11A21868   4.296   2.013  10.929 -0.5477  1.3086 -0.9289
  190POPC  H11B21869   4.375   2.160  10.956 -0.6488  0.3755  0.9469
  190POPC     P21870   4.166   2.273  11.114  0.2385  0.0562  0.1235
  190POPC   O1321871   4.269   2.291  11.220 -0.4179 -0.1287  0.2514
  190POPC   O1421872   4.020   2.286  11.140 -0.2816  0.0209 -0.6210
  190POPC   O1221873   4.189   2.134  11.050  0.4733 -0.5552  0.0802
  190POPC   O1121874   4.204   2.370  11.000 -0.0017 -0.7863  0.2093
  190POPC    C121875   4.170   2.336  10.865  0.6138  0.1392  0.1908
  190POPC    HA21876   4.060   2.344  10.847  0.7435 -1.2896 -1.4903
  190POPC    HB21877   4.210   2.236  10.840  1.3084  0.6817 -0.9460
  190POPC    C221878   4.239   2.426  10.762 -0.0281 -0.3051 -0.4997
  190POPC    HS21879   4.226   2.532  10.795  1.6111 -0.1955 -0.1513
  190POPC   O2121880   4.182   2.400  10.633  0.3081 -0.2476  0.3080
  190POPC   C2121881   4.080   2.488  10.607  0.2187  0.2077 -0.1655
  190POPC   O2221882   4.021   2.555  10.691  0.1013  0.4373  0.9812
  190POPC   C2221883   4.073   2.497  10.451  0.2397  1.0080 -0.6867
  190POPC   H2R21884   4.062   2.395  10.408 -1.1998  1.5227 -1.6000
  190POPC   H2S21885   4.172   2.526  10.410  0.2743 -0.4452 -1.6948
  190POPC    C321886   4.395   2.406  10.766  0.2754  0.7417 -0.3442
  190POPC    HX21887   4.426   2.305  10.732 -0.3908  0.6186 -0.6000
  190POPC    HY21888   4.421   2.423  10.873 -1.7828 -2.0377  0.7072
  190POPC   O3121889   4.453   2.507  10.696  0.8131  0.5706  0.3627
  190POPC   C3121890   4.468   2.494  10.565 -0.7332  0.8411 -1.3818
  190POPC   O3221891   4.443   2.393  10.502 -0.3317 -0.1603  0.7493
  190POPC   C3221892   4.509   2.620  10.500  1.1224  0.4035 -0.2695
  190POPC   H2X21893   4.535   2.696  10.577  3.0027  1.1612 -1.5796
  190POPC   H2Y21894   4.416   2.663  10.457  0.6694  1.4512  1.6320
  190POPC   C2321895   3.962   2.588  10.412 -0.7090  0.3952 -0.5533
  190POPC   H3R21896   3.998   2.690  10.441  1.9145 -0.8533  0.9073
  190POPC   H3S21897   3.875   2.557  10.474  0.0978  3.1143  2.2349
  190POPC   C2421898   3.926   2.587  10.262  0.0643  0.6548 -0.0825
  190POPC   H4R21899   3.829   2.634  10.237 -0.7367 -1.6744 -1.7489
  190POPC   H4S21900   3.905   2.480  10.240  0.0254  0.1943  1.9322
  190POPC   C2521901   4.025   2.641  10.170  0.0966  0.3603  0.3888
  190POPC   H5R21902   4.119   2.581  10.173 -0.2771 -0.4172 -1.6135
  190POPC   H5S21903   4.061   2.742  10.197 -0.4035 -0.0459  2.7718
  190POPC   C2621904   3.978   2.638  10.024 -0.5355 -0.7227 -0.0809
  190POPC   H6R21905   3.906   2.722  10.016  0.2123 -0.1519 -1.0196
  190POPC   H6S21906   3.920   2.544  10.012 -1.1651 -0.1621 -1.7953
  190POPC   C2721907   4.078   2.640   9.912 -0.3730  0.3657 -0.3224
  190POPC   H7R21908   4.151   2.558   9.930 -0.1465  0.9726  1.8375
  190POPC   H7S21909   4.137   2.734   9.921  0.4142 -0.2995  4.5242
  190POPC   C2821910   4.014   2.632   9.773 -0.0055 -0.6896 -0.7174
  190POPC   H8R21911   3.955   2.538   9.777  0.1663 -0.7691  0.5999
  190POPC   H8S21912   4.094   2.614   9.698  1.8003 -1.9962  1.3839
  190POPC   C2921913   3.936   2.755   9.723  0.3098  0.2957  0.1886
  190POPC   H9121914   3.847   2.783   9.780  2.1105  2.9565  1.9235
  190POPC  C21021915   3.968   2.838   9.626 -0.5906  0.3800 -0.1873
  190POPC  H10121916   3.900   2.920   9.598  0.8054  1.9360  0.7914
  190POPC  C21121917   4.101   2.841   9.554 -0.2257  0.2808 -0.2893
  190POPC  H11R21918   4.168   2.757   9.580  0.1048  0.2109 -1.3256
  190POPC  H11S21919   4.147   2.941   9.567  0.9102 -0.3454  0.6167
  190POPC  C21221920   4.081   2.830   9.402 -0.9411  0.8643 -0.1220
  190POPC  H12R21921   4.019   2.739   9.386  1.8079 -1.2342  0.3953
  190POPC  H12S21922   4.184   2.808   9.368 -0.2814 -0.6973  2.5943
  190POPC  C21321923   4.011   2.943   9.327  0.2875 -0.2325  0.3353
  190POPC  H13R21924   4.069   3.036   9.312 -1.2633  0.7036 -0.1225
  190POPC  H13S21925   3.922   2.977   9.384  2.3020  1.6653  2.5399
  190POPC  C21421926   3.958   2.893   9.182 -0.4156 -0.2175  0.6814
  190POPC  H14R21927   3.926   2.990   9.138 -1.1547 -1.2289 -1.1485
  190POPC  H14S21928   3.871   2.824   9.191 -0.2796 -0.3944  0.6387
  190POPC  C21521929   4.058   2.838   9.087  0.4798 -0.2744  0.4147
  190POPC  H15R21930   4.109   2.743   9.114  0.8880 -0.0797  0.3395
  190POPC  H15S21931   4.139   2.912   9.070  1.8264 -1.0234  3.0719
  190POPC  C21621932   3.994   2.812   8.943  0.2511  0.0378  0.2531
  190POPC  H16R21933   3.908   2.882   8.933  0.6198  0.5049  0.2906
  190POPC  H16S21934   3.955   2.709   8.933 -0.0531  0.2894 -1.4829
  190POPC  C21721935   4.091   2.852   8.836  0.4260 -0.7630  0.2528
  190POPC  H17R21936   4.188   2.803   8.858  1.4068 -0.8474 -3.5485
  190POPC  H17S21937   4.101   2.962   8.830 -2.2654 -0.4328  0.4756
  190POPC  C21821938   4.032   2.812   8.698  0.0717  0.0843  0.6653
  190POPC  H18R21939   4.032   2.701   8.692  0.7534  0.0987  0.3446
  190POPC  H18S21940   4.091   2.865   8.620  1.0822 -1.2062  0.5314
  190POPC  H18T21941   3.930   2.855   8.692  0.7581  1.9843  1.6288
  190POPC   C3321942   4.618   2.603  10.397 -0.3295  0.4972  0.2420
  190POPC   H3X21943   4.703   2.546  10.440  0.9741  2.2872  0.2015
  190POPC   H3Y21944   4.662   2.704  10.377 -1.0271  0.6455 -0.5636
  190POPC   C3421945   4.586   2.538  10.265  0.9786  0.2247 -0.0822
  190POPC   H4X21946   4.497   2.471  10.272  2.1097 -1.2387  0.7262
  190POPC   H4Y21947   4.670   2.472  10.235  0.5478 -0.1177 -0.5702
  190POPC   C3521948   4.544   2.645  10.169 -0.4909 -0.7829  0.2833
  190POPC   H5X21949   4.632   2.713  10.164 -0.9828 -0.2126 -1.0211
  190POPC   H5Y21950   4.467   2.709  10.217  0.3255  1.9409 -1.8007
  190POPC   C3621951   4.509   2.605  10.032  0.7444  0.3051  0.1593
  190POPC   H6X21952   4.411   2.554  10.028  0.4692  0.6786  1.4587
  190POPC   H6Y21953   4.592   2.533  10.011  1.7136  0.8815  1.7989
  190POPC   C3721954   4.514   2.719   9.933  0.3979 -0.4787 -0.7319
  190POPC   H7X21955   4.615   2.761   9.917  0.4047 -0.1472  0.1367
  190POPC   H7Y21956   4.451   2.806   9.964  2.5321  0.2340  1.9941
  190POPC   C3821957   4.486   2.660   9.802  0.3767  0.2789 -0.2419
  190POPC   H8X21958   4.384   2.615   9.804  0.3874  0.2689  0.0390
  190POPC   H8Y21959   4.569   2.586   9.791 -1.1669 -1.3761 -1.5847
  190POPC   C3921960   4.492   2.764   9.698 -0.6543 -0.0493  0.6520
  190POPC   H9X21961   4.583   2.827   9.708 -0.6429  0.4628 -2.0172
  190POPC   H9Y21962   4.405   2.831   9.715 -1.8628 -1.8347  1.8042
  190POPC  C31021963   4.504   2.718   9.554 -0.6451 -0.1655  0.6225
  190POPC  H10X21964   4.423   2.647   9.526 -0.6196 -1.4531  3.4526
  190POPC  H10Y21965   4.597   2.661   9.536 -1.7771 -2.4301  1.5494
  190POPC  C31121966   4.520   2.834   9.453  0.4879  0.8102 -0.2824
  190POPC  H11X21967   4.603   2.901   9.484  0.5001  1.1300 -0.9898
  190POPC  H11Y21968   4.427   2.895   9.448 -0.1863 -0.0021  1.3239
  190POPC  C31221969   4.557   2.773   9.317  0.4181  0.6489 -0.0559
  190POPC  H12X21970   4.634   2.694   9.326  2.5947  2.5838 -0.6571
  190POPC  H12Y21971   4.593   2.861   9.259  1.8514 -0.6669 -1.2803
  190POPC  C31321972   4.442   2.719   9.232  1.2587 -0.0335 -0.6397
  190POPC  H13X21973   4.347   2.767   9.261 -0.0732 -3.3993  1.1423
  190POPC  H13Y21974   4.442   2.612   9.261  1.4928  0.4894  1.4467
  190POPC  C31421975   4.473   2.728   9.084 -0.6221 -0.2111  1.0662
  190POPC  H14X21976   4.400   2.660   9.036 -1.8144  1.4779  0.4046
  190POPC  H14Y21977   4.575   2.688   9.064  0.3082  2.5467 -0.1607
  190POPC  C31521978   4.452   2.862   9.023  0.1965  0.4773  0.6053
  190POPC  H15X21979   4.479   2.952   9.083 -0.2447  2.8729 -2.5507
  190POPC  H15Y21980   4.342   2.870   9.006  0.2839  1.1226  0.3313
  190POPC  C31621981   4.521   2.883   8.886 -0.3757 -0.1783  0.2333
  190POPC  H16X21982   4.583   2.795   8.857 -0.3161 -0.3312  0.8106
  190POPC  H16Y21983   4.597   2.963   8.893 -0.5982  0.0342  0.2165
  190POPC  H16Z21984   4.442   2.915   8.814 -1.6689 -0.5500  1.4446
  191POPC     N21985   0.578   6.754   6.105  0.2700 -0.3803  0.5564
  191POPC   C1221986   0.567   6.620   6.171 -0.1600 -0.2744  0.6540
  191POPC  H12A21987   0.563   6.539   6.100  0.0693  0.6797 -0.4789
  191POPC  H12B21988   0.471   6.620   6.219 -0.1614 -1.6758  0.7140
  191POPC   C1321989   0.594   6.868   6.201  0.7008 -0.3590 -0.3033
  191POPC  H13A21990   0.610   6.961   6.148 -0.5124  0.5131  0.8003
  191POPC  H13B21991   0.507   6.889   6.261  0.3866 -1.3507 -0.3904
  191POPC  H13C21992   0.678   6.868   6.269  0.3109  0.8818  0.1929
  191POPC   C1421993   0.703   6.740   6.020  0.2193 -0.1465 -0.3434
  191POPC  H14A21994   0.713   6.650   5.961  0.9984 -0.7115  0.6246
  191POPC  H14B21995   0.717   6.826   5.956 -1.1595  0.6408  0.3831
  191POPC  H14C21996   0.790   6.731   6.083 -1.0307 -1.5915  1.2596
  191POPC   C1521997   0.468   6.784   6.012 -0.7910 -0.6584  0.0280
  191POPC  H15A21998   0.462   6.722   5.924 -1.3040  0.0112 -0.4192
  191POPC  H15B21999   0.482   6.887   5.983 -1.0907 -0.4635  0.5792
  191POPC  H15C22000   0.373   6.794   6.062 -0.0287 -0.5807  1.5271
  191POPC   C1122001   0.678   6.583   6.277 -1.1819  0.4075 -0.0887
  191POPC  H11A22002   0.649   6.513   6.358  0.8924 -1.2882 -0.7049
  191POPC  H11B22003   0.711   6.677   6.327 -1.7268  0.6861 -0.2542
  191POPC     P22004   0.796   6.382   6.161 -0.2752  0.5814 -0.1314
  191POPC   O1322005   0.922   6.355   6.091  0.0516 -0.3485  0.0598
  191POPC   O1422006   0.673   6.359   6.084 -0.1502  0.0789 -0.2397
  191POPC   O1222007   0.797   6.524   6.212  0.5248 -0.1140 -0.1843
  191POPC   O1122008   0.790   6.289   6.282  0.4319  0.0406 -0.4053
  191POPC    C122009   0.906   6.262   6.370 -0.1069 -0.4964  0.5473
  191POPC    HA22010   1.004   6.304   6.336  0.8740 -0.5286  3.1154
  191POPC    HB22011   0.913   6.153   6.385  2.1199 -0.4072  0.4769
  191POPC    C222012   0.890   6.335   6.505 -0.3258 -0.5589 -0.6805
  191POPC    HS22013   0.885   6.443   6.479  0.3886  0.2470  2.2276
  191POPC   O2122014   0.997   6.291   6.587 -0.1432 -0.2192 -0.2563
  191POPC   C2122015   1.046   6.383   6.666  0.1743  0.2484 -0.0614
  191POPC   O2222016   1.009   6.502   6.656 -0.0876 -0.3545 -0.1236
  191POPC   C2222017   1.162   6.339   6.758  0.3409  0.8167 -0.1650
  191POPC   H2R22018   1.256   6.356   6.702  0.4620  2.9680  0.6080
  191POPC   H2S22019   1.145   6.233   6.785 -0.3875  1.0308  0.2682
  191POPC    C322020   0.752   6.295   6.556  0.0016  0.2826 -0.1754
  191POPC    HX22021   0.727   6.194   6.517 -1.4403  0.4187  0.3539
  191POPC    HY22022   0.677   6.360   6.506 -0.1661  1.1123  1.1125
  191POPC   O3122023   0.735   6.310   6.695  0.4212 -0.1222  0.2593
  191POPC   C3122024   0.701   6.203   6.764  0.4291 -0.2409  0.0575
  191POPC   O3222025   0.686   6.089   6.724  0.0793 -0.6071 -0.0398
  191POPC   C3222026   0.683   6.239   6.913  0.2212 -0.0268 -0.1043
  191POPC   H2X22027   0.682   6.350   6.921  0.8714 -0.0605  0.6231
  191POPC   H2Y22028   0.773   6.200   6.965  0.6833 -0.3458 -1.1237
  191POPC   C2322029   1.171   6.420   6.889  0.3549 -0.6713  0.0024
  191POPC   H3R22030   1.075   6.427   6.944 -0.4258 -1.5166 -1.2286
  191POPC   H3S22031   1.220   6.518   6.867  4.6651 -2.6596 -0.4063
  191POPC   C2422032   1.262   6.361   7.001  0.9839  0.3619  0.2659
  191POPC   H4R22033   1.244   6.432   7.085 -3.8364  1.2917 -1.2188
  191POPC   H4S22034   1.368   6.368   6.970  0.3499  2.0290 -1.7852
  191POPC   C2522035   1.218   6.219   7.039  0.7002  0.0753 -0.2932
  191POPC   H5R22036   1.297   6.181   7.108 -0.7221 -0.7810  0.9186
  191POPC   H5S22037   1.228   6.149   6.954 -0.8635  0.2844 -0.6743
  191POPC   C2622038   1.080   6.200   7.105 -0.0383  0.3271  0.2308
  191POPC   H6R22039   1.071   6.097   7.145  0.1043  0.0199 -0.5138
  191POPC   H6S22040   1.005   6.200   7.023 -0.8025 -4.2056  0.6888
  191POPC   C2722041   1.051   6.290   7.222 -0.1510 -0.0788 -0.2437
  191POPC   H7R22042   0.953   6.260   7.265  0.5759 -0.5463  1.1535
  191POPC   H7S22043   1.037   6.393   7.181  1.5359  0.1529 -0.2930
  191POPC   C2822044   1.147   6.302   7.339 -0.7316 -0.0854  0.1404
  191POPC   H8R22045   1.236   6.362   7.312 -1.0935  0.7894  0.8547
  191POPC   H8S22046   1.178   6.197   7.361  0.7178  0.3409  0.1735
  191POPC   C2922047   1.089   6.365   7.465  0.0728  0.5835 -0.5756
  191POPC   H9122048   1.064   6.472   7.458 -2.0070  0.3855  2.2286
  191POPC  C21022049   1.058   6.307   7.574 -0.5723  0.8019 -0.9801
  191POPC  H10122050   1.016   6.362   7.660  1.7509  0.9716  0.1226
  191POPC  C21122051   1.059   6.162   7.607  0.3396  0.5564  0.1053
  191POPC  H11R22052   1.073   6.141   7.715 -0.7176  1.0179  0.3462
  191POPC  H11S22053   1.141   6.111   7.553 -1.0244  0.4557 -2.0056
  191POPC  C21222054   0.927   6.087   7.571 -0.1437 -0.2234 -0.2482
  191POPC  H12R22055   0.960   5.981   7.576 -0.6706 -0.3401  0.9283
  191POPC  H12S22056   0.897   6.109   7.466  0.1893 -0.7502 -0.4644
  191POPC  C21322057   0.802   6.122   7.658 -0.3888  0.3962  0.0075
  191POPC  H13R22058   0.718   6.053   7.632  1.2750 -1.6064 -0.3601
  191POPC  H13S22059   0.776   6.229   7.649  0.3349  0.6521  0.8087
  191POPC  C21422060   0.817   6.096   7.812  0.7545  0.2442 -0.0306
  191POPC  H14R22061   0.903   6.149   7.860  1.3198 -2.4978  2.2623
  191POPC  H14S22062   0.832   5.989   7.836  2.1911  0.3396 -0.4332
  191POPC  C21522063   0.683   6.139   7.874 -0.3999 -0.2630  0.2642
  191POPC  H15R22064   0.610   6.063   7.839  0.3718 -0.6461 -0.5603
  191POPC  H15S22065   0.644   6.237   7.839 -2.0419 -1.1591 -0.4996
  191POPC  C21622066   0.699   6.144   8.026 -0.7304  0.0990  0.1435
  191POPC  H16R22067   0.783   6.202   8.069 -0.8984  0.8250 -0.4981
  191POPC  H16S22068   0.724   6.050   8.080 -1.0112  0.5144  1.0332
  191POPC  C21722069   0.578   6.200   8.093  0.2460  0.0943 -0.0269
  191POPC  H17R22070   0.501   6.122   8.077  0.5622 -0.2898  0.3043
  191POPC  H17S22071   0.544   6.297   8.049 -1.2010  1.3130  3.4065
  191POPC  C21822072   0.591   6.228   8.237  0.1326  0.2163 -0.1185
  191POPC  H18R22073   0.604   6.131   8.290 -1.4033 -1.4994 -2.6592
  191POPC  H18S22074   0.498   6.275   8.275  0.2293  1.0702 -0.8861
  191POPC  H18T22075   0.675   6.297   8.260 -0.8713  0.5755  2.8484
  191POPC   C3322076   0.552   6.176   6.976  0.3733 -0.1978 -0.0914
  191POPC   H3X22077   0.549   6.067   6.952 -0.1643 -0.4546  1.0713
  191POPC   H3Y22078   0.469   6.230   6.927  2.2565  1.9494 -1.1046
  191POPC   C3422079   0.544   6.185   7.125  0.6533 -0.3141 -0.4122
  191POPC   H4X22080   0.516   6.289   7.153 -0.0247 -0.5666 -0.1236
  191POPC   H4Y22081   0.643   6.149   7.160  0.2296 -1.8654 -0.7213
  191POPC   C3522082   0.439   6.083   7.193 -0.2125  0.3914  0.4667
  191POPC   H5X22083   0.470   5.983   7.156  1.6325  0.9779  0.2852
  191POPC   H5Y22084   0.334   6.104   7.165 -0.1313 -0.5389 -0.5820
  191POPC   C3622085   0.459   6.092   7.341 -0.0081  0.1923  0.2790
  191POPC   H6X22086   0.433   6.195   7.373 -2.4832 -1.0232  2.5825
  191POPC   H6Y22087   0.564   6.086   7.379 -0.3402  0.1932  1.2418
  191POPC   C3722088   0.367   6.014   7.426  0.5238 -0.4641 -0.3250
  191POPC   H7X22089   0.381   5.907   7.399  1.3177 -0.0609 -1.5589
  191POPC   H7Y22090   0.263   6.043   7.397  0.9624 -2.3288 -4.4561
  191POPC   C3822091   0.404   6.018   7.574  0.9331 -0.0220 -0.2626
  191POPC   H8X22092   0.389   6.125   7.602 -1.0071 -0.3729  0.2231
  191POPC   H8Y22093   0.504   5.971   7.579 -0.2458 -2.6016  0.9040
  191POPC   C3922094   0.315   5.930   7.659 -0.0945 -0.0013 -0.3735
  191POPC   H9X22095   0.327   5.823   7.631  0.4555 -0.8153  2.5980
  191POPC   H9Y22096   0.212   5.967   7.640  0.1708  1.2050  0.3989
  191POPC  C31022097   0.347   5.949   7.810 -0.0067  0.2067  0.6656
  191POPC  H10X22098   0.389   6.051   7.823  0.7122  0.3333 -2.0335
  191POPC  H10Y22099   0.422   5.870   7.831 -0.4034 -0.1692  0.6823
  191POPC  C31122100   0.218   5.930   7.892  0.1747  0.4984 -0.4332
  191POPC  H11X22101   0.173   5.831   7.866  0.4489 -0.2242  1.7086
  191POPC  H11Y22102   0.143   6.008   7.867  0.1464  1.0169  1.1924
  191POPC  C31222103   0.244   5.952   8.041  0.1581 -0.5243 -0.2951
  191POPC  H12X22104   0.149   5.935   8.098  0.5713  0.7481  0.8100
  191POPC  H12Y22105   0.291   6.048   8.071  1.4844 -0.3509 -2.7113
  191POPC  C31322106   0.348   5.851   8.099 -0.4478 -0.2814 -0.1278
  191POPC  H13X22107   0.445   5.883   8.057 -0.2055  1.1180  1.4216
  191POPC  H13Y22108   0.316   5.749   8.068 -0.1633 -0.3290 -0.2591
  191POPC  C31422109   0.356   5.869   8.248 -0.5324  0.0981 -0.7373
  191POPC  H14X22110   0.256   5.867   8.298 -1.9142  2.1644 -3.1421
  191POPC  H14Y22111   0.402   5.966   8.275  0.1296  0.5018 -3.0966
  191POPC  C31522112   0.428   5.758   8.312  0.5560 -0.2613 -0.1401
  191POPC  H15X22113   0.490   5.795   8.396  0.9245  0.3000 -0.6493
  191POPC  H15Y22114   0.492   5.710   8.234 -0.0429  1.1293 -1.5317
  191POPC  C31622115   0.344   5.641   8.364 -0.0436 -0.2727 -0.0687
  191POPC  H16X22116   0.273   5.600   8.289 -0.6122 -2.1204  1.4031
  191POPC  H16Y22117   0.298   5.673   8.460 -3.5788  1.2788 -2.0596
  191POPC  H16Z22118   0.415   5.560   8.392  0.7626  0.4988  0.1686
  192POPC     N22119   5.689   2.300   5.672 -0.3617 -0.5652 -0.2122
  192POPC   C1222120   5.777   2.214   5.767 -0.3774 -0.0446  0.5675
  192POPC  H12A22121   5.881   2.220   5.738 -0.5107  1.5253  0.3387
  192POPC  H12B22122   5.769   2.111   5.734  2.1085 -0.7870  2.0015
  192POPC   C1322123   5.717   2.446   5.700 -0.2355 -0.4052 -0.3684
  192POPC  H13A22124   5.824   2.458   5.707 -0.3734  0.2667  0.8671
  192POPC  H13B22125   5.680   2.519   5.629 -0.1347  0.7002  0.6756
  192POPC  H13C22126   5.694   2.477   5.801 -1.6694 -0.9830 -0.4890
  192POPC   C1422127   5.735   2.291   5.532  0.2103  0.5975  0.4555
  192POPC  H14A22128   5.765   2.192   5.500  0.3467  1.1041 -1.0846
  192POPC  H14B22129   5.668   2.345   5.467  0.9637  0.4819 -0.4455
  192POPC  H14C22130   5.832   2.339   5.522  1.0154 -1.2391 -1.2681
  192POPC   C1522131   5.548   2.263   5.690 -0.0529  0.0965 -0.0550
  192POPC  H15A22132   5.496   2.335   5.629  0.2921  0.9480  0.6254
  192POPC  H15B22133   5.506   2.263   5.790 -1.5038 -0.2053 -0.6395
  192POPC  H15C22134   5.530   2.162   5.659 -1.9258 -0.1452  1.5731
  192POPC   C1122135   5.750   2.229   5.915  0.5122  0.2328 -0.9185
  192POPC  H11A22136   5.763   2.334   5.951  2.1551 -1.0057  2.5815
  192POPC  H11B22137   5.834   2.173   5.961  0.1441 -0.4605 -1.0883
  192POPC     P22138   5.613   2.027   5.962  0.2064 -0.1481  0.3816
  192POPC   O1322139   5.639   1.973   5.824 -0.5422 -0.1706  0.2645
  192POPC   O1422140   5.486   1.995   6.032  0.2810 -0.2924  0.3431
  192POPC   O1222141   5.621   2.191   5.952 -0.2462 -0.1896  0.7035
  192POPC   O1122142   5.733   1.981   6.050  0.2390  0.2583  0.0202
  192POPC    C122143   5.741   2.016   6.184  0.2861 -0.7769 -0.0123
  192POPC    HA22144   5.640   2.034   6.227  0.5347  1.1373 -0.1193
  192POPC    HB22145   5.793   2.115   6.188 -2.9369  1.0538 -0.1479
  192POPC    C222146   5.826   1.907   6.259 -0.5307  0.3883 -0.3366
  192POPC    HS22147   5.814   1.923   6.369  0.3999  1.2080 -0.3386
  192POPC   O2122148   5.967   1.906   6.213  0.1846 -0.3463 -0.2345
  192POPC   C2122149   6.037   2.005   6.260 -0.6308 -0.2528 -0.4335
  192POPC   O2222150   5.995   2.079   6.352  0.1980 -0.2874  0.2486
  192POPC   C2222151   6.175   2.005   6.198  0.6177 -1.0808  0.4688
  192POPC   H2R22152   6.200   2.113   6.186  1.3836 -1.4242 -1.3065
  192POPC   H2S22153   6.172   1.955   6.099 -0.3368  0.7291 -0.4658
  192POPC    C322154   5.758   1.760   6.243 -0.9371  0.7768 -0.1404
  192POPC    HX22155   5.771   1.729   6.137  0.2962 -0.5893  0.3943
  192POPC    HY22156   5.648   1.774   6.248 -0.8830  0.9356  0.7338
  192POPC   O3122157   5.811   1.655   6.331 -0.1621  0.2747 -0.1305
  192POPC   C3122158   5.915   1.589   6.287  0.5265 -0.4933  0.4926
  192POPC   O3222159   5.967   1.604   6.179  0.6629 -0.0261 -0.2217
  192POPC   C3222160   5.964   1.495   6.397 -0.3848 -0.3551  0.0045
  192POPC   H2X22161   6.037   1.424   6.353  0.3389  0.4299 -0.0831
  192POPC   H2Y22162   5.875   1.434   6.425 -2.4694  0.6429 -3.7719
  192POPC   C2322163   6.278   1.930   6.282 -0.5369  0.7128  0.1583
  192POPC   H3R22164   6.370   1.919   6.222 -0.6000 -0.9933  0.3420
  192POPC   H3S22165   6.238   1.827   6.293 -0.3959  0.3815 -2.0498
  192POPC   C2422166   6.308   1.995   6.419  0.3362 -0.8352  0.6461
  192POPC   H4R22167   6.281   2.103   6.421 -0.6803 -1.0523 -0.4792
  192POPC   H4S22168   6.417   1.993   6.443  0.5671  0.5084 -0.1805
  192POPC   C2522169   6.248   1.926   6.538  0.7503 -0.2883  0.2239
  192POPC   H5R22170   6.303   1.829   6.545 -0.4978 -1.0321  0.0919
  192POPC   H5S22171   6.140   1.905   6.523  1.1083 -1.5407 -0.8717
  192POPC   C2622172   6.261   1.998   6.668  0.1391  0.4081  0.7553
  192POPC   H6R22173   6.222   2.101   6.658  0.5182  0.5048  0.1793
  192POPC   H6S22174   6.369   2.016   6.683  0.3993  0.1924 -0.6863
  192POPC   C2722175   6.204   1.922   6.785 -1.0532  0.1715  0.0374
  192POPC   H7R22176   6.259   1.826   6.794  0.7342  1.3400  2.8444
  192POPC   H7S22177   6.098   1.900   6.762 -0.1565 -2.6896 -1.7874
  192POPC   C2822178   6.216   1.998   6.912 -0.4071 -0.0991 -0.1389
  192POPC   H8R22179   6.155   2.091   6.914  0.2328  0.3710 -1.4434
  192POPC   H8S22180   6.321   2.029   6.928 -0.0838 -0.0810 -2.1246
  192POPC   C2922181   6.181   1.915   7.032  0.8600  0.0982  0.2191
  192POPC   H9122182   6.258   1.841   7.059  0.2281  0.5377  3.7581
  192POPC  C21022183   6.077   1.919   7.109  0.4004  0.0025 -0.0782
  192POPC  H10122184   6.068   1.848   7.193  2.9476 -0.8735 -0.4636
  192POPC  C21122185   5.963   2.017   7.099 -1.0086 -0.4649  0.3830
  192POPC  H11R22186   5.948   2.058   6.996  4.6265  0.1037 -0.5341
  192POPC  H11S22187   6.002   2.102   7.160  1.8326  0.9595 -2.9951
  192POPC  C21222188   5.832   1.975   7.157 -0.2829  0.4084  0.0614
  192POPC  H12R22189   5.853   1.946   7.262  0.0978 -0.3412 -0.2188
  192POPC  H12S22190   5.803   1.882   7.104  1.0500  0.6396 -1.1440
  192POPC  C21322191   5.712   2.074   7.150  0.0177 -1.0128  1.0295
  192POPC  H13R22192   5.673   2.078   7.046 -0.0355  0.0980  1.0810
  192POPC  H13S22193   5.755   2.172   7.179 -0.2245 -0.0248 -1.6734
  192POPC  C21422194   5.594   2.039   7.234  0.3715  0.3234 -1.1938
  192POPC  H14R22195   5.511   2.111   7.223  0.2122 -0.1755 -3.9600
  192POPC  H14S22196   5.623   2.023   7.341 -1.2716  2.0811 -0.4355
  192POPC  C21522197   5.518   1.905   7.203 -0.1560 -0.5566 -0.2141
  192POPC  H15R22198   5.443   1.888   7.283  0.1281 -0.1681  0.1446
  192POPC  H15S22199   5.595   1.827   7.217 -0.8400 -1.0963  0.6298
  192POPC  C21622200   5.453   1.901   7.067  0.4416  0.2681  0.0911
  192POPC  H16R22201   5.527   1.873   6.989 -1.4915  0.6763 -2.0104
  192POPC  H16S22202   5.416   2.002   7.041 -0.5915 -0.5805 -1.9820
  192POPC  C21722203   5.351   1.785   7.054 -0.1187 -0.1744  0.1233
  192POPC  H17R22204   5.275   1.815   7.128  0.3535  1.5286 -0.0249
  192POPC  H17S22205   5.406   1.693   7.081 -1.7427 -1.8369 -1.8814
  192POPC  C21822206   5.292   1.751   6.915  0.2089 -0.5791 -0.3450
  192POPC  H18R22207   5.239   1.655   6.935  0.6192 -0.8993 -0.7992
  192POPC  H18S22208   5.359   1.750   6.827  1.6656 -2.0318  0.7216
  192POPC  H18T22209   5.212   1.823   6.886  0.2915  0.4231  1.7294
  192POPC   C3322210   6.047   1.567   6.506 -0.1328  0.1382  0.4784
  192POPC   H3X22211   5.993   1.655   6.546 -1.2371  0.6603 -1.9651
  192POPC   H3Y22212   6.139   1.603   6.455  0.1033 -2.1507 -0.8683
  192POPC   C3422213   6.084   1.475   6.616 -1.0032  0.1794 -0.5241
  192POPC   H4X22214   6.147   1.387   6.595 -2.0280 -0.2008 -2.2244
  192POPC   H4Y22215   5.988   1.446   6.664 -2.6484  0.1542 -3.6235
  192POPC   C3522216   6.176   1.554   6.726  0.2859  0.5043 -0.1108
  192POPC   H5X22217   6.113   1.639   6.761  0.6285  0.3837  0.8371
  192POPC   H5Y22218   6.269   1.585   6.675  0.0553  1.2538 -0.0815
  192POPC   C3622219   6.197   1.474   6.856 -0.0601 -0.8719  0.1015
  192POPC   H6X22220   6.227   1.370   6.832  1.4301 -0.3167 -0.5016
  192POPC   H6Y22221   6.096   1.460   6.902 -0.4683  1.8232  0.2011
  192POPC   C3722222   6.289   1.542   6.962 -0.8369 -0.8463  0.0125
  192POPC   H7X22223   6.270   1.651   6.972  0.7986 -0.7221  3.5112
  192POPC   H7Y22224   6.391   1.524   6.921 -0.8207  0.1150 -0.3953
  192POPC   C3822225   6.280   1.473   7.104  0.4521  0.2869 -0.3554
  192POPC   H8X22226   6.302   1.364   7.100 -1.7915 -0.2455  0.3344
  192POPC   H8Y22227   6.174   1.477   7.136  0.4728  0.9261 -0.3482
  192POPC   C3922228   6.371   1.532   7.213 -0.1737  0.2496 -0.4109
  192POPC   H9X22229   6.321   1.620   7.258  0.5940  0.7084 -0.4346
  192POPC   H9Y22230   6.474   1.548   7.173 -0.5922 -0.9886 -2.1234
  192POPC  C31022231   6.392   1.434   7.330 -0.3193 -0.1570  0.0349
  192POPC  H10X22232   6.438   1.338   7.297  0.4944 -0.3743  1.7043
  192POPC  H10Y22233   6.296   1.411   7.381 -0.0151  0.6704  1.0256
  192POPC  C31122234   6.487   1.486   7.449 -0.0823  0.8618  0.6983
  192POPC  H11X22235   6.502   1.401   7.519  3.2874  0.2073 -0.6540
  192POPC  H11Y22236   6.431   1.560   7.510 -0.7046 -0.1375  1.3825
  192POPC  C31222237   6.624   1.524   7.402  0.0190  0.0385  0.1471
  192POPC  H12X22238   6.596   1.619   7.351 -1.7066 -1.7426 -2.4296
  192POPC  H12Y22239   6.654   1.448   7.328  0.2449 -1.5049  1.7467
  192POPC  C31322240   6.729   1.538   7.513 -0.2318  0.7684  0.5167
  192POPC  H13X22241   6.689   1.599   7.596  0.5577 -0.2992  1.7295
  192POPC  H13Y22242   6.810   1.610   7.486 -1.6206  2.9472  1.8740
  192POPC  C31422243   6.806   1.408   7.556  0.0737  0.0238 -0.3309
  192POPC  H14X22244   6.848   1.350   7.471  0.0428  1.9757 -1.7524
  192POPC  H14Y22245   6.743   1.354   7.630  1.5581 -2.7999 -0.9937
  192POPC  C31522246   6.934   1.453   7.638  0.5666 -0.2332 -0.0943
  192POPC  H15X22247   7.010   1.492   7.567  0.9780  1.3948  1.1897
  192POPC  H15Y22248   6.974   1.362   7.687 -2.0871 -2.6675 -2.1006
  192POPC  C31622249   6.906   1.559   7.746  0.8671  0.8488 -0.1269
  192POPC  H16X22250   6.994   1.580   7.810 -0.4943  3.5069  0.9895
  192POPC  H16Y22251   6.819   1.523   7.806 -0.5084  1.4217 -1.6952
  192POPC  H16Z22252   6.875   1.651   7.692  1.0243  0.9213 -0.0955
  193SOD    SOD22253   6.324   3.542  15.416 -0.4325 -0.0012 -0.1304
  194SOD    SOD22254   4.190   3.662  14.862  0.5671 -0.6226  0.2430
  195SOD    SOD22255   0.806   5.775   5.604 -0.0518 -0.0401 -0.1881
  196SOD    SOD22256   6.088   5.441   2.090 -0.4988  0.0996  0.1976
  197SOD    SOD22257   3.697   6.428  13.060 -0.1110  0.2286  0.4098
  198SOD    SOD22258   2.261   3.044  10.557  0.0237  0.0407 -0.3017
  199SOD    SOD22259   1.957   6.622   4.332 -0.5119 -0.4759 -0.1117
  200SOD    SOD22260   1.595   6.110  15.732 -0.0933 -0.6706 -0.2735
  201SOD    SOD22261   3.198   4.797   2.817 -0.7967  0.0040  0.3190
  202SOD    SOD22262   3.687   4.242   5.566  0.4895  0.1443 -0.0260
  203SOD    SOD22263   0.369   6.691  15.674  0.1685 -0.2043 -0.0537
  204SOD    SOD22264   2.037   3.003   5.706  0.2074  0.2107  0.2158
  205SOD    SOD22265   4.105   1.476   0.328 -0.6353  0.6094  0.2485
  206SOD    SOD22266   6.611   1.853  10.795  0.3761 -0.4284  0.3476
  207SOD    SOD22267   4.023   4.582   5.154  0.3406 -0.2767  0.2997
  208SOD    SOD22268   3.556   0.815  11.815 -0.1293  0.0447 -0.3405
  209SOD    SOD22269   2.891   5.870   1.278  0.1675 -0.1257 -0.0069
  210SOD    SOD22270   2.585   2.509   5.808  0.2687  0.1798  0.3162
  211SOD    SOD22271   3.468   4.402   3.560 -0.0874  0.1442 -0.0051
  212SOD    SOD22272   5.113   6.746   4.486  0.5388 -0.4515  0.1033
  213SOD    SOD22273   5.251   3.968   6.181  0.2265  0.0632 -0.1887
  214SOD    SOD22274   6.441   4.001   1.692 -0.2018 -0.2059 -0.4941
  215SOD    SOD22275   4.057   5.056   2.921  0.1627  0.2773  0.0719
  216SOD    SOD22276   1.992   4.433  16.842 -0.1276 -0.3236  0.4206
  217SOD    SOD22277   3.507   4.204  14.316  0.3650  0.3120 -0.2582
  218SOD    SOD22278   5.593   2.618   4.231 -0.1194 -0.2504 -0.4098
  219SOD    SOD22279   0.190   5.213  10.468 -0.2036  0.0304  0.2764
  220SOD    SOD22280   3.003   3.215   0.531 -0.1321  0.1740  0.0067
  221SOD    SOD22281   4.407   5.786   3.123 -0.4704  0.1605  0.0444
  222SOD    SOD22282   0.381   3.252   3.914 -0.2385  0.1088  0.2821
  223SOD    SOD22283   5.920   0.641  14.826 -0.1997 -0.2348  0.1715
  224SOD    SOD22284   0.900   0.421  10.696 -0.0099  0.4093  0.2762
  225SOD    SOD22285   1.863   4.119  11.599  0.2418 -0.1149 -0.4012
  226SOD    SOD22286   5.213   2.779  11.343 -0.3217 -0.3775 -0.2094
  227SOD    SOD22287   6.579   3.003  15.647 -0.0140 -0.1639  0.1574
  228SOD    SOD22288   4.119   6.186   0.918  0.0805 -0.4752 -0.1270
  229SOD    SOD22289   4.533   2.703  11.152  0.5895 -0.1280 -0.2905
  230SOD    SOD22290   2.659   2.040  17.123  0.4308 -0.4384  0.5930
  231SOD    SOD22291   6.455   2.618   2.253 -0.1613 -0.1427 -0.3126
  232SOD    SOD22292   1.196   4.005  14.044  0.4457 -0.1696  0.3325
  233SOD    SOD22293   1.763   1.430   5.889 -0.0766 -0.4099  0.0826
  234SOD    SOD22294   0.198   3.630  10.734 -0.2959 -0.7393 -0.3700
  235SOD    SOD22295   3.899   5.079  16.258 -0.1231  0.6698  0.3106
  236SOD    SOD22296   0.963   3.657   4.348  0.4532 -0.3397  0.0590
  237SOD    SOD22297   3.712   3.227  12.170 -0.2024  0.2819  0.1163
  238SOD    SOD22298   0.123   6.684   5.199  0.4489  0.3421  0.4150
  239SOD    SOD22299   1.324   3.757   5.807 -0.2793 -0.1335 -0.4794
  240SOD    SOD22300   5.172   4.196   4.780 -0.3798  0.4510  0.1409
  241SOD    SOD22301   6.132   6.175  12.929  0.0623  0.3503  0.3386
  242SOD    SOD22302   4.982   4.365  13.115  0.3187 -0.0909  0.2274
  243SOD    SOD22303   6.098   2.064   1.152 -0.1122 -0.7662 -0.2346
  244SOD    SOD22304   3.556   2.385  10.906  0.1055  0.2183 -0.1924
  245SOD    SOD22305   2.515   6.244  11.312  0.0748 -0.1161  0.1999
  246SOD    SOD22306   6.166   3.292  16.392  0.0264  0.0618  0.2527
  247SOD    SOD22307   3.198   2.938   2.407 -0.3649  0.5244 -0.1200
  248SOD    SOD22308   2.998   5.532  14.920 -0.2068 -0.0411 -0.0907
  249SOD    SOD22309   4.656   2.054  14.931 -0.3358 -0.1519  0.1236
  250SOD    SOD22310   3.443   0.557  12.956 -0.4878 -0.0858 -0.1280
  251SOD    SOD22311   2.457   0.213  12.977  0.2192 -0.0493 -0.1613
  252SOD    SOD22312   4.756   4.661  11.296  0.1776  0.1421 -0.1652
  253SOD    SOD22313   4.471   5.138  13.157 -0.5118 -0.3380 -0.1359
  254SOD    SOD22314   1.132   6.059  14.402  0.4473  0.1222 -0.1508
  255SOD    SOD22315   4.505   0.363   5.440  0.1311  0.2361 -0.1640
  256SOD    SOD22316   2.842   0.267  12.045 -0.2224 -0.1311 -0.0578
  257SOD    SOD22317   0.703   4.087   6.138  0.6590 -0.1042 -0.2883
  258SOD    SOD22318   0.996   0.161  11.494  0.1219  0.0407  0.1258
  259SOD    SOD22319   4.458   0.865   3.282 -0.5602  0.1230 -0.3252
  260SOD    SOD22320   3.056   4.917  12.262 -0.2017 -0.0059 -0.4740
  261SOD    SOD22321   6.255   0.021  12.662 -0.5322 -0.3228  0.5066
  262SOD    SOD22322   5.367   4.695  14.489 -0.0410  0.5632 -0.0649
  263SOD    SOD22323   5.996   0.082  11.343 -0.1949  0.1187  0.0278
  264SOD    SOD22324   1.042   5.494   6.139  0.1642  0.5401 -0.0994
  265SOD    SOD22325   2.297   2.652   1.494 -0.5353 -0.2738  0.1968
  266SOD    SOD22326   1.420   4.297   1.123  0.6709  0.5581 -0.0170
  267SOD    SOD22327   1.745   0.021   5.620  0.9992 -0.2124  0.2427
  268SOD    SOD22328   6.090   5.842  15.185 -0.4481 -0.4234 -0.2733
  269SOD    SOD22329   2.375   6.334  15.582 -0.0465 -0.1703 -0.3166
  270CLA    CLA22330   2.155   4.523   0.611  0.3090  0.1263  0.2130
  271CLA    CLA22331   0.152   1.338  14.667 -0.3666 -0.1075  0.1270
  272CLA    CLA22332   4.251   4.110   4.661 -0.1151  0.0247 -0.0171
  273CLA    CLA22333   6.219   5.700  13.955  0.3869  0.0742 -0.2888
  274CLA    CLA22334   0.761   1.638  14.250  0.6582  0.0835  0.1480
  275CLA    CLA22335   0.181   1.979  13.674 -0.5674 -0.3380 -0.1974
  276CLA    CLA22336   5.579   6.629   5.186 -0.2349  0.2354  0.3999
  277CLA    CLA22337   1.180   6.212  15.168  0.3773  0.0268  0.3804
  278CLA    CLA22338   1.777   0.448  15.631 -0.3147  0.1627  0.2029
  279CLA    CLA22339   6.334   5.130   2.423  0.1424  0.0531 -0.4595
  280CLA    CLA22340   5.807   2.181  16.993  0.1511 -0.2819  0.4075
  281CLA    CLA22341   2.699   5.068  14.307 -0.5523  0.0573  0.3835
  282CLA    CLA22342   1.943   4.489  14.216  0.3024  0.3124 -0.0082
  283CLA    CLA22343   4.747   5.737  11.929 -0.3673 -0.1596 -0.0564
  284CLA    CLA22344   2.339   3.703   0.873  0.1037  0.2187  0.2559
  285CLA    CLA22345   2.404   3.208   1.539 -0.1947 -0.0447  0.3426
  286CLA    CLA22346   6.150   6.713  16.514 -0.0145 -0.2117  0.0547
  287CLA    CLA22347   1.541   2.283   3.016  0.0135  0.1786  0.2251
  288CLA    CLA22348   4.088   0.630   2.119  0.0872 -0.0887 -0.2729
  289CLA    CLA22349   0.629   5.603   1.735  0.0007 -0.0820  0.0506
  290CLA    CLA22350   2.449   4.765   2.489 -0.0068 -0.5947  0.1077
  291CLA    CLA22351   4.632   4.552  14.527 -0.3134 -0.0975 -0.2594
  292CLA    CLA22352   5.488   5.734  15.859  0.0124  0.1784 -0.0106
  293CLA    CLA22353   1.174   5.544  15.990 -0.1558 -0.6849  0.2005
  294CLA    CLA22354   4.563   0.244   0.920 -0.5444  0.3990  0.3230
  295CLA    CLA22355   3.937   0.933  13.389 -0.1608  0.0779  0.1956
  296CLA    CLA22356   3.176   0.285   2.453 -0.6084  0.2672 -0.5016
  297CLA    CLA22357   5.314   4.438  13.406  0.4431 -0.1835 -0.5000
  298CLA    CLA22358   2.990   2.079   2.188  0.2342  0.3172  0.4256
  299CLA    CLA22359   1.903   5.268  15.565 -0.0312  0.0487  0.1755
  300CLA    CLA22360   3.170   0.228  12.884 -0.2811 -0.0286  0.0089
  301CLA    CLA22361   4.967   6.695  13.018  0.3294  0.0313  0.1618
  302CLA    CLA22362   5.458   4.024   0.983  0.5257  0.4483  0.0535
  303CLA    CLA22363   2.386   3.140  12.590  0.0074 -0.3345 -0.1513
  304CLA    CLA22364   3.233   1.171  12.293 -0.1321  0.0289  0.1278
  305CLA    CLA22365   5.474   5.215   0.678 -0.3393 -0.0217 -0.1825
  306CLA    CLA22366   0.491   2.909   5.188  0.2302 -0.2698 -0.0202
  307CLA    CLA22367   3.975   1.863   3.452  0.1655  0.1021 -0.2393
  308CLA    CLA22368   4.358   4.065  13.231 -0.1362  0.2508 -0.2324
  309CLA    CLA22369   0.390   1.683   2.403 -0.2992  0.3346 -0.1854
  310CLA    CLA22370   0.694   6.216   5.384  0.3365  0.0980 -0.2734
  311CLA    CLA22371   4.347   4.773  12.861 -0.5346 -0.3922  0.5581
  312CLA    CLA22372   4.354   5.309  16.602  0.3695 -0.1098 -0.3514
  313CLA    CLA22373   3.059   6.310  11.928  0.0065 -0.0914  0.5410
  314CLA    CLA22374   3.441   5.199   3.329  0.2746 -0.3975  0.0773
  315CLA    CLA22375   3.198   3.056  15.612 -0.0746 -0.4567  0.2689
  316CLA    CLA22376   0.052   3.379  16.617  0.0848 -0.3107 -0.1667
  317CLA    CLA22377   0.777   2.131   0.741 -0.0373  0.0134 -0.2766
  318CLA    CLA22378   4.290   2.209  14.043 -0.0480 -0.0676  0.2344
  319CLA    CLA22379   3.883   3.678  12.307 -0.2200 -0.3263  0.3850
  320CLA    CLA22380   5.711   3.051  13.385 -0.3243 -0.0789 -0.1332
  321CLA    CLA22381   6.174   3.039  16.280 -0.0167  0.3814 -0.6415
  322CLA    CLA22382   4.078   6.054  11.462  0.2455  0.1541 -0.1004
  323TIP3   OH222383   2.885   1.132  15.312 -0.3778 -0.2096  0.1551
  323TIP3    H122384   2.974   1.136  15.347 -0.2474  0.9239 -0.2516
  323TIP3    H222385   2.830   1.169  15.381 -0.3718  0.1753 -0.0403
  324TIP3   OH222386   0.704   6.168   2.297  0.9662 -0.6823 -0.1369
  324TIP3    H122387   0.620   6.143   2.334  1.0874 -0.4309  0.3168
  324TIP3    H222388   0.768   6.144   2.364  1.1949 -0.2975 -0.2139
  325TIP3   OH222389   3.235   5.975  16.578  0.2929  0.1616 -0.1773
  325TIP3    H122390   3.237   6.007  16.668 -0.2658 -1.3084  0.3879
  325TIP3    H222391   3.317   6.006  16.540  1.0833 -0.1762  1.1827
  326TIP3   OH222392   1.248   0.521   1.753  0.2017 -0.3419  0.2211
  326TIP3    H122393   1.187   0.587   1.721  0.6330 -0.5028 -1.0052
  326TIP3    H222394   1.330   0.541   1.707  0.3175 -1.7657 -0.2390
  327TIP3   OH222395   4.843   6.705  13.455 -0.1459  0.2255  0.1828
  327TIP3    H122396   4.878   6.702  13.545  0.4582 -0.5876 -0.0643
  327TIP3    H222397   4.905   6.759  13.407 -0.8991  1.3294  0.4164
  328TIP3   OH222398   5.210   1.696   0.385  0.4207  0.1166 -0.6216
  328TIP3    H122399   5.284   1.653   0.428  0.9383 -0.0650 -1.6581
  328TIP3    H222400   5.232   1.694   0.292 -0.8394  0.1773 -0.9345
  329TIP3   OH222401   6.732   1.297  15.938 -0.0636 -0.0227  0.1400
  329TIP3    H122402   6.739   1.225  16.001 -0.4252 -0.3501 -0.1906
  329TIP3    H222403   6.711   1.254  15.855 -1.6445  0.5499  0.2057
  330TIP3   OH222404   5.810   3.339   5.072 -0.3745 -0.4616  0.2747
  330TIP3    H122405   5.901   3.319   5.093  0.3922  0.2689 -2.0145
  330TIP3    H222406   5.813   3.427   5.035 -2.1277 -0.1647  0.7545
  331TIP3   OH222407   1.728   2.844  15.305 -0.1109 -0.0458  0.4544
  331TIP3    H122408   1.683   2.900  15.242 -0.9047 -0.9576  0.1865
  331TIP3    H222409   1.733   2.897  15.384  0.2487  0.8439 -0.1426
  332TIP3   OH222410   4.251   2.062  11.623  0.2653  0.3622  0.5679
  332TIP3    H122411   4.175   2.009  11.651 -1.0803  2.4820  1.1341
  332TIP3    H222412   4.318   2.043  11.689  0.3048 -1.5761  0.0407
  333TIP3   OH222413   1.770   1.700  14.802  0.2073  0.1770 -0.0078
  333TIP3    H122414   1.828   1.764  14.845 -0.1868 -0.6507  1.8488
  333TIP3    H222415   1.817   1.617  14.809 -0.4214 -0.1907 -0.0732
  334TIP3   OH222416   0.120   1.625   0.223  0.3163  0.6304  0.4266
  334TIP3    H122417   0.044   1.574   0.196  1.0903 -0.0528 -0.5669
  334TIP3    H222418   0.195   1.570   0.198  1.1552  0.2489  3.3895
  335TIP3   OH222419   0.430   4.885   5.393 -0.8234  0.3465  0.5760
  335TIP3    H122420   0.490   4.949   5.431  0.3570 -0.6526  0.4463
  335TIP3    H222421   0.391   4.842   5.469  0.8670 -1.0331  0.7018
  336TIP3   OH222422   5.086   2.634  13.082 -0.3508 -0.0129 -0.7394
  336TIP3    H122423   5.080   2.547  13.043  0.7457 -0.5506  0.2205
  336TIP3    H222424   5.013   2.683  13.044 -0.8957 -1.3019 -1.4089
  337TIP3   OH222425   5.819   3.375   0.249 -0.2563  0.5838 -0.3844
  337TIP3    H122426   5.859   3.367   0.163 -1.1544  0.0368 -0.7606
  337TIP3    H222427   5.740   3.427   0.235 -1.2009 -0.7321 -0.1801
  338TIP3   OH222428   4.954   2.932   3.868 -0.2191 -0.2887 -0.3011
  338TIP3    H122429   4.939   2.839   3.851 -1.6347 -0.0332 -0.5832
  338TIP3    H222430   4.998   2.964   3.789  2.6168 -1.1733  0.7668
  339TIP3   OH222431   3.830   3.302   0.152 -0.7408 -0.1936  0.6313
  339TIP3    H122432   3.821   3.300   0.057 -0.1022 -3.2900  0.5296
  339TIP3    H222433   3.923   3.318   0.167 -0.0033 -3.5989  0.4891
  340TIP3   OH222434   3.038   4.798  14.505 -0.0381  0.1867  0.1654
  340TIP3    H122435   2.991   4.856  14.565  0.5821  1.4458 -0.5200
  340TIP3    H222436   3.028   4.711  14.544  2.8488  1.2124  3.8550
  341TIP3   OH222437   1.013   6.125  12.455 -0.0761 -0.0668 -0.0061
  341TIP3    H122438   0.961   6.047  12.440 -0.9239  0.6028 -0.6641
  341TIP3    H222439   0.998   6.147  12.547 -2.1729  0.9233 -0.5094
  342TIP3   OH222440   0.988   1.058  12.884 -0.3338  0.5045 -0.2476
  342TIP3    H122441   1.009   1.077  12.792  0.5632 -2.5790 -0.7910
  342TIP3    H222442   1.072   1.032  12.923 -0.8958  0.7466  1.2005
  343TIP3   OH222443   4.875   6.715   2.756 -0.2645  0.2141  0.4793
  343TIP3    H122444   4.808   6.741   2.819  1.9804 -0.2600  3.2631
  343TIP3    H222445   4.929   6.793   2.744 -1.2766  0.6485 -1.8859
  344TIP3   OH222446   1.686   2.454   0.136  0.2796  0.2095 -0.5518
  344TIP3    H122447   1.710   2.540   0.169 -0.3998  0.2636 -0.1748
  344TIP3    H222448   1.599   2.467   0.099 -1.1892 -0.9288  2.2042
  345TIP3   OH222449   1.598   6.043   2.497  0.8424  0.8160  0.3603
  345TIP3    H122450   1.654   5.976   2.456 -0.5699 -0.0307 -0.2597
  345TIP3    H222451   1.570   6.003   2.579  0.6570  0.9798  0.3760
  346TIP3   OH222452   1.543   5.716  15.644  0.4710  0.1068 -0.3146
  346TIP3    H122453   1.577   5.627  15.641 -1.8436 -0.9748  1.6647
  346TIP3    H222454   1.505   5.724  15.731 -1.9568  1.9817 -1.4070
  347TIP3   OH222455   3.272   2.151  14.109 -0.2362  0.2583  0.3251
  347TIP3    H122456   3.331   2.083  14.076 -0.1467 -0.8235  2.5250
  347TIP3    H222457   3.248   2.202  14.032  2.2323 -0.3000 -0.9037
  348TIP3   OH222458   0.914   2.218   3.376 -0.1192  0.0632  0.3253
  348TIP3    H122459   0.856   2.142   3.388  0.1831 -0.1514  0.4299
  348TIP3    H222460   0.860   2.293   3.400  0.0693 -0.2442  1.8101
  349TIP3   OH222461   0.253   1.444  16.407 -0.5102 -0.2013 -0.0747
  349TIP3    H122462   0.275   1.419  16.496 -1.7581 -1.0281  0.0124
  349TIP3    H222463   0.338   1.458  16.365  0.1007 -0.3241  1.0879
  350TIP3   OH222464   4.198   4.974  15.175 -0.1690 -0.6632  0.2870
  350TIP3    H122465   4.250   4.977  15.095 -0.6981 -0.6372 -0.0586
  350TIP3    H222466   4.121   5.028  15.156 -0.8827 -1.6090  0.3960
  351TIP3   OH222467   0.941   0.404  14.669 -0.0154  0.0296  0.0472
  351TIP3    H122468   0.862   0.403  14.616 -0.4468  1.8561  0.5670
  351TIP3    H222469   0.911   0.428  14.757  0.9050 -1.0783  0.6844
  352TIP3   OH222470   5.453   1.717   2.055  0.4043 -0.7860  0.5494
  352TIP3    H122471   5.540   1.699   2.093  0.7948 -1.7268 -0.7239
  352TIP3    H222472   5.465   1.705   1.961 -0.6798  0.9336  0.1509
  353TIP3   OH222473   4.831   2.648   3.281  0.1854  0.1450  0.8913
  353TIP3    H122474   4.875   2.732   3.266  0.0189  0.1823  0.6038
  353TIP3    H222475   4.901   2.588   3.305  0.1560  0.6624  2.3356
  354TIP3   OH222476   3.540   5.958  11.497  0.1278 -0.9441 -0.6327
  354TIP3    H122477   3.458   5.970  11.546 -0.0549  0.4164 -1.2156
  354TIP3    H222478   3.511   5.933  11.409  0.4134 -2.0529 -0.4324
  355TIP3   OH222479   5.264   1.737  14.190 -0.2553 -0.8497 -0.4804
  355TIP3    H122480   5.254   1.694  14.274 -2.9666  3.2084  1.5869
  355TIP3    H222481   5.188   1.708  14.138 -1.3431  0.2634  0.4194
  356TIP3   OH222482   5.396   6.612   1.396 -0.3622 -0.3735 -0.1616
  356TIP3    H122483   5.306   6.642   1.382 -0.2506 -0.9470 -2.5110
  356TIP3    H222484   5.448   6.660   1.331  0.5709 -2.0024 -0.6861
  357TIP3   OH222485   0.231   4.093  14.460 -0.1450 -0.2730  0.2396
  357TIP3    H122486   0.182   4.079  14.541  0.3000  0.6559  0.6862
  357TIP3    H222487   0.323   4.097  14.488 -0.0905  1.6008 -0.0547
  358TIP3   OH222488   6.300   5.102  14.024  0.2424 -0.4976  0.0665
  358TIP3    H122489   6.207   5.118  14.044  0.1067  1.8498 -1.9615
  358TIP3    H222490   6.348   5.154  14.089  0.0172  0.8548 -0.8195
  359TIP3   OH222491   4.012   6.117  12.005  0.3783 -0.2871  0.1116
  359TIP3    H122492   4.031   6.041  11.950 -1.7402 -1.6649  1.1459
  359TIP3    H222493   3.932   6.154  11.967 -1.2544 -1.3829  2.2199
  360TIP3   OH222494   1.298   3.450  13.443  0.3646  0.1215 -0.2350
  360TIP3    H122495   1.299   3.532  13.492  1.0906 -0.6815  1.1683
  360TIP3    H222496   1.205   3.427  13.438  0.1398  1.0842 -0.7739
  361TIP3   OH222497   2.493   4.349  12.193  0.0949  0.4039  0.0183
  361TIP3    H122498   2.429   4.282  12.216  0.1257  0.3631 -0.0154
  361TIP3    H222499   2.446   4.406  12.131 -0.0269  0.5814  0.2705
  362TIP3   OH222500   5.122   3.294   1.835 -0.2583  0.5963 -0.2346
  362TIP3    H122501   5.162   3.276   1.750 -1.9938 -1.9579 -0.6195
  362TIP3    H222502   5.197   3.307   1.894  1.2811 -3.0102 -1.1103
  363TIP3   OH222503   4.031   5.323  12.643 -0.1149 -0.2038 -0.4515
  363TIP3    H122504   4.039   5.389  12.712  1.8494  0.8100 -1.5695
  363TIP3    H222505   3.980   5.252  12.684  0.5338  0.5666  1.8644
  364TIP3   OH222506   2.348   1.160  14.364  0.0960 -0.4688  0.0707
  364TIP3    H122507   2.382   1.138  14.451  1.2285  0.8500  0.0047
  364TIP3    H222508   2.264   1.116  14.359 -0.2856 -0.0754  2.0928
  365TIP3   OH222509   5.856   2.570  11.735 -0.2644 -0.4027  0.1733
  365TIP3    H122510   5.853   2.522  11.653  0.4505  0.2136 -0.2215
  365TIP3    H222511   5.816   2.655  11.715  1.9838  0.6425 -0.1867
  366TIP3   OH222512   0.052   2.518  14.029  0.0381 -0.3676  0.3197
  366TIP3    H122513   0.049   2.525  13.934 -1.3147 -1.2806  0.2607
  366TIP3    H222514  -0.038   2.533  14.057  0.4464  0.0402  1.4757
  367TIP3   OH222515   5.958   0.782   2.332  0.3699 -0.1074  0.0526
  367TIP3    H122516   5.999   0.740   2.408  1.7130  2.6961  1.0100
  367TIP3    H222517   5.919   0.862   2.367  1.4313  1.5281 -2.2344
  368TIP3   OH222518   6.704   0.811  14.008  0.0978 -0.0469 -0.3483
  368TIP3    H122519   6.772   0.869  14.042 -1.3300 -0.1422  3.0260
  368TIP3    H222520   6.622   0.858  14.023 -0.8046 -0.9393 -2.1380
  369TIP3   OH222521   3.946   0.508   1.134  0.2437 -0.4293 -0.1533
  369TIP3    H122522   3.872   0.557   1.169  1.0848 -0.6838  2.1699
  369TIP3    H222523   3.962   0.439   1.199  3.7417  0.8550  0.5976
  370TIP3   OH222524   1.155   5.613   4.910  0.5762 -0.2590 -0.0251
  370TIP3    H122525   1.105   5.695   4.906 -1.8711 -1.5149  1.8248
  370TIP3    H222526   1.214   5.624   4.984  1.5581  0.4259 -0.8747
  371TIP3   OH222527   0.894   3.142   1.120 -0.0909 -0.0600  0.4812
  371TIP3    H122528   0.989   3.146   1.124 -0.0322 -1.3656  0.9573
  371TIP3    H222529   0.875   3.058   1.077 -1.0276  0.9430 -1.1738
  372TIP3   OH222530   4.762   5.386   5.463 -0.6231  0.1432  0.6697
  372TIP3    H122531   4.779   5.292   5.475 -0.0429  0.2467  0.6855
  372TIP3    H222532   4.674   5.399   5.498 -0.9160 -0.4909  0.1996
  373TIP3   OH222533   0.719   2.122  16.381 -0.4953 -0.8856  0.3397
  373TIP3    H122534   0.703   2.180  16.306  0.8969  0.3654  0.9571
  373TIP3    H222535   0.737   2.036  16.342 -4.9666 -1.6384 -0.5171
  374TIP3   OH222536   0.104   4.375   3.750 -0.2931  0.0111 -0.2873
  374TIP3    H122537   0.189   4.352   3.787 -0.2890  1.0014  0.3496
  374TIP3    H222538   0.113   4.358   3.656 -0.7135 -3.7808  0.2089
  375TIP3   OH222539   0.564   5.986  15.847  0.2241 -0.2824 -0.2144
  375TIP3    H122540   0.531   6.068  15.885  0.6414 -1.3925  2.8447
  375TIP3    H222541   0.647   6.011  15.806  1.0536  0.7038  1.8664
  376TIP3   OH222542   1.740   0.634  11.962 -0.2809  0.2260  0.6226
  376TIP3    H122543   1.802   0.630  12.035  2.9941 -1.2581 -1.9818
  376TIP3    H222544   1.704   0.545  11.957 -1.2140  0.5739  0.9454
  377TIP3   OH222545   5.362   3.441  14.216  0.5877  0.7537 -0.1395
  377TIP3    H122546   5.303   3.366  14.224  0.7178  0.8354  2.4934
  377TIP3    H222547   5.304   3.517  14.226  0.8239  0.8883  0.2543
  378TIP3   OH222548   4.852   1.012  15.844 -0.3347 -0.2836 -0.2770
  378TIP3    H122549   4.786   0.943  15.843 -0.5010 -0.1365  0.4580
  378TIP3    H222550   4.810   1.086  15.886  0.3126 -0.2103  0.2687
  379TIP3   OH222551   3.094   2.772  10.744  0.2676  0.1339  0.2673
  379TIP3    H122552   3.063   2.787  10.654  1.1392 -0.8752 -0.2301
  379TIP3    H222553   3.126   2.858  10.773 -2.0149  0.9730  0.4495
  380TIP3   OH222554   3.244   0.868   3.416 -0.2784 -0.1412 -0.1200
  380TIP3    H122555   3.213   0.782   3.387 -0.5628  0.2992 -1.1970
  380TIP3    H222556   3.251   0.861   3.511 -2.5297 -0.6489  0.0672
  381TIP3   OH222557   2.292   1.337   4.992  0.1945  0.1613  0.1146
  381TIP3    H122558   2.304   1.329   5.087  0.1465  0.2860  0.1316
  381TIP3    H222559   2.280   1.248   4.962 -1.9255  0.2658  0.5129
  382TIP3   OH222560   6.157   0.513   2.933  0.1212  0.2977  0.7299
  382TIP3    H122561   6.207   0.433   2.919  1.1612  0.5854  2.5658
  382TIP3    H222562   6.176   0.538   3.023 -1.2475  1.8864  0.6194
  383TIP3   OH222563   1.376   4.304   3.212 -0.2632  0.1441 -0.3558
  383TIP3    H122564   1.400   4.285   3.122  0.3588 -0.3292 -0.1026
  383TIP3    H222565   1.366   4.399   3.215  2.8457  0.5799 -0.2239
  384TIP3   OH222566   2.055   2.102  16.406 -0.0154 -0.0016  0.1537
  384TIP3    H122567   2.035   2.135  16.318  1.4775  3.3781  0.8864
  384TIP3    H222568   1.987   2.141  16.462 -0.0509 -0.8272  0.6948
  385TIP3   OH222569   4.417   1.408   0.936 -0.3031  0.1365 -0.4484
  385TIP3    H122570   4.364   1.487   0.940  0.5658  0.6964  0.6330
  385TIP3    H222571   4.363   1.341   0.978 -0.5445  0.4664 -0.2241
  386TIP3   OH222572   3.253   4.948  11.429  0.0341 -0.4614 -0.1677
  386TIP3    H122573   3.184   4.904  11.479 -1.2625 -0.5031 -1.8943
  386TIP3    H222574   3.206   5.013  11.376  1.5780  0.9355  0.1073
  387TIP3   OH222575   5.610   4.058   0.589 -0.3938  0.3087 -0.1200
  387TIP3    H122576   5.561   4.134   0.620  0.6337  0.3548  1.5087
  387TIP3    H222577   5.702   4.082   0.600 -0.0512 -1.1289  0.4090
  388TIP3   OH222578   1.001   6.343   1.480  0.3848 -0.4539 -0.2447
  388TIP3    H122579   0.961   6.256   1.489 -0.0191 -0.0741  1.9281
  388TIP3    H222580   1.093   6.330   1.504  0.8123 -0.6261 -1.8394
  389TIP3   OH222581   3.980   3.904   2.957 -0.5195  0.3701 -0.1674
  389TIP3    H122582   3.944   3.873   3.041  0.0378  0.6413  0.1776
  389TIP3    H222583   3.917   3.874   2.892 -1.2830  0.6780  0.4056
  390TIP3   OH222584   5.727   0.454   4.853  0.3464 -0.0395 -0.7227
  390TIP3    H122585   5.811   0.499   4.845  0.3272 -0.2411 -2.1917
  390TIP3    H222586   5.690   0.455   4.765 -0.1887 -1.8816 -0.5637
  391TIP3   OH222587   4.772   0.293  11.081 -0.1119  0.0458 -0.0482
  391TIP3    H122588   4.754   0.212  11.128  0.5054  0.6622  1.3031
  391TIP3    H222589   4.764   0.270  10.989 -0.9226 -1.3068  0.3376
  392TIP3   OH222590   0.005   3.799  17.030 -0.5683  0.1370  0.2890
  392TIP3    H122591  -0.078   3.828  17.068 -1.3460 -0.8956 -0.5498
  392TIP3    H222592  -0.011   3.708  17.005  1.1876 -0.4446  1.1336
  393TIP3   OH222593   4.762   6.316  11.093  0.0069  0.0340 -0.3894
  393TIP3    H122594   4.751   6.329  10.999 -2.3127  1.9507  0.0253
  393TIP3    H222595   4.702   6.244  11.115  0.5233 -0.3922 -0.3574
  394TIP3   OH222596   1.218   0.488   5.454  0.2404  0.2992 -0.0859
  394TIP3    H122597   1.222   0.529   5.541  0.9178  0.4040 -0.1589
  394TIP3    H222598   1.206   0.395   5.472 -1.1405  0.4970  0.0852
  395TIP3   OH222599   1.511   4.800   4.821 -0.1281 -0.0861  0.1174
  395TIP3    H122600   1.483   4.719   4.863 -0.3978 -0.4098 -0.6592
  395TIP3    H222601   1.545   4.772   4.736  0.1992  0.5693  0.0240
  396TIP3   OH222602   0.220   2.170   3.303 -0.1236  0.2750  0.3655
  396TIP3    H122603   0.183   2.251   3.338  0.2941  0.1531  1.1157
  396TIP3    H222604   0.235   2.115   3.381  0.2741 -0.2364 -0.0663
  397TIP3   OH222605   0.301   0.283   6.447 -0.0107 -0.4290 -0.1023
  397TIP3    H122606   0.396   0.293   6.452 -0.1358  2.1332 -1.0287
  397TIP3    H222607   0.287   0.214   6.382  1.1843 -1.3582  0.5905
  398TIP3   OH222608   1.398   5.489   2.079  0.2240  0.0117  0.8046
  398TIP3    H122609   1.347   5.413   2.107 -0.9047  0.4635  0.0544
  398TIP3    H222610   1.413   5.538   2.159 -0.3568 -0.2314  1.0706
  399TIP3   OH222611   5.665   4.340   0.005 -0.2122 -0.0787 -0.3657
  399TIP3    H122612   5.754   4.358   0.033  0.0872 -0.1088 -1.2899
  399TIP3    H222613   5.618   4.422   0.021 -0.2343 -0.3104  0.8983
  400TIP3   OH222614   1.558   4.218   5.422 -0.0775  0.0692 -0.2660
  400TIP3    H122615   1.595   4.232   5.509  0.1921 -1.5967 -0.0788
  400TIP3    H222616   1.501   4.294   5.407  0.6305  0.8620  0.9451
  401TIP3   OH222617   6.156   0.413  13.468 -0.3112 -0.3198 -0.7818
  401TIP3    H122618   6.227   0.452  13.520 -1.5783  1.5131 -0.3271
  401TIP3    H222619   6.200   0.375  13.392  1.4948 -2.1930  1.0934
  402TIP3   OH222620   5.495   4.498  15.735  0.0556 -0.2285 -0.0986
  402TIP3    H122621   5.443   4.424  15.766  1.3227 -1.5369 -1.0265
  402TIP3    H222622   5.581   4.486  15.774  0.9110 -0.4642 -1.9703
  403TIP3   OH222623   4.257   1.802  16.171  0.3072 -0.5382 -0.1806
  403TIP3    H122624   4.227   1.829  16.258 -0.2700 -1.1971 -0.1627
  403TIP3    H222625   4.310   1.874  16.140  0.6924 -0.3792  0.8153
  404TIP3   OH222626   3.520   6.223  11.549 -0.0466  0.8729 -0.0547
  404TIP3    H122627   3.595   6.163  11.552 -1.0014 -0.3683 -0.1648
  404TIP3    H222628   3.463   6.193  11.620 -0.1250  2.2662  0.5050
  405TIP3   OH222629   5.872   2.620   0.307 -0.2372 -0.3785 -0.4262
  405TIP3    H122630   5.907   2.612   0.396  0.0463  0.0747 -0.4921
  405TIP3    H222631   5.884   2.533   0.269 -1.2659 -0.8533  0.2955
  406TIP3   OH222632   0.324   4.318  13.452  0.3166  0.4093  0.1202
  406TIP3    H122633   0.238   4.277  13.468  0.7225 -0.3655  0.3848
  406TIP3    H222634   0.358   4.337  13.539  1.0982 -0.7647  0.0921
  407TIP3   OH222635   5.569   1.142  16.859 -0.0973 -0.3427 -0.3106
  407TIP3    H122636   5.530   1.066  16.817 -0.7281 -0.5138  0.5530
  407TIP3    H222637   5.498   1.205  16.868  0.1947 -0.0279 -0.1460
  408TIP3   OH222638   0.040   4.670   6.699 -0.0175 -0.0839  0.5163
  408TIP3    H122639   0.132   4.696   6.710  0.3403 -1.2452  0.4027
  408TIP3    H222640   0.044   4.583   6.660 -1.1852  0.0993 -0.0625
  409TIP3   OH222641   4.948   4.917   3.494 -0.6030  0.7222  0.1555
  409TIP3    H122642   5.017   4.945   3.434  0.1543  0.1046  0.7142
  409TIP3    H222643   4.876   4.889   3.437  0.1670 -0.0161 -0.4846
  410TIP3   OH222644   3.030   2.052   2.615  0.1002 -0.0497 -0.0320
  410TIP3    H122645   2.948   2.063   2.566  0.5565 -0.0630 -0.8118
  410TIP3    H222646   3.003   2.013   2.698 -0.5913 -0.8742 -0.6304
  411TIP3   OH222647   4.892   2.016  14.929  0.0600 -0.1128  0.1765
  411TIP3    H122648   4.917   1.925  14.911  1.0985  0.3079 -0.6179
  411TIP3    H222649   4.975   2.064  14.925 -0.3917  0.7815  1.2097
  412TIP3   OH222650   5.009   6.117  12.433  0.1989 -0.5763  0.0039
  412TIP3    H122651   5.098   6.105  12.464  0.7129  1.1689 -0.6759
  412TIP3    H222652   5.018   6.137  12.340 -0.8599  0.0873  0.0263
  413TIP3   OH222653   1.809   6.681   5.460  0.3174  0.0413 -0.6441
  413TIP3    H122654   1.802   6.700   5.367 -1.6294  0.1381 -0.5215
  413TIP3    H222655   1.903   6.667   5.475  0.6320 -0.3256 -2.6635
  414TIP3   OH222656   3.734   6.300   0.694  0.9639  0.2197 -0.0558
  414TIP3    H122657   3.772   6.385   0.675 -0.0686  0.7349  0.1044
  414TIP3    H222658   3.649   6.300   0.649  1.0325 -0.8048 -0.2277
  415TIP3   OH222659   4.129   4.683   0.306 -0.1586  0.0374  0.5714
  415TIP3    H122660   4.054   4.629   0.330  0.0384 -0.6037 -0.1974
  415TIP3    H222661   4.168   4.637   0.231 -0.2654  1.5202 -0.4182
  416TIP3   OH222662   4.666   4.163   2.043  0.0590  0.0640  0.3111
  416TIP3    H122663   4.575   4.144   2.018 -0.1504  1.0022  0.3382
  416TIP3    H222664   4.711   4.178   1.960  0.6809 -2.3319  0.1306
  417TIP3   OH222665   3.227   0.996   3.978  0.8491 -0.7411 -0.6228
  417TIP3    H122666   3.274   1.078   3.962  1.3457 -0.9897 -0.4769
  417TIP3    H222667   3.294   0.938   4.014  0.7924 -1.5922 -1.8405
  418TIP3   OH222668   6.426   3.395  12.899  0.6853 -0.8480  0.2122
  418TIP3    H122669   6.453   3.304  12.912  2.0409 -0.3804  0.8775
  418TIP3    H222670   6.509   3.442  12.884  0.0278  0.3111  0.1199
  419TIP3   OH222671   4.582   4.462   3.982 -0.4498  0.2394  0.2663
  419TIP3    H122672   4.551   4.393   3.923 -0.0183  1.6793 -1.7198
  419TIP3    H222673   4.502   4.501   4.016 -0.7047 -0.5522  0.6069
  420TIP3   OH222674   4.492   4.606  14.864  0.1870  0.0607  0.7106
  420TIP3    H122675   4.511   4.698  14.885 -2.0385  0.7153  0.1679
  420TIP3    H222676   4.515   4.598  14.771 -0.1532  0.2730  0.6008
  421TIP3   OH222677   4.815   6.268   2.646 -0.3402 -0.2605  0.1170
  421TIP3    H122678   4.787   6.178   2.633 -0.1096 -0.5909  1.6915
  421TIP3    H222679   4.754   6.303   2.712 -0.0044  0.5205  0.0304
  422TIP3   OH222680   1.783   0.366   0.891  0.2370  0.5058 -0.5881
  422TIP3    H122681   1.751   0.456   0.900 -0.4473  0.1458  0.8780
  422TIP3    H222682   1.758   0.324   0.973  2.4540 -0.4463 -0.3315
  423TIP3   OH222683   5.573   4.266  13.383 -0.0326  0.0331  0.0944
  423TIP3    H122684   5.546   4.211  13.309  0.2900 -1.5958  1.1482
  423TIP3    H222685   5.492   4.304  13.416 -0.5758 -1.5830  0.7043
  424TIP3   OH222686   0.858   5.384   2.478 -0.0180 -0.6734  0.2575
  424TIP3    H122687   0.808   5.332   2.415 -1.2198  0.3987  0.2669
  424TIP3    H222688   0.858   5.473   2.441 -1.8337  0.2836  2.2926
  425TIP3   OH222689   5.064   3.676   3.447 -0.5054 -0.1593 -0.0179
  425TIP3    H122690   4.975   3.647   3.429 -1.2380  1.8079  0.2791
  425TIP3    H222691   5.102   3.605   3.500 -2.3093 -0.4694  0.9391
  426TIP3   OH222692   5.556   4.667   2.263  0.1907  0.0273  0.0473
  426TIP3    H122693   5.541   4.579   2.228 -0.0352 -0.4153  1.2157
  426TIP3    H222694   5.551   4.656   2.358  2.8019  0.8188  0.3448
  427TIP3   OH222695   6.255   1.112  11.132 -0.2562 -0.3102 -0.0102
  427TIP3    H122696   6.273   1.082  11.043  0.8993 -0.6007  0.3018
  427TIP3    H222697   6.314   1.061  11.187 -1.1984 -0.3735  0.9685
  428TIP3   OH222698   1.836   3.367   2.176 -0.0416 -0.6779 -0.6998
  428TIP3    H122699   1.741   3.353   2.182  0.1226 -1.1088  1.5050
  428TIP3    H222700   1.874   3.294   2.225  1.3172  0.7774  0.4944
  429TIP3   OH222701   0.814   5.061  13.965  0.4040  0.0379  0.0524
  429TIP3    H122702   0.871   5.055  13.889  1.9253  0.4108  1.1023
  429TIP3    H222703   0.859   5.011  14.033 -1.9154 -2.0332  0.1959
  430TIP3   OH222704   0.178   5.883   3.810 -0.2496  0.2638 -0.4173
  430TIP3    H122705   0.144   5.844   3.729  1.1282 -2.8551  0.3803
  430TIP3    H222706   0.136   5.833   3.880 -0.6608  2.2590  0.8322
  431TIP3   OH222707   0.352   3.029  13.951 -0.1983  0.1004 -0.1665
  431TIP3    H122708   0.360   2.971  13.876  0.2253  0.0654 -0.0978
  431TIP3    H222709   0.412   3.102  13.932  0.5739 -0.3297  0.5186
  432TIP3   OH222710   0.910   4.218   5.032  0.1379 -0.0957  0.0731
  432TIP3    H122711   0.883   4.178   5.115 -0.9497  1.3200  0.4313
  432TIP3    H222712   0.839   4.278   5.009 -1.1856 -2.6967 -3.5452
  433TIP3   OH222713   5.382   1.688   5.344 -0.2196 -1.0861  0.2783
  433TIP3    H122714   5.393   1.612   5.287 -3.0199 -2.1758  0.9942
  433TIP3    H222715   5.289   1.688   5.366  0.3783  0.2527  3.4586
  434TIP3   OH222716   4.323   0.702  15.221  0.2870 -0.3020 -0.3512
  434TIP3    H122717   4.332   0.796  15.237 -0.0963 -0.2402 -0.4959
  434TIP3    H222718   4.413   0.670  15.214  0.5014 -0.3587  2.0363
  435TIP3   OH222719   5.823   4.059  15.429 -0.0019 -0.6981  0.2401
  435TIP3    H122720   5.753   3.999  15.404 -0.6570 -0.2871  1.0394
  435TIP3    H222721   5.805   4.080  15.520 -0.3112  1.3797 -0.2470
  436TIP3   OH222722   2.162   6.207   1.449  0.2270 -0.0902 -0.6290
  436TIP3    H122723   2.106   6.280   1.422 -0.2603 -0.5499 -0.8632
  436TIP3    H222724   2.129   6.132   1.401 -1.2919 -1.1557  1.8422
  437TIP3   OH222725   1.030   4.500   3.793 -0.1605  0.1182 -0.3269
  437TIP3    H122726   0.969   4.455   3.734  0.6839  1.0346 -1.9717
  437TIP3    H222727   1.115   4.492   3.749 -0.0051  3.5684 -0.9263
  438TIP3   OH222728   1.752   1.076  12.841 -0.0685  0.2390 -0.4446
  438TIP3    H122729   1.831   1.130  12.840  0.7162 -0.8764 -0.8254
  438TIP3    H222730   1.683   1.135  12.872  0.7362  1.4602 -0.9026
  439TIP3   OH222731   0.864   1.126  15.614 -0.3054  0.1695  0.0937
  439TIP3    H122732   0.915   1.051  15.645  0.5393  0.5630 -0.3016
  439TIP3    H222733   0.917   1.202  15.638 -0.9636  0.6219  0.1346
  440TIP3   OH222734   3.933   3.104  17.000  0.3502 -0.3722  0.1513
  440TIP3    H122735   3.872   3.177  16.995  0.0936 -0.5673  0.3862
  440TIP3    H222736   4.015   3.138  16.963  0.1153 -0.0938 -0.1127
  441TIP3   OH222737   0.939   2.117   5.145 -0.0624 -0.3069 -0.3835
  441TIP3    H122738   0.947   2.133   5.239 -1.2922  3.4736 -0.7674
  441TIP3    H222739   0.852   2.079   5.135 -0.6240  0.8366 -0.0657
  442TIP3   OH222740   4.664   4.993   1.943 -0.1280 -0.0804 -0.5752
  442TIP3    H122741   4.692   4.905   1.916  0.5884 -0.2909  0.7631
  442TIP3    H222742   4.733   5.050   1.910  1.1464 -0.4217  1.3469
  443TIP3   OH222743   1.519   2.339  16.784 -0.1248 -0.2016 -0.6501
  443TIP3    H122744   1.536   2.286  16.705 -1.4877 -1.5736 -0.0724
  443TIP3    H222745   1.443   2.297  16.825 -1.3176  2.2636 -0.1600
  444TIP3   OH222746   1.282   2.332   5.857  0.0391  0.3259 -0.0859
  444TIP3    H122747   1.321   2.287   5.932  0.3833 -2.5312 -1.8177
  444TIP3    H222748   1.204   2.374   5.892  1.0134  0.3968  2.1414
  445TIP3   OH222749   1.552   4.016   2.093 -0.3720 -0.3622  0.1429
  445TIP3    H122750   1.500   3.938   2.070 -1.3757  0.4135 -0.3409
  445TIP3    H222751   1.545   4.072   2.016  1.8231 -0.5164 -0.2190
  446TIP3   OH222752   1.736   5.763   6.650  0.2265 -0.2092 -0.3439
  446TIP3    H122753   1.757   5.673   6.628 -0.5104 -0.1235 -1.5057
  446TIP3    H222754   1.650   5.778   6.609  0.8451  1.3510 -1.1375
  447TIP3   OH222755   0.770   0.502   3.075 -0.0605  0.3970  0.0135
  447TIP3    H122756   0.743   0.592   3.091  0.2215  0.6286 -0.7779
  447TIP3    H222757   0.806   0.503   2.987  0.2161 -0.4326  0.1084
  448TIP3   OH222758   0.407   0.414  17.022  0.4140 -0.2906  0.3087
  448TIP3    H122759   0.489   0.376  16.991  0.1363  1.4302 -3.1044
  448TIP3    H222760   0.424   0.508  17.027 -0.4827 -0.1927  2.8718
  449TIP3   OH222761   4.217   3.368  12.763  0.0725  0.1991 -0.0425
  449TIP3    H122762   4.220   3.464  12.768  0.9624  0.1061  3.1413
  449TIP3    H222763   4.142   3.350  12.705 -0.8206  2.8048  0.1491
  450TIP3   OH222764   5.120   0.736   4.734  0.4202 -0.1092  0.0748
  450TIP3    H122765   5.144   0.816   4.782  0.3568 -1.3101  2.2352
  450TIP3    H222766   5.030   0.750   4.706  0.7840  1.0167 -0.5840
  451TIP3   OH222767   3.290   1.068   5.521  0.0569  0.2422  0.0826
  451TIP3    H122768   3.369   1.031   5.562  0.4649  0.6932 -0.2932
  451TIP3    H222769   3.299   1.162   5.534  1.1984  0.6176 -2.7477
  452TIP3   OH222770   0.144   1.455  15.712 -0.0285 -0.1493  0.1817
  452TIP3    H122771   0.091   1.422  15.639 -0.3634  0.6223  0.0588
  452TIP3    H222772   0.196   1.380  15.740  3.4451  0.4903 -3.6899
  453TIP3   OH222773   3.455   1.766  16.605  0.2585 -0.2956  0.2565
  453TIP3    H122774   3.481   1.807  16.522 -2.1303  1.3399  0.2332
  453TIP3    H222775   3.535   1.769  16.659  0.8921  2.0663 -0.6722
  454TIP3   OH222776   1.047   1.962  12.401  0.1405  0.3852  0.2457
  454TIP3    H122777   1.112   2.031  12.411 -0.1863  0.7283  0.0109
  454TIP3    H222778   1.037   1.926  12.489  1.4532 -0.4161  0.1040
  455TIP3   OH222779   2.415   4.871   6.470 -0.4260  0.6621 -0.4748
  455TIP3    H122780   2.483   4.919   6.518  0.2865 -0.2590 -0.5563
  455TIP3    H222781   2.461   4.828   6.398 -0.8689 -0.9672  0.1771
  456TIP3   OH222782   1.971   5.233   4.711  0.2785 -0.0552 -0.0052
  456TIP3    H122783   1.984   5.165   4.777 -0.0502 -0.3683 -0.2569
  456TIP3    H222784   2.057   5.242   4.668  0.8137  0.9696  1.2144
  457TIP3   OH222785   2.206   3.722  16.084 -0.1331 -0.6441 -0.3121
  457TIP3    H122786   2.253   3.803  16.066  1.9773 -1.8257 -0.5437
  457TIP3    H222787   2.134   3.747  16.140  0.8323  1.3071  0.1345
  458TIP3   OH222788   3.163   2.687  14.567  0.2211 -0.0436  0.2268
  458TIP3    H122789   3.077   2.729  14.566  0.1006  0.6485  5.7177
  458TIP3    H222790   3.225   2.760  14.573  0.9709 -0.5774 -0.8171
  459TIP3   OH222791   1.741   2.763  16.200 -0.0324  0.5425 -0.0276
  459TIP3    H122792   1.755   2.854  16.176  0.1010  0.3826 -0.5769
  459TIP3    H222793   1.750   2.762  16.295 -1.3899  1.3271  0.1261
  460TIP3   OH222794   2.434   5.715   1.961  0.0678 -0.5639  0.0322
  460TIP3    H122795   2.516   5.764   1.965 -0.6693  0.6816  0.4533
  460TIP3    H222796   2.460   5.627   1.932  1.5597 -0.2473  0.3142
  461TIP3   OH222797   0.313   2.607   1.725 -0.0298  0.4905 -0.1729
  461TIP3    H122798   0.342   2.572   1.810  0.1571 -0.8207 -0.7484
  461TIP3    H222799   0.217   2.605   1.730 -0.0343  1.4383  0.3917
  462TIP3   OH222800   4.584   4.000  15.605  0.0167  0.6325 -0.4264
  462TIP3    H122801   4.664   3.979  15.557 -0.2224  1.2970 -1.1437
  462TIP3    H222802   4.557   4.085  15.570 -0.5420  0.8120  0.4098
  463TIP3   OH222803   1.654   6.701   2.521  1.0010 -0.0422 -0.4940
  463TIP3    H122804   1.698   6.761   2.461  0.0225  1.1587 -0.0651
  463TIP3    H222805   1.693   6.720   2.607 -0.5854  1.3852 -0.0199
  464TIP3   OH222806   6.611   6.049   0.525  0.1060 -0.1775 -0.1366
  464TIP3    H122807   6.652   6.106   0.590 -0.5549 -0.2077  0.3109
  464TIP3    H222808   6.598   5.966   0.571 -1.3825  0.1435  0.0482
  465TIP3   OH222809   3.891   4.916   6.011  0.3653  0.3790 -0.4748
  465TIP3    H122810   3.875   4.827   5.979  0.4422 -0.0640  0.6914
  465TIP3    H222811   3.985   4.919   6.027  0.0478 -0.2014  1.9128
  466TIP3   OH222812   5.265   5.538  12.767  0.0887 -0.3414 -0.3975
  466TIP3    H122813   5.298   5.570  12.850 -0.8372 -3.2563  1.2483
  466TIP3    H222814   5.339   5.547  12.707  1.7049 -0.6223  1.4399
  467TIP3   OH222815   3.185   2.715   1.557  0.2801 -0.0593  0.2702
  467TIP3    H122816   3.158   2.801   1.589 -1.7046 -0.5483  0.0244
  467TIP3    H222817   3.211   2.730   1.466  2.3394  0.6657  0.9134
  468TIP3   OH222818   4.410   4.566  10.703  0.1680 -0.4139  0.2779
  468TIP3    H122819   4.323   4.603  10.690 -0.4404 -1.4913  1.1371
  468TIP3    H222820   4.430   4.522  10.620  1.0469  2.0285 -0.8834
  469TIP3   OH222821   1.781   0.024  13.873  0.1681  0.1628 -0.0017
  469TIP3    H122822   1.745   0.112  13.884 -1.4961 -0.7468  2.8431
  469TIP3    H222823   1.755  -0.002  13.785 -3.1667  0.9468  0.6455
  470TIP3   OH222824   6.255   2.118   0.793 -0.5936  0.2555 -0.0433
  470TIP3    H122825   6.281   2.026   0.789 -1.0520 -0.0261  2.2282
  470TIP3    H222826   6.329   2.162   0.835 -0.5418  0.8893 -0.7613
  471TIP3   OH222827   2.583   4.492  12.428 -0.6075 -0.0264 -0.1620
  471TIP3    H122828   2.495   4.516  12.399 -0.9092  1.6289  1.8270
  471TIP3    H222829   2.621   4.445  12.354 -2.7889  0.1008 -1.4606
  472TIP3   OH222830   1.186   0.860  15.361  0.3668  0.2681 -0.3035
  472TIP3    H122831   1.196   0.895  15.450 -0.2287  0.3673 -0.2713
  472TIP3    H222832   1.260   0.896  15.313  0.9132 -0.0910  0.2462
  473TIP3   OH222833   5.139   1.049  12.699  0.1346 -0.5794  0.0726
  473TIP3    H122834   5.158   0.958  12.724  0.0944 -0.1104  1.9273
  473TIP3    H222835   5.209   1.100  12.739 -0.5805  0.3382  0.1807
  474TIP3   OH222836   3.713   2.503   4.781 -0.7331  0.8441 -0.1573
  474TIP3    H122837   3.635   2.454   4.756 -1.6667  1.5250  1.2663
  474TIP3    H222838   3.742   2.546   4.701 -1.8942  0.6858 -0.6735
  475TIP3   OH222839   1.829   1.504  14.101  0.0445  0.4072  0.2248
  475TIP3    H122840   1.822   1.409  14.111 -1.6018 -0.1261 -4.0193
  475TIP3    H222841   1.746   1.537  14.135  0.5425  0.3722  1.5345
  476TIP3   OH222842   1.933   6.774   4.957  0.6029  0.4257  0.1712
  476TIP3    H122843   1.936   6.748   5.049 -1.4106  0.7707  0.3913
  476TIP3    H222844   1.968   6.864   4.956  0.2555  0.5715  0.6770
  477TIP3   OH222845   3.816   0.152  11.357  0.3806  0.2525  0.2804
  477TIP3    H122846   3.862   0.072  11.383  0.2705 -0.1000 -0.5592
  477TIP3    H222847   3.850   0.172  11.270  0.3027  1.0459  0.4246
  478TIP3   OH222848   2.018   0.853   0.261 -0.0797  0.0235 -0.7574
  478TIP3    H122849   2.050   0.918   0.198  0.4209 -0.3510 -0.8935
  478TIP3    H222850   2.090   0.843   0.323 -0.7544  0.7648  0.1844
  479TIP3   OH222851   3.487   1.598  14.797 -0.0432 -0.9539 -0.9505
  479TIP3    H122852   3.467   1.576  14.706 -1.6455  2.0881 -1.4762
  479TIP3    H222853   3.422   1.549  14.848 -3.0783  1.5990 -2.0069
  480TIP3   OH222854   6.138   6.047   1.565 -0.0208 -0.0105  0.6476
  480TIP3    H122855   6.150   5.952   1.568  1.7734  0.1883  1.1309
  480TIP3    H222856   6.049   6.059   1.532 -0.5378 -1.8600  1.2421
  481TIP3   OH222857   1.549   4.820   6.331  0.1805  0.8370 -0.0172
  481TIP3    H122858   1.627   4.772   6.358  0.0699  0.1591 -0.8593
  481TIP3    H222859   1.542   4.891   6.395 -0.9760 -1.5391  2.7218
  482TIP3   OH222860   0.001   5.342   6.459  0.3869 -0.0666  0.2174
  482TIP3    H122861  -0.026   5.403   6.528  1.4653  2.2285 -1.2631
  482TIP3    H222862  -0.063   5.355   6.390  0.7682 -0.4388 -0.2106
  483TIP3   OH222863   5.939   4.800   4.808 -0.3470  0.2101 -0.0941
  483TIP3    H122864   6.033   4.815   4.823  0.3810 -2.0372 -1.8788
  483TIP3    H222865   5.912   4.875   4.754  0.5295  0.6165  0.0050
  484TIP3   OH222866   2.362   5.345   2.935  0.1769 -0.6010  0.1895
  484TIP3    H122867   2.312   5.372   2.858  1.6443 -0.4165 -0.7256
  484TIP3    H222868   2.345   5.252   2.943  1.9961 -1.2145 -1.9559
  485TIP3   OH222869   1.392   4.883  14.113 -0.1522 -0.5605 -0.4406
  485TIP3    H122870   1.329   4.930  14.167 -2.0030 -1.4258 -1.7480
  485TIP3    H222871   1.477   4.917  14.140 -0.9740 -0.8565  2.8698
  486TIP3   OH222872   5.172   5.136  11.706 -0.0511 -0.2110 -0.0879
  486TIP3    H122873   5.242   5.098  11.759  0.5720  1.2849  0.1866
  486TIP3    H222874   5.169   5.081  11.628  1.0852 -0.5960  0.1226
  487TIP3   OH222875   0.264   2.682  16.612 -0.3045 -0.2485 -0.4269
  487TIP3    H122876   0.331   2.748  16.630 -1.4232  0.8457 -0.0943
  487TIP3    H222877   0.188   2.733  16.584 -1.7372 -1.2392  1.4216
  488TIP3   OH222878   6.560   2.922  16.547 -0.1174  0.1513 -0.6709
  488TIP3    H122879   6.498   2.850  16.535 -0.6182  0.5529 -0.5199
  488TIP3    H222880   6.533   2.962  16.630  0.1961  0.4793 -0.7277
  489TIP3   OH222881   1.251   3.294   2.927  0.0238  0.6472  0.2816
  489TIP3    H122882   1.180   3.333   2.877  0.5052  0.7663 -0.3217
  489TIP3    H222883   1.325   3.293   2.866 -0.1098 -1.6887  0.0742
  490TIP3   OH222884   6.336   3.062  15.400 -0.2586 -0.6669  0.1552
  490TIP3    H122885   6.373   3.074  15.313 -1.4286 -0.0452 -0.2734
  490TIP3    H222886   6.309   2.970  15.403 -0.9860 -0.4800 -0.4538
  491TIP3   OH222887   5.207   5.085   6.503 -0.7278 -0.6188  0.2283
  491TIP3    H122888   5.133   5.143   6.519 -0.0430 -0.0055  1.2288
  491TIP3    H222889   5.267   5.137   6.449 -0.8924 -1.0186 -0.3492
  492TIP3   OH222890   1.170   2.264  12.336  0.3795 -0.3791 -0.2226
  492TIP3    H122891   1.165   2.241  12.243 -0.3533 -4.2517  0.5985
  492TIP3    H222892   1.079   2.272  12.364  0.5523 -0.5804  0.4147
  493TIP3   OH222893   4.092   6.223   4.981  0.3221 -0.3785  0.0489
  493TIP3    H122894   4.082   6.313   5.012 -0.0749 -0.5665  0.4865
  493TIP3    H222895   4.069   6.169   5.057 -0.6359 -0.8513 -0.5469
  494TIP3   OH222896   2.870   4.553  15.653 -0.1523  0.0717 -0.0248
  494TIP3    H122897   2.897   4.631  15.701  0.7630  0.6993 -1.4807
  494TIP3    H222898   2.783   4.574  15.619  0.0418  0.4120 -0.3096
  495TIP3   OH222899   5.222   1.377   1.606  0.4025 -0.2719  0.6590
  495TIP3    H122900   5.160   1.437   1.648 -0.2095  1.1705 -2.1039
  495TIP3    H222901   5.192   1.290   1.633 -2.9811  0.3543 -0.6246
  496TIP3   OH222902   5.572   6.706  11.525  0.0918 -0.4985 -0.3108
  496TIP3    H122903   5.563   6.757  11.605 -2.9007 -1.1730 -0.0987
  496TIP3    H222904   5.554   6.768  11.454  2.4194  0.0228 -0.5159
  497TIP3   OH222905   6.620   0.302  12.039 -0.0321  0.4102 -0.6310
  497TIP3    H122906   6.667   0.375  12.078  0.4387 -0.5081  0.5757
  497TIP3    H222907   6.575   0.340  11.963  0.3348  1.8962 -0.1331
  498TIP3   OH222908   0.754   4.695   6.328 -0.1750 -0.0795  0.4564
  498TIP3    H122909   0.819   4.748   6.283  0.8910  0.6147  2.6829
  498TIP3    H222910   0.794   4.608   6.334  0.5663  0.3325  1.7735
  499TIP3   OH222911   0.630   1.359   3.789 -0.3226 -0.2204 -0.6878
  499TIP3    H122912   0.578   1.404   3.855  1.1078  2.9865 -1.5506
  499TIP3    H222913   0.719   1.393   3.802  0.2204 -0.3686 -3.4938
  500TIP3   OH222914   6.253   0.203   1.540  1.2991 -0.4346 -0.0836
  500TIP3    H122915   6.332   0.172   1.496  0.7424 -1.0662 -0.6595
  500TIP3    H222916   6.193   0.225   1.469  0.0372 -2.3487  0.3134
  501TIP3   OH222917   5.779   4.998   4.678  0.0485 -0.4033  0.0319
  501TIP3    H122918   5.801   5.052   4.602  1.7499  0.5868  1.1511
  501TIP3    H222919   5.713   4.937   4.646  0.4943  0.1741 -2.1594
  502TIP3   OH222920   2.181   0.329   1.616 -0.3874 -0.0948 -0.6480
  502TIP3    H122921   2.259   0.354   1.567 -0.6559  1.0662 -0.5143
  502TIP3    H222922   2.129   0.410   1.622 -0.1655 -0.0353  1.8805
  503TIP3   OH222923   6.403   3.027  10.845 -0.0624  0.4086  0.1495
  503TIP3    H122924   6.348   2.953  10.869  0.8208 -0.9734 -1.7958
  503TIP3    H222925   6.408   3.081  10.924 -2.5620 -0.4181  0.9417
  504TIP3   OH222926   3.238   4.257  13.527  0.9284  0.0865 -0.0100
  504TIP3    H122927   3.187   4.276  13.606 -1.1329  4.0404 -1.9580
  504TIP3    H222928   3.172   4.231  13.463  2.1103  0.0684 -1.2450
  505TIP3   OH222929   4.064   5.518   2.525  0.2957  0.1372  0.7086
  505TIP3    H122930   4.059   5.590   2.462 -0.7020 -0.2680  0.2992
  505TIP3    H222931   3.987   5.530   2.581  1.1990  0.5279  1.9208
  506TIP3   OH222932   4.416   5.098   5.624  0.3641  0.3312  0.5742
  506TIP3    H122933   4.359   5.131   5.555  0.9958 -0.5085 -0.3653
  506TIP3    H222934   4.409   5.164   5.694  0.6350  1.8145 -0.7372
  507TIP3   OH222935   6.616   2.558  16.320 -0.3003  0.0372  0.6550
  507TIP3    H122936   6.672   2.541  16.244  0.6979 -3.0390  1.8845
  507TIP3    H222937   6.544   2.610  16.286  0.9678  0.2380 -2.0007
  508TIP3   OH222938   4.922   2.898   3.068 -0.4295  0.3469  0.3916
  508TIP3    H122939   4.908   2.870   2.977 -1.5762  1.8267  0.0866
  508TIP3    H222940   5.009   2.937   3.067  0.5421 -1.6708  0.4826
  509TIP3   OH222941   4.195   4.528  12.199  0.2589 -0.7557 -0.4233
  509TIP3    H122942   4.204   4.454  12.139 -0.1106 -1.8097  0.7673
  509TIP3    H222943   4.105   4.559  12.187  0.0860 -1.1672 -0.2023
  510TIP3   OH222944   5.753   0.408   5.372 -0.3336  0.1584 -0.6041
  510TIP3    H122945   5.792   0.437   5.454 -1.0828  0.3718 -0.3102
  510TIP3    H222946   5.815   0.345   5.336  1.1739  1.8147 -1.0764
  511TIP3   OH222947   3.383   0.368   5.207 -0.9560  0.4845  0.0537
  511TIP3    H122948   3.384   0.402   5.117 -0.0629  0.8100  0.1866
  511TIP3    H222949   3.325   0.427   5.254 -3.5070 -1.1000 -0.8282
  512TIP3   OH222950   3.693   4.178   1.800  0.2609 -0.3502 -0.7596
  512TIP3    H122951   3.687   4.140   1.888  1.5293 -1.1781 -1.0070
  512TIP3    H222952   3.697   4.103   1.741  1.8559  0.1328 -1.3299
  513TIP3   OH222953   4.403   3.659  13.502 -0.1701  0.4435 -0.9391
  513TIP3    H122954   4.390   3.602  13.578  0.2487  1.2518 -0.2429
  513TIP3    H222955   4.327   3.643  13.447 -0.9810  0.5681  0.1190
  514TIP3   OH222956   1.536   5.847  16.999  0.0521 -0.3128  0.4889
  514TIP3    H122957   1.576   5.816  17.080 -0.9188 -1.3513  0.5958
  514TIP3    H222958   1.467   5.783  16.980 -0.4889  0.5405 -0.5468
  515TIP3   OH222959   3.887   6.360   1.612 -0.1074  0.4571  0.6000
  515TIP3    H122960   3.879   6.427   1.680 -0.5154  0.1995  0.8124
  515TIP3    H222961   3.820   6.382   1.548 -1.5633 -0.8221  1.6147
  516TIP3   OH222962   2.795   0.031  12.542  0.0492 -0.2876  0.1201
  516TIP3    H122963   2.737   0.017  12.467  0.9188 -1.9435 -0.2829
  516TIP3    H222964   2.878  -0.008  12.516  0.7774  0.3220  1.4339
  517TIP3   OH222965   2.062   6.006   5.006 -0.5740 -0.4037  0.0514
  517TIP3    H122966   2.107   6.062   5.070  0.2011  0.5726 -1.3068
  517TIP3    H222967   2.090   5.917   5.028 -0.2968 -0.0897  1.0382
  518TIP3   OH222968   2.885   3.397   0.590 -0.4054 -0.4363  0.5073
  518TIP3    H122969   2.803   3.425   0.548  0.0280 -1.7603 -1.3269
  518TIP3    H222970   2.926   3.478   0.619 -1.6723  0.3646  0.1397
  519TIP3   OH222971   1.190   1.069   3.628 -0.2540  0.0372 -0.2793
  519TIP3    H122972   1.133   1.005   3.671 -1.2551  1.1608  0.1545
  519TIP3    H222973   1.246   1.102   3.698  0.4695 -0.5557 -0.5638
  520TIP3   OH222974   1.123   4.034   5.225  0.3024 -0.0050 -0.6574
  520TIP3    H122975   1.164   4.004   5.305  0.1174  2.5841  0.5129
  520TIP3    H222976   1.191   4.083   5.179 -0.9527  3.3686  0.7631
  521TIP3   OH222977   4.230   2.772  15.970 -0.1325 -0.1875 -0.0450
  521TIP3    H122978   4.323   2.775  15.994 -0.0759 -3.3358  0.5211
  521TIP3    H222979   4.218   2.847  15.912  2.7719  0.2796 -0.1914
  522TIP3   OH222980   2.484   3.236   3.901  0.4023  0.7741  0.4399
  522TIP3    H122981   2.434   3.170   3.852 -0.6343  3.1497 -1.9455
  522TIP3    H222982   2.445   3.236   3.988 -0.2443 -1.0262  0.1977
  523TIP3   OH222983   1.472   6.224   2.340 -0.1343 -0.5049  0.7733
  523TIP3    H122984   1.380   6.198   2.341  0.2475 -2.5837 -2.6488
  523TIP3    H222985   1.515   6.162   2.400 -0.7876 -0.0411  1.7590
  524TIP3   OH222986   1.054   0.875   5.654 -0.0233  0.8822  0.0507
  524TIP3    H122987   1.086   0.873   5.744  1.7364  0.4293 -0.5321
  524TIP3    H222988   1.005   0.957   5.647 -0.0910  0.9661  1.3753
  525TIP3   OH222989   3.289   0.695  11.437  0.1232 -0.0584 -0.3872
  525TIP3    H122990   3.366   0.640  11.450  0.5228  0.7613  0.9368
  525TIP3    H222991   3.219   0.633  11.416  0.8931 -0.9160 -0.4863
  526TIP3   OH222992   4.406   4.175  16.578  0.0731 -0.2579 -0.3048
  526TIP3    H122993   4.354   4.210  16.505 -1.1387 -2.8188 -0.7651
  526TIP3    H222994   4.469   4.244  16.597 -2.1297  2.1664 -1.1178
  527TIP3   OH222995   6.325   2.772  16.133 -0.1230 -0.5244  0.9902
  527TIP3    H122996   6.299   2.857  16.169 -0.8326 -0.8266  1.2249
  527TIP3    H222997   6.414   2.785  16.102 -0.4096  0.4534  0.5265
  528TIP3   OH222998   3.957   4.656  12.193 -0.0989  1.2303 -0.1938
  528TIP3    H122999   3.943   4.662  12.287  0.6809  1.9668 -0.1033
  528TIP3    H223000   3.876   4.620  12.158  0.4586 -1.3437  0.9938
  529TIP3   OH223001   4.699   4.568   2.986  0.0875 -1.0549 -0.6762
  529TIP3    H123002   4.650   4.493   3.020 -0.3258 -0.8780 -0.8841
  529TIP3    H223003   4.670   4.577   2.895  0.9336 -1.3085 -0.9834
  530TIP3   OH223004   2.798   4.313  16.552 -0.4697 -0.8256  0.7924
  530TIP3    H123005   2.755   4.399  16.550 -1.0331 -1.1147  0.0435
  530TIP3    H223006   2.882   4.330  16.593 -0.0841  0.3140 -0.3930
  531TIP3   OH223007   4.273   1.063  16.379  0.2418 -0.3621 -0.2678
  531TIP3    H123008   4.349   1.008  16.359  1.1668  1.3276 -1.6760
  531TIP3    H223009   4.202   1.023  16.329  1.3606  0.7566 -2.9404
  532TIP3   OH223010   0.818   6.048  15.741 -0.1592  0.2868  0.3820
  532TIP3    H123011   0.884   6.009  15.798 -0.2195  0.8968  0.8784
  532TIP3    H223012   0.804   5.983  15.672 -0.2409 -0.5485  1.1802
  533TIP3   OH223013   2.856   1.641   3.180  0.0252  0.0700  0.1854
  533TIP3    H123014   2.811   1.576   3.235  0.1804 -0.7418 -0.6128
  533TIP3    H223015   2.942   1.602   3.164 -0.0176  0.3029 -0.6232
  534TIP3   OH223016   1.369   2.556   0.223 -0.1478 -0.1195 -0.0403
  534TIP3    H123017   1.406   2.487   0.279 -0.4367  0.7085  1.1994
  534TIP3    H223018   1.279   2.527   0.207 -0.3863  0.1520  0.7922
  535TIP3   OH223019   0.248   5.691  16.934 -0.1539 -0.1862 -0.4731
  535TIP3    H123020   0.324   5.692  16.877  1.0565 -0.6062  1.0572
  535TIP3    H223021   0.251   5.774  16.981  0.2926 -0.8520  0.7240
  536TIP3   OH223022   2.519   4.007  12.015  0.3154  0.6765  0.2021
  536TIP3    H123023   2.599   3.960  11.992  0.9027  1.6944  0.1241
  536TIP3    H223024   2.538   4.098  11.996 -0.1950  1.1979  1.9684
  537TIP3   OH223025   5.100   3.832  13.423  0.6448 -0.0343  0.0790
  537TIP3    H123026   5.142   3.862  13.504  1.8467 -0.0697 -0.5005
  537TIP3    H223027   5.138   3.745  13.408  2.1613  0.8816 -1.6842
  538TIP3   OH223028   2.907   0.837   4.899 -0.2639  0.1978  0.2150
  538TIP3    H123029   2.901   0.756   4.848 -1.0885  0.4335 -0.0886
  538TIP3    H223030   3.000   0.859   4.898 -0.0386 -0.7155  0.2584
  539TIP3   OH223031   2.793   0.530  14.699 -0.6245  0.0010 -0.1261
  539TIP3    H123032   2.838   0.608  14.732 -0.4120 -0.7024  1.3371
  539TIP3    H223033   2.864   0.471  14.672 -0.7966  0.8072 -2.5749
  540TIP3   OH223034   4.725   5.404   4.047 -0.0347 -0.2713 -0.1929
  540TIP3    H123035   4.791   5.419   3.979  0.2913 -0.5627  0.0567
  540TIP3    H223036   4.647   5.375   3.999  0.3093 -0.8452 -0.4173
  541TIP3   OH223037   0.114   2.916  12.091  0.7174  0.2817  0.7916
  541TIP3    H123038   0.205   2.886  12.096  1.1437  1.1845 -0.7803
  541TIP3    H223039   0.119   3.010  12.104 -0.0120  0.3160  0.8505
  542TIP3   OH223040   4.904   4.831   2.539 -0.1733  0.3327  0.1374
  542TIP3    H123041   4.968   4.830   2.468  0.3321 -0.7209  0.5818
  542TIP3    H223042   4.821   4.852   2.496  0.0570 -0.6263 -0.8391
  543TIP3   OH223043   2.927   2.775  15.269  0.4617 -0.9689  0.5597
  543TIP3    H123044   2.951   2.705  15.331  1.3631  0.0431  1.4041
  543TIP3    H223045   2.906   2.849  15.325 -1.5749 -0.8488 -0.2896
  544TIP3   OH223046   2.922   4.948   5.218 -0.4207 -0.4239  0.1235
  544TIP3    H123047   2.977   5.025   5.234 -0.2753 -0.8180  1.6912
  544TIP3    H223048   2.972   4.895   5.157  0.2769 -0.0820  0.3777
  545TIP3   OH223049   4.050   5.894  13.143  0.5697  0.1120 -0.3123
  545TIP3    H123050   4.104   5.954  13.092  0.5172  1.3713  1.0300
  545TIP3    H223051   4.106   5.818  13.158  1.0142  0.2583 -1.1596
  546TIP3   OH223052   4.691   1.667  15.708 -0.1008 -0.1437 -0.0557
  546TIP3    H123053   4.605   1.706  15.723  0.1293 -0.0255  1.0990
  546TIP3    H223054   4.687   1.632  15.619 -1.4118 -0.3362  0.0614
  547TIP3   OH223055   4.194   0.949   5.412  0.2896 -0.3367  0.2184
  547TIP3    H123056   4.266   0.891   5.386  0.0481 -0.3415 -0.4407
  547TIP3    H223057   4.237   1.021   5.457  0.9771  0.9080 -2.2564
  548TIP3   OH223058   2.875   0.915  15.796  0.4959 -0.1183 -0.3324
  548TIP3    H123059   2.880   1.003  15.759  0.0142 -0.6330 -1.6543
  548TIP3    H223060   2.912   0.858  15.729 -0.4534 -1.0831 -0.0612
  549TIP3   OH223061   5.975   4.281  11.533  0.0197 -0.1604 -0.3517
  549TIP3    H123062   6.059   4.240  11.551 -0.5775 -0.3446  2.6019
  549TIP3    H223063   5.918   4.208  11.507 -0.2436 -0.8258  1.8582
  550TIP3   OH223064   6.034   1.528  11.387 -0.1184  0.0232 -0.3819
  550TIP3    H123065   5.961   1.469  11.406 -0.1009  0.6322  1.9582
  550TIP3    H223066   5.992   1.611  11.365 -0.1215 -0.3270 -1.7749
  551TIP3   OH223067   3.623   2.287   5.222  0.0770  0.1181  0.5029
  551TIP3    H123068   3.644   2.374   5.188 -0.3365  0.0056 -0.0666
  551TIP3    H223069   3.701   2.235   5.205  0.8878  0.7129  2.1424
  552TIP3   OH223070   1.245   1.912   1.464  0.6972  0.8355  0.0534
  552TIP3    H123071   1.172   1.942   1.409  1.1478  1.1839 -0.3673
  552TIP3    H223072   1.323   1.943   1.418  1.2918 -2.0255 -1.1015
  553TIP3   OH223073   3.525   2.257   0.650  0.6890  0.1114  0.2480
  553TIP3    H123074   3.462   2.310   0.601  1.5781  1.6312  0.6866
  553TIP3    H223075   3.477   2.230   0.729 -0.0709 -0.5714 -0.4220
  554TIP3   OH223076   2.790   0.918  16.267  0.2983 -0.1651 -0.3910
  554TIP3    H123077   2.749   0.853  16.324 -1.5902  0.6945 -0.6692
  554TIP3    H223078   2.862   0.954  16.319 -1.0738  0.2670  1.3205
  555TIP3   OH223079   6.413   0.626  16.185 -0.4675 -0.2386 -0.1947
  555TIP3    H123080   6.398   0.624  16.091  0.5274 -2.1713 -0.3506
  555TIP3    H223081   6.361   0.553  16.220  4.3314 -4.2239 -0.2311
  556TIP3   OH223082   5.259   5.267  10.980  0.3014  0.6503  0.2788
  556TIP3    H123083   5.165   5.279  10.995  0.0639  0.5634 -1.0767
  556TIP3    H223084   5.300   5.336  11.031 -0.5474  1.2068  0.2225
  557TIP3   OH223085   2.491   1.206  14.615 -0.1067  0.8312  0.1523
  557TIP3    H123086   2.432   1.280  14.630 -0.6935  0.6286 -1.0136
  557TIP3    H223087   2.526   1.185  14.701 -0.2097  2.2331  0.5650
  558TIP3   OH223088   5.198   4.446   3.776 -0.1464 -0.0909 -0.3211
  558TIP3    H123089   5.202   4.541   3.788  1.4635 -0.2312  0.5256
  558TIP3    H223090   5.111   4.430   3.740 -0.3439  1.7260 -0.7334
  559TIP3   OH223091   3.488   0.515   1.013  0.0960  0.0060 -0.2764
  559TIP3    H123092   3.483   0.523   1.108 -1.4209  0.0103 -0.3222
  559TIP3    H223093   3.541   0.436   0.998  2.1891  1.1976  0.4897
  560TIP3   OH223094   6.604   6.432  16.701 -0.4488  0.4329  0.1612
  560TIP3    H123095   6.592   6.400  16.611  1.0146  0.2673 -0.0056
  560TIP3    H223096   6.546   6.377  16.754  0.8645 -1.5445 -0.3246
  561TIP3   OH223097   2.753   6.499  11.644 -0.1786 -0.4365 -0.0748
  561TIP3    H123098   2.840   6.524  11.615 -0.9548  1.7366 -0.7084
  561TIP3    H223099   2.758   6.404  11.656  1.6360 -0.6802 -2.2312
  562TIP3   OH223100   4.823   2.190  16.979 -0.0714  0.1081  0.0883
  562TIP3    H123101   4.864   2.142  17.051  0.3112  0.4371  0.0942
  562TIP3    H223102   4.896   2.212  16.921 -0.3914 -0.2416 -0.4501
  563TIP3   OH223103   1.616   4.286   0.997 -0.1681  0.1030 -0.1255
  563TIP3    H123104   1.685   4.223   1.019 -2.1271 -2.5517 -0.9794
  563TIP3    H223105   1.639   4.318   0.910 -0.7788 -2.0496 -1.1407
  564TIP3   OH223106   3.918   4.350  16.152  0.4587  0.3336 -0.5116
  564TIP3    H123107   3.978   4.384  16.085  0.7824  1.6050  0.3908
  564TIP3    H223108   3.923   4.255  16.143  2.6238  0.4070 -0.4713
  565TIP3   OH223109   1.071   2.284  16.483  0.3540  0.3828  0.0565
  565TIP3    H123110   1.084   2.191  16.498  0.5624  0.2262 -0.9835
  565TIP3    H223111   1.156   2.315  16.452  0.7825  1.2892  2.0121
  566TIP3   OH223112   0.826   4.494  13.535  0.2048 -0.4040  0.3756
  566TIP3    H123113   0.852   4.404  13.555 -2.0284 -0.9438  1.1135
  566TIP3    H223114   0.773   4.487  13.456 -0.0658  0.2537  0.4939
  567TIP3   OH223115   4.177   2.658   5.800 -0.2201 -0.0422 -0.1066
  567TIP3    H123116   4.264   2.627   5.824  0.1045  0.5421 -0.5033
  567TIP3    H223117   4.190   2.707   5.719 -1.2461 -1.8132 -1.4341
  568TIP3   OH223118   2.606   4.068  13.933  0.0608 -0.7073  0.3188
  568TIP3    H123119   2.515   4.055  13.908 -0.6856  4.2617 -0.6821
  568TIP3    H223120   2.601   4.097  14.024  0.0828  2.6356 -0.6241
  569TIP3   OH223121   3.353   1.445   2.954 -0.7508 -0.2823  0.2611
  569TIP3    H123122   3.426   1.428   2.893 -0.2261 -1.1339  1.0945
  569TIP3    H223123   3.396   1.475   3.034 -1.4338  0.7231  0.2737
  570TIP3   OH223124   0.469   5.191  17.146  0.5661  0.3106  0.1601
  570TIP3    H123125   0.418   5.271  17.155 -1.1847 -0.7765  0.4495
  570TIP3    H223126   0.422   5.140  17.080  1.0705 -0.9032  0.7116
  571TIP3   OH223127   5.662   3.094  15.816 -0.0681  0.4355  0.1148
  571TIP3    H123128   5.701   3.108  15.729 -1.0218 -0.0756 -0.4064
  571TIP3    H223129   5.715   3.148  15.874  1.7374 -0.6167 -0.4729
  572TIP3   OH223130   0.164   0.135   1.088 -0.2852  0.3117  0.0255
  572TIP3    H123131   0.243   0.111   1.038 -1.3043  0.3341 -1.6921
  572TIP3    H223132   0.150   0.061   1.147 -1.0786 -1.5991 -2.3568
  573TIP3   OH223133   1.370   2.880  12.316  0.5010 -0.0216  0.2388
  573TIP3    H123134   1.452   2.930  12.312 -0.1378  1.1118  0.9219
  573TIP3    H223135   1.356   2.851  12.226  0.7818  1.2237 -0.2235
  574TIP3   OH223136   3.598   5.838  12.775 -0.2016 -0.0159  0.2866
  574TIP3    H123137   3.586   5.901  12.704  0.5472 -0.3031 -0.0993
  574TIP3    H223138   3.692   5.826  12.781 -0.2439  0.0840  1.4103
  575TIP3   OH223139   0.759   3.796  14.903  0.3929 -0.2939  0.4887
  575TIP3    H123140   0.774   3.792  14.998 -1.2602 -0.8251  0.7428
  575TIP3    H223141   0.682   3.742  14.888  1.6870 -1.7379 -1.4253
  576TIP3   OH223142   0.517   2.586   6.490  0.2437  0.5663 -0.3761
  576TIP3    H123143   0.519   2.681   6.479  1.8460  0.8426  1.7434
  576TIP3    H223144   0.609   2.560   6.490 -0.0719 -0.6564  1.3699
  577TIP3   OH223145   2.771   2.226  14.572  0.6462  0.4980 -0.1067
  577TIP3    H123146   2.791   2.312  14.534 -2.0562  0.2996 -2.2122
  577TIP3    H223147   2.815   2.163  14.515 -0.2049  0.3656 -0.6320
  578TIP3   OH223148   0.440   5.840  10.984 -0.2526  0.6187  0.1075
  578TIP3    H123149   0.446   5.850  10.889 -0.3990 -0.9140 -0.0863
  578TIP3    H223150   0.389   5.760  10.997 -0.4153  0.9186  1.4782
  579TIP3   OH223151   4.088   1.331   1.672  0.2263  0.2762 -0.1145
  579TIP3    H123152   4.024   1.362   1.736  1.5726  1.8482  0.5578
  579TIP3    H223153   4.038   1.274   1.613 -1.2015 -0.7648  1.9636
  580TIP3   OH223154   0.265   3.551  14.091 -0.1144 -0.5893 -0.2772
  580TIP3    H123155   0.355   3.558  14.059 -0.6247  0.1535 -1.5974
  580TIP3    H223156   0.216   3.616  14.042 -0.6235  2.1522  3.4279
  581TIP3   OH223157   5.275   3.135   5.642  0.3431 -0.3760 -0.4174
  581TIP3    H123158   5.318   3.083   5.709  1.0214  1.6600  0.8231
  581TIP3    H223159   5.282   3.083   5.562  0.5082 -2.3590  0.8364
  582TIP3   OH223160   3.155   2.051   5.607 -0.0174 -0.3680 -0.3068
  582TIP3    H123161   3.120   1.967   5.577  1.7955 -1.3165  0.0589
  582TIP3    H223162   3.220   2.075   5.542  2.1897 -1.2206  1.4325
  583TIP3   OH223163   1.485   6.609  13.956  0.8189  0.1342  0.2067
  583TIP3    H123164   1.530   6.526  13.943  1.0114  0.2825 -0.0748
  583TIP3    H223165   1.407   6.603  13.901  0.6697  0.0154  0.4286
  584TIP3   OH223166   5.153   6.052   3.309  0.5770  0.0111  0.7305
  584TIP3    H123167   5.156   6.140   3.272  0.9660  0.4389  1.7527
  584TIP3    H223168   5.089   6.058   3.381  0.2635 -0.6600  0.5207
  585TIP3   OH223169   1.807   6.289  12.014  0.4374  0.1798  0.0530
  585TIP3    H123170   1.889   6.330  12.041 -0.6438  2.2636  0.3520
  585TIP3    H223171   1.815   6.198  12.044  2.1359  0.6337  1.1292
  586TIP3   OH223172   4.252   6.143   3.255 -0.0610  0.3233 -0.0901
  586TIP3    H123173   4.284   6.055   3.273  2.0262  0.9993 -0.2008
  586TIP3    H223174   4.199   6.166   3.331  0.9929 -0.3163  0.8591
  587TIP3   OH223175   2.055   5.595   3.009 -0.2953 -0.3064 -0.0657
  587TIP3    H123176   2.128   5.542   3.041 -1.1722 -0.9656  0.9168
  587TIP3    H223177   2.085   5.685   3.020  0.4282 -0.5732  0.2000
  588TIP3   OH223178   3.571   1.104  12.621  0.0454  0.1115 -0.7175
  588TIP3    H123179   3.559   1.140  12.709 -0.2843 -0.6019 -0.4582
  588TIP3    H223180   3.554   1.177  12.563  0.3486  0.6171 -0.1866
  589TIP3   OH223181   3.422   1.332  14.310 -0.3376 -0.2511 -0.4285
  589TIP3    H123182   3.479   1.259  14.286 -1.8525 -1.1578 -1.4234
  589TIP3    H223183   3.479   1.409  14.305  0.7329 -1.0697 -1.7093
  590TIP3   OH223184   0.643   6.188  14.324  0.0495 -0.4006 -0.1580
  590TIP3    H123185   0.613   6.279  14.323  1.3969  0.0734 -1.8901
  590TIP3    H223186   0.595   6.146  14.253 -1.7703 -1.5336  1.6383
  591TIP3   OH223187   5.507   0.222   1.174  0.1354 -0.6703  0.1744
  591TIP3    H123188   5.539   0.153   1.232 -0.3570 -0.9621  0.1084
  591TIP3    H223189   5.585   0.268   1.145  0.3988 -0.5537  1.0344
  592TIP3   OH223190   0.407   5.476   5.058 -0.1159 -0.4577  0.0913
  592TIP3    H123191   0.398   5.445   5.148  0.3323 -0.3784  0.1653
  592TIP3    H223192   0.353   5.416   5.006 -0.7412 -0.2327  0.4686
  593TIP3   OH223193   5.914   6.083   2.512 -0.1308  0.3150 -0.2552
  593TIP3    H123194   5.905   6.158   2.570  1.9117 -0.4835  1.2072
  593TIP3    H223195   5.984   6.107   2.451 -0.2847  0.0285 -0.5556
  594TIP3   OH223196   6.407   0.848   1.990 -0.5627  0.2829 -0.0600
  594TIP3    H123197   6.491   0.895   1.994 -0.5646  0.3401 -0.7042
  594TIP3    H223198   6.342   0.917   1.978 -0.7188  0.2469  0.5348
  595TIP3   OH223199   0.688   0.282  13.057 -0.0717  0.0678 -0.1329
  595TIP3    H123200   0.736   0.362  13.038 -1.7094  1.1862  0.2550
  595TIP3    H223201   0.710   0.261  13.148 -2.6056  2.3658  1.1649
  596TIP3   OH223202   2.457   1.795   5.088  0.6848  0.4316  0.1021
  596TIP3    H123203   2.429   1.810   5.178  0.3716 -1.4083  0.3423
  596TIP3    H223204   2.426   1.872   5.040  0.6029  1.2937  1.4976
  597TIP3   OH223205   1.899   2.409  13.665  0.4002  0.0820  0.3372
  597TIP3    H123206   1.819   2.356  13.667  0.8431 -0.6463 -0.7277
  597TIP3    H223207   1.970   2.345  13.659  1.0167  0.7588  0.3386
  598TIP3   OH223208   4.874   2.085  13.074  0.2673 -0.0698  0.2655
  598TIP3    H123209   4.946   2.067  13.134  0.1572  0.2767  0.5050
  598TIP3    H223210   4.869   2.180  13.071 -0.6938 -0.0863  0.8825
  599TIP3   OH223211   3.446   6.769   3.101  0.3623  0.0003 -0.2013
  599TIP3    H123212   3.371   6.710   3.112  0.4562  0.0589  0.9562
  599TIP3    H223213   3.523   6.711   3.104  0.3798 -0.0301 -1.1092
  600TIP3   OH223214   0.259   2.786   4.664  0.1084 -0.1613 -0.0806
  600TIP3    H123215   0.225   2.698   4.680 -0.4501  0.2233  0.8869
  600TIP3    H223216   0.289   2.816   4.750 -0.8649  1.0832 -0.1614
  601TIP3   OH223217   0.410   5.865  15.639  0.4317  0.3293  0.0835
  601TIP3    H123218   0.479   5.821  15.590  1.2400  2.2213 -0.5609
  601TIP3    H223219   0.452   5.897  15.718 -0.6526 -1.8516  1.6692
  602TIP3   OH223220   6.743   2.960  13.407  0.2254  0.4054  0.0397
  602TIP3    H123221   6.695   2.981  13.327  0.8053  1.5327 -0.0296
  602TIP3    H223222   6.717   3.029  13.469  1.1660  0.5911  0.2353
  603TIP3   OH223223   0.934   6.127   2.456  0.5961  0.1205 -0.6875
  603TIP3    H123224   1.024   6.120   2.423  1.3554  0.9583  1.0758
  603TIP3    H223225   0.920   6.047   2.506  0.1826 -0.2121 -1.3216
  604TIP3   OH223226   0.742   4.466   2.576 -0.0665  0.3112  0.1408
  604TIP3    H123227   0.696   4.502   2.651 -0.0345 -0.4087  0.5164
  604TIP3    H223228   0.683   4.399   2.542  0.4332 -0.2022  0.2646
  605TIP3   OH223229   6.632   1.439   5.680  0.0906 -0.0613 -0.4949
  605TIP3    H123230   6.590   1.446   5.766  0.7526 -0.8554 -0.1001
  605TIP3    H223231   6.563   1.404   5.623 -0.2300  0.0792 -0.1985
  606TIP3   OH223232   3.825   4.054   1.096 -0.2274 -0.9302  0.3231
  606TIP3    H123233   3.856   3.964   1.083  0.9540 -0.6371  0.9344
  606TIP3    H223234   3.766   4.049   1.171 -0.8981 -1.3324 -0.2175
  607TIP3   OH223235   4.502   4.343   0.523 -0.1671  0.2025  0.1279
  607TIP3    H123236   4.505   4.415   0.461 -1.2827 -1.2594 -1.7276
  607TIP3    H223237   4.410   4.338   0.551 -0.2205 -0.8026 -0.1724
  608TIP3   OH223238   5.290   4.873   4.322  0.3216  0.0411  0.1784
  608TIP3    H123239   5.316   4.811   4.391 -1.5638  0.2673  1.1596
  608TIP3    H223240   5.228   4.823   4.268 -1.6115  1.1441  1.2690
  609TIP3   OH223241   2.700   6.196   6.298  0.1297  0.2422  0.0353
  609TIP3    H123242   2.643   6.266   6.269 -0.6283 -0.5830 -0.5065
  609TIP3    H223243   2.786   6.237   6.307 -0.0633  0.9905 -1.3308
  610TIP3   OH223244   5.618   3.654  11.773 -0.2706  0.1014 -0.4321
  610TIP3    H123245   5.674   3.609  11.837  0.3951  0.5960 -0.6530
  610TIP3    H223246   5.646   3.620  11.689 -1.4942 -0.9248 -0.4458
  611TIP3   OH223247   2.456   5.684  14.383  0.2764 -0.2194 -0.2288
  611TIP3    H123248   2.415   5.769  14.366  0.2897  0.0368  0.8996
  611TIP3    H223249   2.530   5.680  14.323  0.9224  1.0517  0.4411
  612TIP3   OH223250   4.412   1.645   2.273  0.5906 -0.7270 -0.9854
  612TIP3    H123251   4.353   1.577   2.305 -1.1673 -0.1219 -2.7938
  612TIP3    H223252   4.485   1.596   2.233  0.9877 -1.4735  0.5559
  613TIP3   OH223253   3.774   0.739  11.081  0.0582 -0.0840  0.0386
  613TIP3    H123254   3.680   0.728  11.068 -0.1202  0.5542  0.7160
  613TIP3    H223255   3.813   0.661  11.041 -0.7082 -0.0696 -0.7637
  614TIP3   OH223256   3.594   5.872  16.944 -0.2486  0.2669  0.4105
  614TIP3    H123257   3.562   5.782  16.951  0.3721 -0.0916 -1.0695
  614TIP3    H223258   3.570   5.912  17.028 -2.1816 -0.7343  0.3939
  615TIP3   OH223259   0.671   0.647  12.338 -0.4507 -0.0722 -0.2308
  615TIP3    H123260   0.642   0.565  12.297  0.2608  0.4661 -1.9283
  615TIP3    H223261   0.634   0.645  12.426 -1.4757 -1.6470 -0.6617
  616TIP3   OH223262   4.829   1.414   3.901 -0.1832 -0.5000 -0.0696
  616TIP3    H123263   4.853   1.322   3.913 -1.8621 -0.9758 -0.0929
  616TIP3    H223264   4.765   1.412   3.830  0.2232  0.7784 -0.4890
  617TIP3   OH223265   2.406   2.154   6.487 -0.1262  0.0076 -0.4113
  617TIP3    H123266   2.449   2.124   6.567 -1.4830 -0.7419  0.0728
  617TIP3    H223267   2.412   2.079   6.427  0.2283  0.3040 -0.7546
  618TIP3   OH223268   5.639   6.512  12.615 -0.7747  0.1265  0.4102
  618TIP3    H123269   5.548   6.503  12.643 -1.1879 -0.0891 -0.9627
  618TIP3    H223270   5.635   6.568  12.537  0.1629 -0.6401 -0.2138
  619TIP3   OH223271   4.406   3.651   0.313 -0.9161  0.6391  0.4076
  619TIP3    H123272   4.437   3.701   0.238 -1.6848  0.8796  0.2430
  619TIP3    H223273   4.463   3.676   0.385  1.6226 -1.5855 -0.6531
  620TIP3   OH223274   1.277   1.792  15.944  0.3497  0.0595 -0.5835
  620TIP3    H123275   1.245   1.714  15.898  0.7856 -0.7660  0.4787
  620TIP3    H223276   1.360   1.812  15.902  0.9937 -0.9946  0.1418
  621TIP3   OH223277   5.227   3.363  13.876  0.1764 -0.3088 -0.0813
  621TIP3    H123278   5.149   3.417  13.882  0.0547 -0.5039  0.1434
  621TIP3    H223279   5.204   3.282  13.923  1.2446  0.4750  1.9180
  622TIP3   OH223280   6.025   0.472   0.542  0.5491  0.4662  0.5181
  622TIP3    H123281   6.034   0.430   0.627 -3.2773  1.1330  1.4363
  622TIP3    H223282   5.987   0.558   0.562 -2.6014 -0.2069 -1.8619
  623TIP3   OH223283   1.078   6.331   3.827 -0.6395  0.3325  0.1283
  623TIP3    H123284   0.991   6.311   3.794 -0.6073  0.3613  0.0247
  623TIP3    H223285   1.132   6.257   3.799 -0.8439 -0.1812  1.0634
  624TIP3   OH223286   4.058   0.752   2.738 -0.2942 -0.4601 -0.0721
  624TIP3    H123287   4.104   0.702   2.805 -1.6864 -0.7058  0.7442
  624TIP3    H223288   4.012   0.821   2.786 -0.9416 -0.3528 -0.8204
  625TIP3   OH223289   3.606   3.660   1.517 -0.3276 -0.1605 -0.3614
  625TIP3    H123290   3.614   3.593   1.449  0.7859 -0.2565 -0.1546
  625TIP3    H223291   3.548   3.726   1.480 -1.6210 -1.3295 -0.4854
  626TIP3   OH223292   2.594   2.574  13.971  0.5558  0.7636 -0.1862
  626TIP3    H123293   2.595   2.488  14.011  2.3751  1.3727  1.1883
  626TIP3    H223294   2.620   2.559  13.880 -1.0322 -0.3071 -0.5202
  627TIP3   OH223295   0.789   1.287  14.577  0.2326 -0.3598  0.3957
  627TIP3    H123296   0.859   1.265  14.639  1.5469 -2.0001 -1.5287
  627TIP3    H223297   0.756   1.372  14.607  1.0945 -0.8458  3.0181
  628TIP3   OH223298   4.916   2.737   0.388  0.4296 -0.5457 -0.1412
  628TIP3    H123299   4.993   2.736   0.331  0.0044 -1.1207 -0.7140
  628TIP3    H223300   4.900   2.830   0.405  2.1639 -0.4532  1.2525
  629TIP3   OH223301   5.924   4.647  13.414 -0.9553  0.1789  0.0414
  629TIP3    H123302   6.007   4.604  13.431  0.5901  3.1916  0.9472
  629TIP3    H223303   5.874   4.585  13.361  1.5370 -2.0673  0.1562
  630TIP3   OH223304   5.152   5.909   5.758 -0.0563 -0.0129 -0.3157
  630TIP3    H123305   5.070   5.949   5.732 -0.5064 -0.9753 -0.4437
  630TIP3    H223306   5.220   5.965   5.721 -0.6487  0.9310  0.0105
  631TIP3   OH223307   0.957   1.427   0.497 -0.3565 -0.6148  0.0588
  631TIP3    H123308   0.865   1.449   0.507 -0.1212  0.4741 -0.1100
  631TIP3    H223309   0.987   1.478   0.421  1.1466  1.5454  1.9754
  632TIP3   OH223310   2.451   3.265  13.320  0.3088 -0.3217  0.0053
  632TIP3    H123311   2.509   3.260  13.245 -0.9510  1.0586 -1.1175
  632TIP3    H223312   2.415   3.176  13.329  1.0057 -0.6726 -0.5630
  633TIP3   OH223313   2.553   2.494  12.115  0.5387 -0.2502 -0.1883
  633TIP3    H123314   2.616   2.425  12.093  1.6150  0.1641  1.3708
  633TIP3    H223315   2.595   2.575  12.087  0.3953 -0.0262  0.2357
  634TIP3   OH223316   0.411   3.782   2.736 -0.5013 -0.3919  0.2894
  634TIP3    H123317   0.358   3.851   2.697  0.0052  0.9024  1.8019
  634TIP3    H223318   0.474   3.759   2.667  0.4476  1.9164  0.2841
  635TIP3   OH223319   0.555   2.197   3.853 -0.2883 -0.5089  0.6697
  635TIP3    H123320   0.570   2.271   3.795  1.1853 -0.4923  1.0438
  635TIP3    H223321   0.492   2.228   3.917 -1.4654 -0.3336 -0.5390
  636TIP3   OH223322   5.075   0.354   5.080 -0.0215 -0.1661 -0.5502
  636TIP3    H123323   4.991   0.372   5.123 -0.2233  0.8925 -1.3411
  636TIP3    H223324   5.137   0.411   5.125  0.5751 -1.8317  0.8688
  637TIP3   OH223325   5.521   3.680   4.885 -0.1469  0.1962  0.0850
  637TIP3    H123326   5.561   3.705   4.968 -1.6205 -0.9086  1.1959
  637TIP3    H223327   5.441   3.634   4.910 -0.7614  0.0363 -1.9671
  638TIP3   OH223328   6.066   1.748  12.803 -0.4435 -0.5097  0.0140
  638TIP3    H123329   6.089   1.725  12.713  1.4545 -0.2658  0.3927
  638TIP3    H223330   5.990   1.805  12.795 -0.3103 -0.5056 -1.4235
  639TIP3   OH223331   3.980   6.177  15.451 -0.0613 -0.1966  0.4192
  639TIP3    H123332   3.885   6.167  15.450 -0.1630  0.5044  1.4540
  639TIP3    H223333   4.011   6.107  15.509  0.1533 -1.0189 -0.6580
  640TIP3   OH223334   4.613   0.539   2.922  0.3928 -0.4107  0.7707
  640TIP3    H123335   4.564   0.494   2.853  1.1460 -0.8270  0.4988
  640TIP3    H223336   4.677   0.593   2.876  0.5286 -0.2607  1.1301
  641TIP3   OH223337   4.471   4.630  13.608  0.3854 -0.2087  0.1047
  641TIP3    H123338   4.407   4.630  13.536  0.9921  0.5877 -0.4551
  641TIP3    H223339   4.458   4.715  13.651  2.1772  0.7272 -1.0629
  642TIP3   OH223340   4.127   5.631  15.680 -0.2488 -0.6660 -0.1466
  642TIP3    H123341   4.087   5.708  15.720  0.5575 -1.2823  1.9804
  642TIP3    H223342   4.056   5.567  15.672 -0.8975  0.1897 -1.8286
  643TIP3   OH223343   4.097   1.803  14.503  0.1290 -0.0366  0.3165
  643TIP3    H123344   4.028   1.836  14.560 -0.7731 -2.1131  0.4697
  643TIP3    H223345   4.067   1.824  14.414 -0.0956  0.1350  0.4304
  644TIP3   OH223346   4.851   2.790  13.086 -0.3165 -0.0559  0.0282
  644TIP3    H123347   4.902   2.847  13.143  2.6910 -2.5066  0.1221
  644TIP3    H223348   4.778   2.761  13.140 -1.0721  2.4309  0.4475
  645TIP3   OH223349   3.457   0.435  14.025 -0.9050 -0.3019  0.1180
  645TIP3    H123350   3.507   0.397  13.953  0.7047 -0.1082  1.0786
  645TIP3    H223351   3.387   0.373  14.041 -1.1829 -0.4302 -1.4875
  646TIP3   OH223352   2.636   6.521   1.248  0.2499 -0.4570  0.2240
  646TIP3    H123353   2.691   6.521   1.326 -1.5181 -0.9661  1.5638
  646TIP3    H223354   2.550   6.492   1.280 -1.2669  1.8468 -1.3863
  647TIP3   OH223355   0.613   4.200   4.310 -0.4287  0.0687  0.3860
  647TIP3    H123356   0.608   4.274   4.249 -1.1840  1.8537  2.4709
  647TIP3    H223357   0.524   4.188   4.341 -0.1775 -1.2385  0.6549
  648TIP3   OH223358   0.644   0.116  16.667  0.4660  0.0069 -0.1267
  648TIP3    H123359   0.707   0.044  16.674  0.3529  0.0138  1.2688
  648TIP3    H223360   0.635   0.131  16.573  1.7816 -0.6581 -0.3780
  649TIP3   OH223361   5.819   1.369  11.428 -0.6485 -0.3887 -0.1254
  649TIP3    H123362   5.810   1.378  11.522  3.0808 -3.2008  0.7570
  649TIP3    H223363   5.766   1.292  11.405 -2.4329  0.9264 -0.6417
  650TIP3   OH223364   3.506   2.257  12.793  0.0108  0.2185  0.2419
  650TIP3    H123365   3.447   2.311  12.845 -0.7382 -0.6085  0.2706
  650TIP3    H223366   3.554   2.320  12.738 -0.7550  0.9181  0.3591
  651TIP3   OH223367   3.276   4.517  15.133 -0.0597 -0.2056  0.3098
  651TIP3    H123368   3.208   4.543  15.196 -0.1873 -0.3576  0.2381
  651TIP3    H223369   3.319   4.442  15.174  0.2941  0.1067  0.5091
  652TIP3   OH223370   0.253   5.809  13.991 -0.5889 -0.2453 -0.4898
  652TIP3    H123371   0.159   5.823  13.993 -0.7341 -1.1614 -0.2968
  652TIP3    H223372   0.286   5.854  14.068 -1.0763 -1.2228  0.3118
  653TIP3   OH223373   1.316   4.610  10.645  0.3509  0.0185 -0.0733
  653TIP3    H123374   1.390   4.653  10.603  0.9176 -1.8933 -1.1820
  653TIP3    H223375   1.322   4.519  10.616 -0.7374 -0.8489  2.1536
  654TIP3   OH223376   6.429   4.043   2.228  0.4320  0.1948 -0.1210
  654TIP3    H123377   6.478   3.995   2.294 -0.6761  0.7423  1.1541
  654TIP3    H223378   6.439   4.135   2.252 -1.5088  0.3037  0.4417
  655TIP3   OH223379   2.738   1.364   0.201  0.2940  0.0732 -0.4858
  655TIP3    H123380   2.807   1.387   0.138  3.1200  0.7593  2.6201
  655TIP3    H223381   2.728   1.269   0.192  1.1591  0.0530 -1.4237
  656TIP3   OH223382   6.629   1.295  11.969 -0.0518 -0.0103 -0.3523
  656TIP3    H123383   6.721   1.280  11.990 -0.7543 -1.2389  2.2879
  656TIP3    H223384   6.604   1.371  12.022 -0.9482 -0.8069  0.4316
  657TIP3   OH223385   5.818   6.706   4.513 -0.5300  0.2897 -0.6245
  657TIP3    H123386   5.851   6.647   4.446  1.3343 -0.2763  0.7105
  657TIP3    H223387   5.757   6.653   4.565  2.2564 -1.0758  1.4927
  658TIP3   OH223388   0.187   4.045   4.804  0.1926  0.1114  0.0844
  658TIP3    H123389   0.139   3.976   4.758  1.2818 -0.8749  0.3775
  658TIP3    H223390   0.272   4.050   4.759  0.3014  0.9289  0.3624
  659TIP3   OH223391   5.293   5.309   0.902  0.2924  0.8574  0.0174
  659TIP3    H123392   5.360   5.279   0.841 -0.7030 -1.5471 -0.0085
  659TIP3    H223393   5.211   5.302   0.854 -0.4335 -0.4059  1.3578
  660TIP3   OH223394   2.956   5.341  13.568  0.0945  0.1305 -0.4464
  660TIP3    H123395   3.035   5.391  13.586  0.0626  0.2734 -0.6921
  660TIP3    H223396   2.987   5.258  13.533  0.1267  0.8101 -2.1459
  661TIP3   OH223397   6.434   5.755   1.876  0.2131  0.7638  0.1632
  661TIP3    H123398   6.486   5.797   1.944  1.1788 -0.3178  0.1180
  661TIP3    H223399   6.498   5.718   1.815 -0.5239 -1.4117  0.6063
  662TIP3   OH223400   2.059   0.319   0.843 -0.4335  0.9044  0.2373
  662TIP3    H123401   1.980   0.371   0.830 -0.9203  0.4684  1.3254
  662TIP3    H223402   2.099   0.355   0.922 -0.4472  0.0498  0.6497
  663TIP3   OH223403   2.823   1.015   2.676 -0.4243  0.3428 -0.5725
  663TIP3    H123404   2.771   0.977   2.605 -0.6196 -1.1505  0.3350
  663TIP3    H223405   2.767   1.008   2.754  0.8247 -0.6633  0.2884
  664TIP3   OH223406   5.244   6.091  16.922  0.5372  0.4127  0.7229
  664TIP3    H123407   5.310   6.156  16.895 -0.9857  2.0331  0.6879
  664TIP3    H223408   5.201   6.065  16.840  0.3938  0.2140  0.8614
  665TIP3   OH223409   4.704   4.024  12.318 -0.4719  0.8228 -0.0345
  665TIP3    H123410   4.757   4.084  12.369 -0.7543  0.3803  0.8019
  665TIP3    H223411   4.616   4.061  12.320 -0.8521 -0.0971  1.3073
  666TIP3   OH223412   3.622   5.734  11.596 -0.0423  0.0978  0.0529
  666TIP3    H123413   3.697   5.723  11.537  1.1746  2.4014  1.0279
  666TIP3    H223414   3.585   5.819  11.572 -1.4605 -0.3512  0.5638
  667TIP3   OH223415   3.971   5.089  14.872 -0.1188 -0.1292 -0.2717
  667TIP3    H123416   3.926   5.161  14.827 -1.1414 -0.9041 -0.5196
  667TIP3    H223417   4.016   5.042  14.802  2.2849  1.4060  0.1141
  668TIP3   OH223418   5.259   0.523   4.827  0.2916 -0.3058  0.1988
  668TIP3    H123419   5.189   0.466   4.858  1.9652 -2.2342  0.6546
  668TIP3    H223420   5.214   0.594   4.781 -2.0314 -0.2173  2.4162
  669TIP3   OH223421   6.784   0.988   5.313  0.0376 -0.2812  0.1626
  669TIP3    H123422   6.799   0.972   5.407  1.6433 -0.2927 -0.0615
  669TIP3    H223423   6.841   0.924   5.270 -1.4203 -0.9346 -0.8473
  670TIP3   OH223424   5.899   2.346  14.043 -0.0507  0.0131 -0.4890
  670TIP3    H123425   5.963   2.335  14.113 -0.0433  1.0962 -0.3053
  670TIP3    H223426   5.924   2.427  14.000 -0.7744 -0.0125 -0.9765
  671TIP3   OH223427   3.823   3.585   2.343  0.9435  0.0423  0.1714
  671TIP3    H123428   3.865   3.576   2.258 -0.5532  0.3694 -0.6424
  671TIP3    H223429   3.826   3.498   2.382  1.9719 -0.0246 -0.0425
  672TIP3   OH223430   0.814   4.145  15.309  0.1278 -0.5452 -0.0172
  672TIP3    H123431   0.856   4.063  15.335  0.0347 -0.2139  1.2486
  672TIP3    H223432   0.866   4.213  15.353 -0.2750  0.0215 -0.4085
  673TIP3   OH223433   1.141   4.729  13.542  0.2822  0.3444 -0.5821
  673TIP3    H123434   1.208   4.661  13.541  1.4537  1.4761 -1.2672
  673TIP3    H223435   1.145   4.765  13.630 -0.1333 -0.2345 -0.3118
  674TIP3   OH223436   1.572   1.001   0.569 -0.1737 -0.7381 -0.1578
  674TIP3    H123437   1.484   1.010   0.533 -1.4924  1.6668  3.1546
  674TIP3    H223438   1.562   0.940   0.642  0.7773 -0.0935  0.5336
  675TIP3   OH223439   4.879   5.377   3.479 -0.4304  0.9533 -0.0803
  675TIP3    H123440   4.957   5.429   3.497  0.3088  0.0589 -0.6463
  675TIP3    H223441   4.909   5.306   3.422 -1.4198 -0.0679  0.6243
  676TIP3   OH223442   1.200   0.048  13.472 -0.4382 -0.2663 -0.1253
  676TIP3    H123443   1.291   0.073  13.484 -0.5186 -0.3575  0.7304
  676TIP3    H223444   1.158   0.065  13.557 -1.2678 -0.0153 -0.5691
  677TIP3   OH223445   2.691   1.858  15.148 -0.0177 -0.2750  0.0322
  677TIP3    H123446   2.759   1.824  15.090 -1.9222 -2.0167 -1.3151
  677TIP3    H223447   2.722   1.836  15.236  0.0103 -3.5403 -0.6588
  678TIP3   OH223448   2.651   3.778  16.865 -0.3822  0.0679 -0.9303
  678TIP3    H123449   2.663   3.824  16.782  0.7466 -1.8508 -1.8914
  678TIP3    H223450   2.739   3.769  16.901 -0.8773  1.1361  0.6888
  679TIP3   OH223451   5.430   5.969  15.060  0.2615  0.0661  0.1847
  679TIP3    H123452   5.416   5.995  15.151  0.1734  0.8612 -0.0485
  679TIP3    H223453   5.366   5.899  15.046  2.8610 -2.9037  1.8641
  680TIP3   OH223454   0.001   1.088   1.288  0.3335 -0.0745 -0.0222
  680TIP3    H123455   0.007   1.061   1.196  3.0949 -0.4137  0.1779
  680TIP3    H223456   0.011   1.183   1.286  1.7111 -0.1997 -0.0316
  681TIP3   OH223457   1.633   4.147   0.339  0.1770  0.3886  0.4933
  681TIP3    H123458   1.692   4.174   0.268  0.3445 -1.6782 -0.2041
  681TIP3    H223459   1.572   4.221   0.347  0.7786  1.1264 -1.1061
  682TIP3   OH223460   2.681   2.877  15.605  0.1517  0.7995 -0.2306
  682TIP3    H123461   2.763   2.889  15.558 -0.0133  2.5506 -0.1114
  682TIP3    H223462   2.707   2.838  15.689  0.7537  0.5120 -0.5441
  683TIP3   OH223463   0.506   3.787  12.575  0.3775  0.2055  0.1499
  683TIP3    H123464   0.506   3.712  12.634  0.2033 -0.7075 -0.9565
  683TIP3    H223465   0.473   3.752  12.492 -3.4526  2.3337  0.5447
  684TIP3   OH223466   3.445   3.068  11.410 -0.2655 -0.5905 -0.0157
  684TIP3    H123467   3.353   3.094  11.415 -0.0724  0.1705 -0.3817
  684TIP3    H223468   3.458   3.014  11.488 -1.4218 -2.0119 -0.7438
  685TIP3   OH223469   2.775   1.035   0.925 -0.2110  0.3337 -0.1660
  685TIP3    H123470   2.731   0.950   0.929  1.5377 -0.6760 -1.1344
  685TIP3    H223471   2.751   1.070   0.839 -1.8203  1.3859  0.6597
  686TIP3   OH223472   6.442   3.672   4.925  0.4064  0.4837 -0.1364
  686TIP3    H123473   6.416   3.754   4.968 -2.4924 -0.0212 -0.7039
  686TIP3    H223474   6.494   3.700   4.850  0.4574  1.7258  0.3285
  687TIP3   OH223475   0.448   2.248  12.506 -0.2976  0.4688 -0.4181
  687TIP3    H123476   0.468   2.156  12.524  4.5110  1.2114 -0.7253
  687TIP3    H223477   0.455   2.291  12.591  2.3324  1.1337 -0.9038
  688TIP3   OH223478   1.802   5.984  12.905 -0.2197 -0.4164 -0.1422
  688TIP3    H123479   1.861   6.058  12.896 -2.7355  1.6163 -1.4823
  688TIP3    H223480   1.755   6.001  12.987 -1.3390 -0.0648 -0.8370
  689TIP3   OH223481   3.870   1.996   2.220  0.6125 -0.7650  0.5649
  689TIP3    H123482   3.814   1.918   2.212 -0.8431  0.2039  0.8310
  689TIP3    H223483   3.809   2.066   2.246  1.8049  0.5447 -0.0540
  690TIP3   OH223484   3.242   6.634   1.049  0.3136 -0.0453  0.0028
  690TIP3    H123485   3.217   6.692   1.121  0.4158 -1.3061  1.0941
  690TIP3    H223486   3.159   6.611   1.007  0.2525  0.6804 -0.2933
  691TIP3   OH223487   2.428   1.407  13.801  0.0906  0.2281  0.7776
  691TIP3    H123488   2.491   1.476  13.782  0.6753 -0.7416 -1.0531
  691TIP3    H223489   2.473   1.351  13.865  0.8051 -0.0304  0.0690
  692TIP3   OH223490   1.066   5.468   2.238  0.1822  0.6322 -0.3543
  692TIP3    H123491   1.072   5.397   2.302 -2.4192 -0.2961 -1.0319
  692TIP3    H223492   1.062   5.425   2.153 -3.0975  1.3557 -0.7040
  693TIP3   OH223493   6.747   4.930   3.387 -0.2285  0.2831  0.0619
  693TIP3    H123494   6.675   4.991   3.373 -0.7381 -0.6127 -1.4042
  693TIP3    H223495   6.758   4.885   3.303  0.2754 -1.5030  1.0251
  694TIP3   OH223496   0.687   1.233   1.213  0.3569 -0.0409 -0.3329
  694TIP3    H123497   0.720   1.154   1.256 -0.9163  0.0963  0.9451
  694TIP3    H223498   0.690   1.300   1.281 -1.3758  0.2659 -0.5145
  695TIP3   OH223499   1.835   4.787  13.887 -0.4206  0.3382 -0.2534
  695TIP3    H123500   1.892   4.799  13.963 -0.2639  0.0529 -0.3254
  695TIP3    H223501   1.747   4.809  13.920 -0.2626  0.8439 -0.1634
  696TIP3   OH223502   6.630   4.491   4.421  0.1871 -0.3305 -0.6078
  696TIP3    H123503   6.682   4.556   4.468 -0.3911 -0.9371  0.9591
  696TIP3    H223504   6.611   4.532   4.337 -2.7465  2.9787  1.3603
  697TIP3   OH223505   5.569   3.083   1.840 -0.0620 -0.6750  0.2902
  697TIP3    H123506   5.609   3.034   1.769 -0.1518 -0.0624 -0.1863
  697TIP3    H223507   5.577   3.174   1.815 -0.4558 -0.4667  0.8759
  698TIP3   OH223508   3.166   3.100  11.423  0.2411  0.5822  0.1459
  698TIP3    H123509   3.114   3.180  11.418  2.4153  2.0105 -0.7485
  698TIP3    H223510   3.116   3.042  11.481 -3.4102  0.9997 -2.2589
  699TIP3   OH223511   6.590   1.283   3.693  0.3042  0.4069  0.3202
  699TIP3    H123512   6.532   1.248   3.761  0.8916  0.1507  0.6899
  699TIP3    H223513   6.634   1.206   3.657  1.4416  0.7216  0.9861
  700TIP3   OH223514   0.140   1.573  12.960  0.1440  0.0794 -0.2212
  700TIP3    H123515   0.086   1.644  12.995 -0.5034 -0.9247  0.9001
  700TIP3    H223516   0.227   1.613  12.948 -0.3703  1.2301 -0.3015
  701TIP3   OH223517   4.619   0.107  15.023  0.0905  0.4371  0.0960
  701TIP3    H123518   4.574   0.029  14.990  0.7982  0.2327 -0.4041
  701TIP3    H223519   4.687   0.125  14.958  0.6335  0.8312  0.7625
  702TIP3   OH223520   5.672   4.408   6.343  0.0487 -0.0384  0.0559
  702TIP3    H123521   5.584   4.381   6.371 -0.8153 -1.2065 -3.3537
  702TIP3    H223522   5.719   4.326   6.329  1.0678  0.5408 -0.0017
  703TIP3   OH223523   6.379   1.426  12.193  0.3203 -0.0914  0.2820
  703TIP3    H123524   6.438   1.490  12.154  0.8442 -0.5485  0.3197
  703TIP3    H223525   6.409   1.416  12.283  0.0688 -0.1854  0.3575
  704TIP3   OH223526   1.738   5.529  13.171 -0.3089 -0.0784 -0.0797
  704TIP3    H123527   1.685   5.510  13.093 -1.8198 -1.1846  1.1342
  704TIP3    H223528   1.749   5.624  13.171  1.6063 -0.1909 -2.7613
  705TIP3   OH223529   4.746   3.959   5.113 -0.5032 -0.2854  0.5095
  705TIP3    H123530   4.704   3.935   5.196 -0.9013  0.8540  0.6547
  705TIP3    H223531   4.742   4.055   5.111  0.5252 -0.2404 -0.3011
  706TIP3   OH223532   6.451   4.365   3.024 -0.5718  0.1854  0.1383
  706TIP3    H123533   6.383   4.387   3.088 -0.2002  0.9897  0.2720
  706TIP3    H223534   6.432   4.422   2.949 -0.3227  0.0762 -0.0082
  707TIP3   OH223535   5.231   0.322   4.231 -0.3861 -0.4486  0.3591
  707TIP3    H123536   5.274   0.361   4.155  0.9929 -1.2900  0.6680
  707TIP3    H223537   5.140   0.349   4.224  0.0590  0.8866 -0.6722
  708TIP3   OH223538   1.902   4.295  16.010 -0.6390  0.4600 -0.3945
  708TIP3    H123539   1.863   4.261  16.090 -2.6768  1.3989 -0.9174
  708TIP3    H223540   1.959   4.224  15.979 -0.7082 -0.3549  1.2587
  709TIP3   OH223541   1.274   0.683  11.258  0.8413  0.0250  0.2636
  709TIP3    H123542   1.214   0.638  11.198 -0.0093 -0.4223  1.4086
  709TIP3    H223543   1.321   0.612  11.302 -0.0550  0.2289  1.6263
  710TIP3   OH223544   3.555   1.502   0.332 -0.5241 -0.1884  0.2263
  710TIP3    H123545   3.498   1.574   0.359  0.3043  0.1223  1.2210
  710TIP3    H223546   3.502   1.423   0.346 -1.7352  0.2372 -1.6768
  711TIP3   OH223547   5.823   4.269   3.446 -0.1135  0.6709 -0.1936
  711TIP3    H123548   5.822   4.304   3.536 -1.7012 -0.1600  0.1334
  711TIP3    H223549   5.905   4.303   3.410  0.3371  1.4355  1.4010
  712TIP3   OH223550   3.697   5.590   4.051 -0.0888  0.3568  0.4780
  712TIP3    H123551   3.649   5.652   3.996  1.4879 -0.3075 -1.7757
  712TIP3    H223552   3.658   5.505   4.031  0.2014  0.1539  0.7535
  713TIP3   OH223553   2.237   0.763   0.421 -0.4599 -0.8963 -0.2487
  713TIP3    H123554   2.260   0.695   0.358 -0.2621 -1.7597  0.7314
  713TIP3    H223555   2.313   0.770   0.478 -0.9915 -0.7844  0.4593
  714TIP3   OH223556   6.383   5.368   2.696  0.5715 -0.1168  0.1422
  714TIP3    H123557   6.420   5.337   2.613  1.6813  0.5727  0.3682
  714TIP3    H223558   6.412   5.304   2.760  1.4715  0.4566  0.3297
  715TIP3   OH223559   1.084   1.716   0.613 -0.0105  0.2569  0.3794
  715TIP3    H123560   1.069   1.792   0.557 -2.7233 -0.0942  0.4570
  715TIP3    H223561   1.133   1.655   0.558 -0.3004  0.9471 -0.6868
  716TIP3   OH223562   3.407   3.787  15.071 -0.5613 -0.3140 -0.2842
  716TIP3    H123563   3.456   3.705  15.081  2.9985  1.7600  1.5585
  716TIP3    H223564   3.336   3.780  15.135 -1.1331 -2.3541 -1.0434
  717TIP3   OH223565   5.235   3.102  15.578  0.1476 -0.1231 -0.1729
  717TIP3    H123566   5.168   3.164  15.549  1.3012  0.2748 -2.1516
  717TIP3    H223567   5.194   3.016  15.566 -0.6756  0.1693  0.4720
  718TIP3   OH223568   0.783   6.653   5.471  0.9279  0.5214  0.3478
  718TIP3    H123569   0.750   6.595   5.402  0.3683  0.6729  0.4838
  718TIP3    H223570   0.765   6.606   5.552  0.3053  0.9595  0.4698
  719TIP3   OH223571   1.877   5.137  15.885 -0.1579 -0.4190  0.4595
  719TIP3    H123572   1.809   5.071  15.873 -0.9610  0.1520  1.6135
  719TIP3    H223573   1.870   5.192  15.807 -0.0651 -1.1725 -0.0966
  720TIP3   OH223574   2.990   0.042   1.463  0.0486  0.0644 -0.0012
  720TIP3    H123575   3.055   0.010   1.525  0.9503  0.4752 -0.7028
  720TIP3    H223576   2.952   0.119   1.506  0.9290  0.5684 -0.0899
  721TIP3   OH223577   2.780   3.657  16.238 -0.5151 -0.0106 -0.2516
  721TIP3    H123578   2.874   3.677  16.243 -0.0906 -1.9515  0.3350
  721TIP3    H223579   2.776   3.574  16.191 -2.0608  0.6208 -1.3132
  722TIP3   OH223580   4.828   1.792  11.927 -0.2432 -0.1947 -0.3903
  722TIP3    H123581   4.846   1.700  11.913 -1.4770 -0.3764 -0.8778
  722TIP3    H223582   4.841   1.833  11.842  1.0611  0.2383 -0.0117
  723TIP3   OH223583   4.267   0.242  16.573 -0.3624 -0.2433 -0.4833
  723TIP3    H123584   4.291   0.267  16.662 -3.0105 -1.4541  0.6869
  723TIP3    H223585   4.190   0.295  16.553 -1.2961 -1.7636 -1.0438
  724TIP3   OH223586   1.401   1.260   0.611  0.1913 -0.6980  0.0495
  724TIP3    H123587   1.492   1.232   0.623  0.1166 -0.0698  2.6290
  724TIP3    H223588   1.408   1.351   0.582  0.4861  0.2799  2.8882
  725TIP3   OH223589   0.440   0.982   4.424  0.1634  0.2217  0.4817
  725TIP3    H123590   0.503   0.946   4.487 -1.5779 -0.1880  2.0688
  725TIP3    H223591   0.418   0.908   4.368  0.6173  0.2117  0.3103
  726TIP3   OH223592   6.390   3.428  12.077  0.1459  0.3289 -0.1034
  726TIP3    H123593   6.371   3.493  12.145 -2.4541  0.3330 -0.7018
  726TIP3    H223594   6.340   3.458  12.000  1.3586 -0.7476 -1.3770
  727TIP3   OH223595   1.113   0.314  17.018  0.7977 -0.1646 -0.3688
  727TIP3    H123596   1.070   0.320  16.933  0.3911 -0.6602 -0.2020
  727TIP3    H223597   1.180   0.247  17.007  0.8736 -0.0902 -0.3564
  728TIP3   OH223598   1.206   4.487   5.095 -0.2474 -0.0447 -0.3114
  728TIP3    H123599   1.180   4.409   5.047 -1.3242 -1.2386  2.0347
  728TIP3    H223600   1.172   4.560   5.043 -0.4529 -1.1794 -1.8324
  729TIP3   OH223601   4.286   6.553   5.500 -0.2511 -0.0361 -0.6033
  729TIP3    H123602   4.255   6.599   5.422 -0.2420 -0.0898 -0.6388
  729TIP3    H223603   4.214   6.494   5.522 -0.4000  0.2330 -0.3604
  730TIP3   OH223604   0.500   2.923  14.157 -0.1968  0.0224 -0.3666
  730TIP3    H123605   0.487   2.829  14.150 -1.5412  0.1494  0.0930
  730TIP3    H223606   0.474   2.958  14.071  3.1185 -0.2374 -1.6019
  731TIP3   OH223607   5.625   3.520   3.750 -0.6573  0.4360 -0.3203
  731TIP3    H123608   5.640   3.614   3.764  1.9160  0.4355 -2.3582
  731TIP3    H223609   5.697   3.478   3.797 -1.5944 -0.5459  0.2806
  732TIP3   OH223610   2.223   2.311  12.812 -0.2391 -0.0103 -0.0385
  732TIP3    H123611   2.132   2.287  12.830 -0.3457  1.2949  1.4371
  732TIP3    H223612   2.225   2.331  12.718 -1.7982  1.1188  0.1131
  733TIP3   OH223613   5.336   4.353   4.700 -0.3988 -0.2859 -0.5044
  733TIP3    H123614   5.426   4.330   4.676  0.0522 -0.2161  1.0095
  733TIP3    H223615   5.319   4.434   4.653  0.7972  0.3702  0.1425
  734TIP3   OH223616   1.696   0.206  14.421  1.0079  0.1779  0.4874
  734TIP3    H123617   1.713   0.120  14.460 -0.8922 -0.6746 -0.4112
  734TIP3    H223618   1.746   0.206  14.340  0.4192 -0.4352  0.1064
  735TIP3   OH223619   3.322   3.808   3.568  0.4108 -0.1398 -0.1274
  735TIP3    H123620   3.345   3.880   3.509  1.1037  0.6201  1.0298
  735TIP3    H223621   3.254   3.760   3.521 -0.8076  1.8434 -0.5383
  736TIP3   OH223622   4.168   4.618  15.814 -0.1043  0.0047 -0.2107
  736TIP3    H123623   4.259   4.618  15.844  0.7142 -0.6622 -2.4372
  736TIP3    H223624   4.137   4.707  15.829  0.6300  0.0299  1.3008
  737TIP3   OH223625   6.543   0.136   2.020 -0.4385  0.2466  0.0031
  737TIP3    H123626   6.461   0.186   2.021  0.6418  2.1513  1.1496
  737TIP3    H223627   6.582   0.153   2.106  2.3027  1.5054 -1.3632
  738TIP3   OH223628   4.201   3.449   1.288  0.0044  0.8580 -0.4593
  738TIP3    H123629   4.287   3.460   1.328  1.0588 -0.9907 -2.0809
  738TIP3    H223630   4.215   3.389   1.215 -3.1047 -1.6827  0.7909
  739TIP3   OH223631   6.556   0.569  13.814 -0.8518 -0.1433  0.4959
  739TIP3    H123632   6.530   0.656  13.782 -0.4094 -0.0873  0.2737
  739TIP3    H223633   6.598   0.527  13.739  0.8022  0.2424  1.1478
  740TIP3   OH223634   5.438   2.299  14.701  0.6603 -0.1741  0.0309
  740TIP3    H123635   5.469   2.370  14.644  0.9954  0.4492  0.9794
  740TIP3    H223636   5.409   2.231  14.640  1.5929  0.2304 -0.8845
  741TIP3   OH223637   4.086   4.903   0.977  0.1624 -0.1087 -0.2782
  741TIP3    H123638   4.168   4.890   0.930 -0.0180 -0.1966 -0.5678
  741TIP3    H223639   4.105   4.870   1.065  0.0757 -1.2686 -0.6775
  742TIP3   OH223640   3.426   5.233  16.093 -0.4429  0.2414 -0.0299
  742TIP3    H123641   3.423   5.158  16.034  1.5901 -0.3966  0.5897
  742TIP3    H223642   3.415   5.309  16.036  0.9597 -0.3824 -1.1950
  743TIP3   OH223643   6.635   5.424   5.545  0.1041 -0.3365 -0.7272
  743TIP3    H123644   6.598   5.417   5.457  0.2493 -1.5351 -0.7103
  743TIP3    H223645   6.612   5.341   5.587  0.6526 -0.0684  0.1308
  744TIP3   OH223646   0.085   4.392  16.911  0.2742 -0.1397 -0.1044
  744TIP3    H123647   0.094   4.314  16.855  3.2735 -0.8833  1.2201
  744TIP3    H223648   0.082   4.357  17.000 -1.0586  1.1778  0.4025
  745TIP3   OH223649   4.790   0.702   2.771  0.3607  0.7055 -0.8383
  745TIP3    H123650   4.825   0.741   2.851 -0.8355 -1.5564  0.9333
  745TIP3    H223651   4.806   0.767   2.703  2.2647  2.3580  1.0440
  746TIP3   OH223652   0.888   5.551  16.085  0.8113  0.7085  0.2637
  746TIP3    H123653   0.886   5.620  16.151  1.1936  0.7283  0.2546
  746TIP3    H223654   0.979   5.547  16.056  0.2963  2.0469 -1.6971
  747TIP3   OH223655   4.810   1.815   4.230  0.1295  0.0869 -0.4039
  747TIP3    H123656   4.834   1.726   4.203 -0.3364  0.4084 -2.0076
  747TIP3    H223657   4.890   1.850   4.269  0.7996 -0.5229 -1.1785
  748TIP3   OH223658   1.444   2.904   3.582  0.1340  0.9317  0.0543
  748TIP3    H123659   1.476   2.892   3.671 -1.8256  0.1299  0.7163
  748TIP3    H223660   1.392   2.984   3.586 -2.5678 -0.7080  0.5296
  749TIP3   OH223661   2.380   2.015  12.250 -0.5400 -0.0799 -0.1915
  749TIP3    H123662   2.422   1.929  12.247 -1.3628 -0.4747 -0.8990
  749TIP3    H223663   2.377   2.043  12.158 -0.4073  0.6425  0.0232
  750TIP3   OH223664   0.619   2.461   1.110 -0.4343  0.5171 -0.0442
  750TIP3    H123665   0.698   2.453   1.057  1.2468  2.3089  1.9740
  750TIP3    H223666   0.560   2.517   1.060  0.8817  1.7265 -0.2907
  751TIP3   OH223667   0.555   5.199  10.305 -0.1880 -0.8089  0.2712
  751TIP3    H123668   0.649   5.214  10.312 -0.6419  2.3737  1.3017
  751TIP3    H223669   0.535   5.138  10.377  0.9748 -0.9330  0.5041
  752TIP3   OH223670   3.210   1.384  12.513 -0.6257 -0.1130  0.1723
  752TIP3    H123671   3.236   1.345  12.430 -3.2492 -1.6059 -0.0318
  752TIP3    H223672   3.193   1.310  12.571  0.7210  0.8879  1.9810
  753TIP3   OH223673   4.104   3.832  12.635 -0.2373  0.2626  0.0718
  753TIP3    H123674   4.010   3.815  12.644 -0.5592  0.2264 -2.4636
  753TIP3    H223675   4.128   3.788  12.553  2.1816 -0.3442  1.0271
  754TIP3   OH223676   1.561   4.425   0.579 -0.6952 -0.2444 -0.3970
  754TIP3    H123677   1.650   4.430   0.545 -0.9057 -0.6910 -1.0355
  754TIP3    H223678   1.559   4.488   0.651 -0.2507  0.7600 -1.2450
  755TIP3   OH223679   4.799   2.229   4.706 -0.3758  0.9025  0.3833
  755TIP3    H123680   4.805   2.306   4.762  1.9303  0.9191  0.2346
  755TIP3    H223681   4.841   2.256   4.624  2.1394 -0.9338  0.9244
  756TIP3   OH223682   4.041   0.204   6.112 -0.1544  0.0797  0.3137
  756TIP3    H123683   4.095   0.234   6.186  0.6358 -0.6003  0.0357
  756TIP3    H223684   3.951   0.216   6.141  0.1383  1.4655  0.7107
  757TIP3   OH223685   5.791   6.200   4.645 -0.0936 -0.3563 -0.1412
  757TIP3    H123686   5.727   6.129   4.635 -2.2191  1.6235 -1.8309
  757TIP3    H223687   5.861   6.178   4.583 -0.7841 -0.9244 -0.7466
  758TIP3   OH223688   5.807   5.928   4.666 -0.2112 -0.2472 -0.4269
  758TIP3    H123689   5.782   5.864   4.732 -0.1204 -0.7905 -0.9100
  758TIP3    H223690   5.893   5.959   4.694  0.4909 -1.5515 -1.0498
  759TIP3   OH223691   6.435   3.105  11.637 -0.7584 -0.2107  0.5341
  759TIP3    H123692   6.493   3.131  11.565 -1.0330 -0.2958  0.2807
  759TIP3    H223693   6.441   3.010  11.640 -1.1296 -0.2450  0.2965
  760TIP3   OH223694   5.068   4.222   1.684  0.2870  0.3319 -0.1100
  760TIP3    H123695   5.026   4.159   1.626  0.3911 -0.5316  0.7407
  760TIP3    H223696   5.141   4.257   1.632  0.6399 -0.7448 -0.3625
  761TIP3   OH223697   3.532   1.708   3.054  0.4477 -0.0875  0.0177
  761TIP3    H123698   3.491   1.795   3.054  0.0038 -0.2886 -0.6170
  761TIP3    H223699   3.528   1.680   2.962 -0.5083 -1.2866  0.3948
  762TIP3   OH223700   1.356   6.612  11.784 -0.2985  0.2643  0.2856
  762TIP3    H123701   1.431   6.573  11.740 -1.3721 -3.6133  1.5491
  762TIP3    H223702   1.280   6.577  11.738 -1.4913 -4.1122  4.7980
  763TIP3   OH223703   3.202   2.337   1.853 -0.0506 -0.4621 -0.2952
  763TIP3    H123704   3.233   2.248   1.833  1.6511  0.0385 -0.0443
  763TIP3    H223705   3.229   2.389   1.778 -1.4357 -0.2190 -0.6427
  764TIP3   OH223706   5.458   5.703   6.203 -0.4760  0.3603  0.4243
  764TIP3    H123707   5.429   5.749   6.124 -2.0382 -2.1909 -0.6261
  764TIP3    H223708   5.465   5.771   6.269 -2.0818  2.1915 -1.1628
  765TIP3   OH223709   3.391   3.120  11.137  0.1636 -0.2976  0.0859
  765TIP3    H123710   3.411   3.145  11.227 -0.0168  0.4873 -0.0845
  765TIP3    H223711   3.476   3.117  11.094  0.1459  0.7905 -0.0709
  766TIP3   OH223712   1.901   0.585   2.244 -0.6447 -0.2271 -0.6142
  766TIP3    H123713   1.953   0.616   2.319 -1.5718 -0.9809  0.3731
  766TIP3    H223714   1.964   0.576   2.173  0.1810  0.9645 -0.0739
  767TIP3   OH223715   2.577   3.939   2.027 -0.6180 -0.3771  0.3214
  767TIP3    H123716   2.623   3.864   1.991 -0.4202 -0.2633  0.3363
  767TIP3    H223717   2.642   3.983   2.081 -0.7219 -0.1721  0.2793
  768TIP3   OH223718   5.368   2.651   4.267  0.2844 -0.2799 -0.3689
  768TIP3    H123719   5.363   2.710   4.342  3.1549 -1.5253  0.9312
  768TIP3    H223720   5.278   2.623   4.253 -0.5064  0.8952  1.8666
  769TIP3   OH223721   2.005   2.104  12.535 -0.0680 -0.1229 -0.4075
  769TIP3    H123722   2.043   2.018  12.521  0.7177 -0.0512  1.1376
  769TIP3    H223723   2.069   2.151  12.588  0.5929  2.2302 -3.0004
  770TIP3   OH223724   6.433   5.752  15.752  0.4777  0.1585  0.1707
  770TIP3    H123725   6.460   5.710  15.670  0.8088  0.3898  0.1596
  770TIP3    H223726   6.473   5.839  15.748 -1.7100  1.1934 -0.6797
  771TIP3   OH223727   5.923   5.595   2.052 -0.4277  0.4028 -0.0222
  771TIP3    H123728   5.890   5.679   2.083 -1.3818  0.5238 -1.2881
  771TIP3    H223729   5.848   5.536   2.056  0.1561 -0.3343  0.5657
  772TIP3   OH223730   2.520   0.197   2.927 -0.3337  0.3081 -0.4010
  772TIP3    H123731   2.581   0.124   2.922  0.9706  1.3406 -0.1161
  772TIP3    H223732   2.574   0.275   2.912 -1.5009  1.2818  0.2373
  773TIP3   OH223733   6.100   5.625   4.372  0.0835 -0.1746 -0.0621
  773TIP3    H123734   6.085   5.668   4.287  0.5354  1.2659  0.5505
  773TIP3    H223735   6.095   5.532   4.353 -0.6122  0.1280 -1.5323
  774TIP3   OH223736   3.353   1.446  14.996 -0.3464  0.2270  0.6006
  774TIP3    H123737   3.333   1.363  15.039 -2.5787 -0.0555 -0.8087
  774TIP3    H223738   3.386   1.502  15.066  0.9592 -1.7211  1.6385
  775TIP3   OH223739   0.679   0.089   3.052 -0.4946 -0.7054 -1.0261
  775TIP3    H123740   0.762   0.118   3.014 -0.4881 -0.1341 -0.5908
  775TIP3    H223741   0.638   0.037   2.984  0.0804 -0.7289 -1.3604
  776TIP3   OH223742   3.965   2.322  12.488  0.0195 -0.2659  0.1902
  776TIP3    H123743   3.967   2.310  12.393  1.4612 -0.1724  0.1896
  776TIP3    H223744   3.874   2.306  12.512 -0.8071  1.6113 -1.4403
  777TIP3   OH223745   1.650   0.123   2.050 -0.3319 -0.9276 -0.3746
  777TIP3    H123746   1.653   0.175   2.130 -1.8830  1.8388 -1.9760
  777TIP3    H223747   1.557   0.100   2.040 -0.2882 -0.5679 -1.7483
  778TIP3   OH223748   3.442   0.061  11.817 -0.8469 -0.7484  0.5347
  778TIP3    H123749   3.460  -0.019  11.767  0.5171 -0.6542  0.8130
  778TIP3    H223750   3.498   0.127  11.776 -2.7196  0.3597 -0.3518
  779TIP3   OH223751   5.618   1.025   2.417 -0.5331  0.1291  0.2422
  779TIP3    H123752   5.545   0.980   2.374 -0.2193 -0.8884  0.7254
  779TIP3    H223753   5.662   0.956   2.467  0.7795  0.7234 -0.0593
  780TIP3   OH223754   1.891   5.790   1.494  0.3358 -0.3171 -0.2583
  780TIP3    H123755   1.852   5.744   1.420 -1.0780  0.8844 -0.3204
  780TIP3    H223756   1.891   5.726   1.565 -2.3923 -0.2467 -0.0834
  781TIP3   OH223757   4.318   1.197   3.941 -0.5657 -0.3482 -0.0547
  781TIP3    H123758   4.365   1.270   3.902 -1.5838  1.6504  2.1890
  781TIP3    H223759   4.257   1.168   3.873 -0.8453  1.5920 -0.6675
  782TIP3   OH223760   5.724   0.255  11.944  0.2092 -0.6204  0.2066
  782TIP3    H123761   5.633   0.225  11.945  0.3074 -0.9549 -0.3099
  782TIP3    H223762   5.719   0.349  11.960 -0.1751 -0.7585  0.9016
  783TIP3   OH223763   1.077   1.538  11.515  0.0575 -0.0082  0.3541
  783TIP3    H123764   1.129   1.512  11.592 -0.6177  1.5518  1.3954
  783TIP3    H223765   1.113   1.487  11.443 -0.4215 -2.9013  1.9909
  784TIP3   OH223766   5.535   0.739  13.583  0.2235  0.3201 -0.0137
  784TIP3    H123767   5.551   0.734  13.677 -2.1264  3.0967  0.6630
  784TIP3    H223768   5.462   0.678  13.568 -0.6043  1.2009  0.3438
  785TIP3   OH223769   3.599   5.783   4.480  0.1444 -0.3446  0.2002
  785TIP3    H123770   3.584   5.696   4.444 -1.5655 -0.1323  0.3337
  785TIP3    H223771   3.531   5.794   4.547  0.0342  1.2471 -0.1274
  786TIP3   OH223772   1.484   4.549  15.573  0.8265 -0.0641 -0.3983
  786TIP3    H123773   1.512   4.551  15.482 -1.7848  0.6015 -1.2765
  786TIP3    H223774   1.488   4.457  15.598  0.1176 -0.4648 -1.7034
  787TIP3   OH223775   6.362   0.495   4.222 -0.7653 -0.1210 -0.2090
  787TIP3    H123776   6.363   0.519   4.129 -0.4700  0.4083 -0.0760
  787TIP3    H223777   6.323   0.408   4.225  0.8055 -0.8792 -1.0030
  788TIP3   OH223778   1.909   0.541  14.757  0.2717  0.3476  0.0375
  788TIP3    H123779   1.846   0.606  14.726 -0.5765 -0.1394  0.6863
  788TIP3    H223780   1.959   0.515  14.680 -1.6592 -0.7208 -0.8989
  789TIP3   OH223781   5.785   3.790   4.509 -0.0150  0.1176  0.6325
  789TIP3    H123782   5.845   3.805   4.435  1.1371 -1.3378  1.2194
  789TIP3    H223783   5.751   3.702   4.495 -1.9531  0.8463  0.4152
  790TIP3   OH223784   3.618   1.896  16.820 -0.6534  0.5037  0.2519
  790TIP3    H123785   3.618   1.974  16.876  1.0915  0.4089  0.4604
  790TIP3    H223786   3.677   1.920  16.748  1.2430 -1.1635  1.1693
  791TIP3   OH223787   4.707   3.351   1.636  0.1052  0.1455  0.1398
  791TIP3    H123788   4.651   3.273   1.625 -0.1548  0.4806 -1.0098
  791TIP3    H223789   4.788   3.329   1.591  0.4988  0.0973  0.8478
  792TIP3   OH223790   0.847   1.976  17.009  0.3331  0.0140 -0.2760
  792TIP3    H123791   0.774   2.002  17.066  0.0990 -0.3818 -0.3854
  792TIP3    H223792   0.822   2.009  16.923  2.3014  3.7569  0.3751
  793TIP3   OH223793   5.689   6.461   4.619 -0.3983  0.3961 -0.5641
  793TIP3    H123794   5.709   6.370   4.643 -2.7086 -0.4391 -1.5314
  793TIP3    H223795   5.655   6.501   4.699  0.4560  0.3758 -0.1814
  794TIP3   OH223796   1.251   1.644  10.366  0.8999 -0.4680 -0.0935
  794TIP3    H123797   1.246   1.571  10.305 -0.9899  0.2235 -0.8521
  794TIP3    H223798   1.270   1.720  10.311  0.0841  0.0193  0.2686
  795TIP3   OH223799   4.192   0.943   2.589  0.6176  0.1023  0.1587
  795TIP3    H123800   4.198   1.032   2.623  4.1891 -0.8673  2.7638
  795TIP3    H223801   4.161   0.891   2.663  1.3427 -1.1296 -0.3596
  796TIP3   OH223802   5.420   3.786  12.509  1.1068  0.0368  0.2939
  796TIP3    H123803   5.370   3.735  12.446 -0.8390  3.7479 -1.4969
  796TIP3    H223804   5.399   3.747  12.594 -3.2225  0.0057 -0.5660
  797TIP3   OH223805   6.436   5.124  17.129 -0.4747 -0.5313  0.2489
  797TIP3    H123806   6.451   5.041  17.084 -0.1254  0.3815 -1.3804
  797TIP3    H223807   6.488   5.117  17.209 -0.3018 -1.8034  0.0534
  798TIP3   OH223808   4.874   5.233  11.670 -0.1914  0.6861 -0.8121
  798TIP3    H123809   4.786   5.213  11.702  0.9201 -2.2968  0.8496
  798TIP3    H223810   4.924   5.252  11.750  1.0504  0.5343 -1.5247
  799TIP3   OH223811   2.601   0.001  12.945  0.1328  0.3621  0.4619
  799TIP3    H123812   2.619  -0.092  12.954 -1.7648 -0.2493 -1.3589
  799TIP3    H223813   2.684   0.040  12.917  1.2245 -0.5468  2.2695
  800TIP3   OH223814   5.025   4.764   5.976  0.2116 -0.6234  0.0846
  800TIP3    H123815   5.059   4.827   6.040  0.4334  0.4724 -1.0774
  800TIP3    H223816   5.100   4.705   5.960  2.0509  2.2247 -3.0271
  801TIP3   OH223817   3.716   2.154  16.939  0.0730 -0.0652  0.2655
  801TIP3    H123818   3.697   2.191  16.853  2.0302 -0.3486 -0.3423
  801TIP3    H223819   3.733   2.230  16.995 -1.1489  0.1170  0.4071
  802TIP3   OH223820   3.595   6.429   0.899  0.0178 -0.3336  0.1514
  802TIP3    H123821   3.622   6.352   0.849  0.9037 -2.5727  3.6923
  802TIP3    H223822   3.646   6.501   0.861  2.7140 -2.3830 -0.4431
  803TIP3   OH223823   2.873   5.060   0.534  0.2192 -0.2648  0.0419
  803TIP3    H123824   2.778   5.074   0.531  0.1266 -0.5698  1.0885
  803TIP3    H223825   2.906   5.102   0.455 -0.6664  0.8209  0.2281
  804TIP3   OH223826   3.456   0.827   4.730 -0.2948  0.1066  0.2407
  804TIP3    H123827   3.388   0.760   4.722 -1.4229  1.3540 -1.0822
  804TIP3    H223828   3.520   0.788   4.789  0.1649 -3.0472 -2.0458
  805TIP3   OH223829   5.642   2.701  15.548 -0.2937  0.2681 -0.3663
  805TIP3    H123830   5.574   2.719  15.613  0.9864  2.4570  0.4572
  805TIP3    H223831   5.724   2.716  15.595  0.6936  0.3767 -2.0750
  806TIP3   OH223832   0.654   1.955  13.478 -0.3192 -0.0521  0.2084
  806TIP3    H123833   0.576   1.914  13.440 -0.7272  0.1628  0.7947
  806TIP3    H223834   0.683   1.892  13.545 -0.1551 -0.0062  0.1787
  807TIP3   OH223835   5.204   4.201   0.285 -0.2015  0.3610 -0.0117
  807TIP3    H123836   5.187   4.207   0.191  1.1856 -1.1120 -0.3963
  807TIP3    H223837   5.117   4.197   0.326 -0.8404 -2.0652 -1.4728
  808TIP3   OH223838   4.496   2.931   2.993  0.0349 -0.6562  0.9797
  808TIP3    H123839   4.479   2.868   2.924 -0.7333  1.4202 -0.8551
  808TIP3    H223840   4.576   2.976   2.966 -0.4168  0.3651  1.2652
  809TIP3   OH223841   3.360   2.555  15.537  0.1737 -0.3743 -0.4522
  809TIP3    H123842   3.443   2.557  15.490 -0.2065 -1.2954 -1.1941
  809TIP3    H223843   3.317   2.637  15.513  0.0717 -0.7355 -1.5798
  810TIP3   OH223844   0.831   6.414   3.387 -0.0449  0.0643 -0.2039
  810TIP3    H123845   0.752   6.364   3.408  0.6052 -1.2787 -0.8712
  810TIP3    H223846   0.871   6.433   3.472 -0.3575 -0.4719  0.0637
  811TIP3   OH223847   2.991   3.223  10.229  0.3967  0.0044 -0.3059
  811TIP3    H123848   2.932   3.150  10.216  2.4334 -1.9277  0.6691
  811TIP3    H223849   2.934   3.298  10.248 -1.7912 -1.0291 -2.3504
  812TIP3   OH223850   3.911   3.152   5.503  0.8459 -0.0130  0.1650
  812TIP3    H123851   3.897   3.176   5.412  1.4056 -2.4943 -0.6317
  812TIP3    H223852   3.860   3.072   5.516  0.6377  0.3720  2.0880
  813TIP3   OH223853   2.177   1.637   3.273  0.1837  0.0710 -0.0513
  813TIP3    H123854   2.259   1.657   3.227 -0.5854  0.4248 -1.3287
  813TIP3    H223855   2.119   1.602   3.205 -0.0773 -2.1700  1.2344
  814TIP3   OH223856   4.359   5.670  16.168 -0.3355  0.2304  0.2154
  814TIP3    H123857   4.451   5.643  16.158  0.3749  2.0390  1.3578
  814TIP3    H223858   4.324   5.610  16.234  0.1028 -0.2659  0.0082
  815TIP3   OH223859   6.117   5.786   1.663  0.0550  0.2118 -0.3356
  815TIP3    H123860   6.127   5.766   1.570 -3.3676  3.0522 -1.5194
  815TIP3    H223861   6.037   5.741   1.689 -0.7372  1.9172  0.3220
  816TIP3   OH223862   6.721   5.433   5.909 -0.4162  0.1531 -0.5686
  816TIP3    H123863   6.784   5.438   5.981 -0.1122  1.8072 -0.8965
  816TIP3    H223864   6.764   5.476   5.836 -0.0923 -2.8664 -2.3119
  817TIP3   OH223865   6.194   2.684  14.518 -0.2705  0.3256 -0.3277
  817TIP3    H123866   6.117   2.716  14.471  0.1188  0.2711 -1.0140
  817TIP3    H223867   6.198   2.590  14.497 -0.4061  0.1836  0.2603
  818TIP3   OH223868   4.581   5.852  16.232 -0.3129  0.2544  0.9604
  818TIP3    H123869   4.605   5.761  16.213  0.0386  0.3853  0.7813
  818TIP3    H223870   4.486   5.850  16.241 -0.2654 -0.2260  1.4484
  819TIP3   OH223871   5.420   4.646  12.562  0.0736  0.4452 -0.1390
  819TIP3    H123872   5.480   4.584  12.604 -0.6431 -1.2485 -1.4588
  819TIP3    H223873   5.396   4.603  12.480 -1.1406  2.1233 -0.7108
  820TIP3   OH223874   5.169   2.336   5.243  0.2612 -0.9108 -0.2949
  820TIP3    H123875   5.080   2.304   5.261  0.4947 -1.5014 -0.1798
  820TIP3    H223876   5.163   2.430   5.255 -0.3951 -0.9260 -0.4523
  821TIP3   OH223877   5.201   3.293   2.631 -0.8918  0.2816 -0.1369
  821TIP3    H123878   5.156   3.294   2.546 -2.3037 -0.6095  0.5687
  821TIP3    H223879   5.131   3.283   2.695  0.1701  0.7328  1.1400
  822TIP3   OH223880   5.461   4.698  13.035 -0.2359 -0.0879 -0.4242
  822TIP3    H123881   5.429   4.770  12.981 -1.6653  0.7173  1.4038
  822TIP3    H223882   5.420   4.712  13.120  0.3049 -2.4675  0.2945
  823TIP3   OH223883   3.608   5.037  12.595  0.0217 -0.2847  0.3136
  823TIP3    H123884   3.618   5.047  12.500  0.9912 -1.1610  0.3139
  823TIP3    H223885   3.562   4.954  12.606  0.2807 -0.3862  0.6319
  824TIP3   OH223886   4.521   1.782   2.926 -0.1040  0.8215 -0.0396
  824TIP3    H123887   4.616   1.793   2.929  0.0033  0.8938 -2.0235
  824TIP3    H223888   4.491   1.849   2.864 -1.6298  1.6415  1.5101
  825TIP3   OH223889   6.626   6.688  16.431 -0.0682  0.1952  0.3354
  825TIP3    H123890   6.580   6.772  16.430 -1.5497 -0.5373  2.0380
  825TIP3    H223891   6.573   6.631  16.375 -0.4488 -0.2653  1.1565
  826TIP3   OH223892   6.169   2.392  12.618 -1.0344  0.3730 -0.1917
  826TIP3    H123893   6.128   2.424  12.698 -1.7475 -2.1425  0.5647
  826TIP3    H223894   6.108   2.413  12.548 -0.5337  2.3516 -0.0825
  827TIP3   OH223895   3.964   6.019   0.464 -0.2249  0.2105 -0.1964
  827TIP3    H123896   3.927   6.068   0.391  0.5140 -0.1512 -0.8238
  827TIP3    H223897   3.960   5.928   0.437 -0.0618  0.0599  0.2702
  828TIP3   OH223898   4.889   1.211  11.420 -0.0589 -0.0967  0.5117
  828TIP3    H123899   4.795   1.211  11.439 -0.1658  1.4558  0.1252
  828TIP3    H223900   4.894   1.205  11.325  0.3129 -1.9134  0.6084
  829TIP3   OH223901   0.264   1.229  15.808 -0.3107  0.7408 -0.2964
  829TIP3    H123902   0.346   1.184  15.827 -0.1193  0.4512 -1.7525
  829TIP3    H223903   0.205   1.161  15.776 -1.4189  0.7907  1.4820
  830TIP3   OH223904   5.376   5.406  13.875 -0.4170  0.2465  0.2055
  830TIP3    H123905   5.310   5.346  13.910 -0.1652 -1.4223 -1.9400
  830TIP3    H223906   5.422   5.355  13.809  1.2240  2.2200 -0.2921
  831TIP3   OH223907   5.099   3.667  12.383  0.1526  0.4063 -0.4441
  831TIP3    H123908   5.041   3.631  12.316  0.8681  1.6225 -1.7662
  831TIP3    H223909   5.078   3.760  12.386  0.4341  0.4405  0.7244
  832TIP3   OH223910   0.282   5.629   3.287  0.0490  0.2139  0.4000
  832TIP3    H123911   0.229   5.638   3.367  1.5526  0.4073  1.4075
  832TIP3    H223912   0.372   5.637   3.317  0.6876 -0.5353 -1.2270
  833TIP3   OH223913   1.477   4.324   2.945 -0.1650  0.2555  0.1589
  833TIP3    H123914   1.448   4.415   2.947 -1.8118 -0.2419  0.6946
  833TIP3    H223915   1.444   4.290   2.861  0.6045  0.1987 -0.1249
  834TIP3   OH223916   3.141   1.336  10.785  0.1809 -0.4973 -0.2214
  834TIP3    H123917   3.096   1.341  10.870 -1.6826 -0.6763 -1.1528
  834TIP3    H223918   3.077   1.368  10.722  0.8519 -2.1027 -1.7939
  835TIP3   OH223919   6.690   5.098  16.667 -0.3341  0.1421  0.1737
  835TIP3    H123920   6.655   5.015  16.698 -1.9300  1.5881  2.5318
  835TIP3    H223921   6.772   5.109  16.713 -0.0207 -0.1909 -0.2943
  836TIP3   OH223922   1.571   5.827  16.599  0.0509  0.4277 -0.4021
  836TIP3    H123923   1.517   5.829  16.678 -0.7184 -1.3165 -0.8397
  836TIP3    H223924   1.659   5.809  16.632 -0.2859 -0.4285  0.0700
  837TIP3   OH223925   2.341   0.883  12.240 -0.6142  0.1066 -0.3253
  837TIP3    H123926   2.351   0.873  12.334 -0.1227  2.3203 -0.0686
  837TIP3    H223927   2.249   0.903  12.227 -0.9420 -1.3994 -0.4889
  838TIP3   OH223928   1.103   4.093   4.898  0.0236  0.5256 -0.4634
  838TIP3    H123929   1.057   4.032   4.841 -0.6403 -0.5064  1.1203
  838TIP3    H223930   1.034   4.135   4.949  0.7199 -0.7642  1.6847
  839TIP3   OH223931   5.588   5.676  14.773 -0.2646  0.4153 -0.1899
  839TIP3    H123932   5.567   5.743  14.708  0.2406 -0.8342 -1.7104
  839TIP3    H223933   5.534   5.601  14.748  2.6205 -1.3706 -1.5462
  840TIP3   OH223934   0.507   2.775  12.675 -0.4468 -0.2409 -0.3102
  840TIP3    H123935   0.517   2.680  12.674 -0.4568 -0.2612 -1.9923
  840TIP3    H223936   0.427   2.791  12.725 -0.8043 -1.1647 -0.5754
  841TIP3   OH223937   4.097   0.789  11.149 -0.3030 -0.1204  0.1984
  841TIP3    H123938   4.079   0.706  11.106  0.2333  0.2236 -0.7375
  841TIP3    H223939   4.016   0.812  11.193 -0.4085 -1.2110  0.5983
  842TIP3   OH223940   5.413   2.855   3.666 -0.5170 -0.6904 -0.5933
  842TIP3    H123941   5.422   2.779   3.607 -2.8920 -1.2804 -0.2790
  842TIP3    H223942   5.500   2.896   3.664  0.6764 -3.0313 -1.2763
  843TIP3   OH223943   2.337   4.087  15.353  0.0791 -0.1556 -0.1373
  843TIP3    H123944   2.329   4.159  15.416 -0.2852  0.8844 -1.3215
  843TIP3    H223945   2.392   4.122  15.283 -0.7151 -0.7447 -1.0969
  844TIP3   OH223946   3.420   0.875  11.634  0.1587 -0.0845 -0.0417
  844TIP3    H123947   3.378   0.827  11.563 -0.0554 -2.2663  1.4491
  844TIP3    H223948   3.358   0.945  11.655 -1.9538 -2.0178  0.7730
  845TIP3   OH223949   5.716   2.531   3.159 -0.0342 -0.2999 -0.2319
  845TIP3    H123950   5.763   2.485   3.089  1.6832  0.1791  0.5519
  845TIP3    H223951   5.732   2.478   3.237 -1.0967 -0.2866  0.0143
  846TIP3   OH223952   3.697   5.192  14.097 -0.8839 -0.0703 -0.0288
  846TIP3    H123953   3.602   5.197  14.106 -0.9420 -1.3584  0.2058
  846TIP3    H223954   3.713   5.204  14.003 -1.3201 -0.4793 -0.1549
  847TIP3   OH223955   1.306   5.767   5.628  0.5562 -0.8996 -0.4898
  847TIP3    H123956   1.355   5.826   5.684  1.0499 -1.6233 -0.1410
  847TIP3    H223957   1.215   5.777   5.656  0.2913  1.3003 -1.9071
  848TIP3   OH223958   4.243   0.840   2.334  0.8226  0.2904 -0.5168
  848TIP3    H123959   4.220   0.749   2.315  0.9637 -0.1157  1.1473
  848TIP3    H223960   4.195   0.861   2.414  0.6785  1.7461 -0.9557
  849TIP3   OH223961   5.094   5.997  16.695  0.3975  0.2281 -0.1714
  849TIP3    H123962   5.168   5.989  16.635  0.6784  0.4618  0.1394
  849TIP3    H223963   5.036   5.925  16.671 -0.4993  1.5265 -2.0997
  850TIP3   OH223964   1.237   3.722  12.960 -0.4982 -0.2793 -0.2670
  850TIP3    H123965   1.296   3.666  12.909 -0.7018 -1.7040  0.9773
  850TIP3    H223966   1.157   3.726  12.909 -0.5136 -1.2439 -0.3467
  851TIP3   OH223967   6.750   5.334  12.744 -0.1215  0.1245 -0.5101
  851TIP3    H123968   6.694   5.258  12.757  1.4094 -1.0271 -0.3337
  851TIP3    H223969   6.816   5.304  12.680 -0.3730  1.7935 -1.6226
  852TIP3   OH223970   6.127   0.938   0.979 -0.1757  0.4789 -0.2216
  852TIP3    H123971   6.172   0.999   1.037 -0.0046  1.0232 -0.9049
  852TIP3    H223972   6.044   0.919   1.024 -0.4263  1.5638 -0.1901
  853TIP3   OH223973   5.203   1.885   3.016 -0.0325 -0.0366 -0.7786
  853TIP3    H123974   5.292   1.856   3.033  0.3381  1.7395  0.5960
  853TIP3    H223975   5.189   1.958   3.076 -2.4730 -0.3483 -0.8509
  854TIP3   OH223976   6.096   0.524   1.998 -0.2942 -0.4841  0.1695
  854TIP3    H123977   6.057   0.589   1.940 -1.4461 -2.4441 -1.3993
  854TIP3    H223978   6.181   0.504   1.957  0.6585  0.9005  1.3739
  855TIP3   OH223979   0.254   1.671   4.532 -0.5427 -0.1308  0.1609
  855TIP3    H123980   0.167   1.644   4.561 -1.1404  3.0013  1.7182
  855TIP3    H223981   0.239   1.720   4.451  0.1712 -1.8656 -1.0811
  856TIP3   OH223982   1.835   3.579   5.345  0.5283  0.0132 -0.0727
  856TIP3    H123983   1.741   3.580   5.364  0.5360 -2.4421  0.4143
  856TIP3    H223984   1.845   3.641   5.273 -1.6768 -0.5826 -0.9851
  857TIP3   OH223985   3.956   4.520   5.669 -0.2188  0.1789  0.2839
  857TIP3    H123986   4.050   4.509   5.685  0.0139  1.1482 -0.3543
  857TIP3    H223987   3.930   4.591   5.727 -0.7195 -0.5106  0.9388
  858TIP3   OH223988   1.813   4.999   5.853  0.5990  0.0812 -0.0290
  858TIP3    H123989   1.749   5.052   5.901 -1.8001 -0.3645 -2.4459
  858TIP3    H223990   1.848   4.939   5.919  1.4851  2.8122  2.2230
  859TIP3   OH223991   2.322   5.980  11.457 -0.3287  0.3721 -0.2415
  859TIP3    H123992   2.305   5.925  11.533  0.6227  0.2476 -0.1013
  859TIP3    H223993   2.237   5.991  11.415 -0.4725 -1.6246 -0.5636
  860TIP3   OH223994   5.149   0.663  10.454 -0.2236 -0.2476 -0.1780
  860TIP3    H123995   5.106   0.603  10.515  0.3334  0.2971  0.7752
  860TIP3    H223996   5.116   0.749  10.476  2.0497  0.3344  1.2909
  861TIP3   OH223997   1.403   4.142  16.748 -0.3741  0.0645 -0.2999
  861TIP3    H123998   1.348   4.203  16.797  0.2569  1.6088 -1.4324
  861TIP3    H223999   1.344   4.069  16.727 -0.6900 -0.6279  2.5741
  862TIP3   OH224000   2.626   6.517  15.268 -0.0158  0.2134 -0.1503
  862TIP3    H124001   2.547   6.496  15.217 -0.6268 -0.8323  1.1542
  862TIP3    H224002   2.605   6.600  15.311 -1.1402 -0.8919  1.5389
  863TIP3   OH224003   2.970   4.640   3.187  0.0355 -0.3842 -0.4963
  863TIP3    H124004   2.903   4.586   3.231 -0.5950  1.0369  0.3643
  863TIP3    H224005   2.920   4.697   3.129  0.6357 -0.2966 -0.9341
  864TIP3   OH224006   5.748   6.402  13.071  0.4189 -0.3058  0.6363
  864TIP3    H124007   5.679   6.346  13.106 -0.2067 -0.4970 -0.8011
  864TIP3    H224008   5.705   6.453  13.002  1.8624 -1.0760 -0.9292
  865TIP3   OH224009   4.903   4.041   3.399 -0.1070 -0.0677 -0.7008
  865TIP3    H124010   4.909   3.996   3.484  1.7269  0.4111 -0.5261
  865TIP3    H224011   4.886   3.972   3.336  0.6131 -0.7225 -0.1889
  866TIP3   OH224012   0.547   2.248  12.970  0.3372  0.7915  0.2233
  866TIP3    H124013   0.598   2.329  12.981  1.3934  0.4321 -1.7013
  866TIP3    H224014   0.591   2.184  13.026  0.0067  1.3096  1.0969
  867TIP3   OH224015   1.456   3.082  16.890  0.4495  0.0957  0.1832
  867TIP3    H124016   1.493   3.025  16.957  1.8856  0.0012 -0.6595
  867TIP3    H224017   1.418   3.155  16.940  1.8284  0.2217  1.0993
  868TIP3   OH224018   2.448   4.056  14.484 -0.1332  0.2902  0.2776
  868TIP3    H124019   2.399   4.011  14.553  0.4360  0.5528  0.8699
  868TIP3    H224020   2.444   3.997  14.409  0.0336 -0.4463  0.8350
  869TIP3   OH224021   3.544   4.285  15.637 -0.2419 -0.0498 -0.4796
  869TIP3    H124022   3.492   4.304  15.715 -0.1861  0.8697 -0.6629
  869TIP3    H224023   3.507   4.340  15.568  0.3101 -0.1511 -0.8648
  870TIP3   OH224024   5.003   4.631   1.087 -0.0251  0.6012 -0.4949
  870TIP3    H124025   4.952   4.640   1.168 -0.6293 -0.2212 -0.7787
  870TIP3    H224026   5.071   4.698   1.095 -1.8433  2.5891 -0.6462
  871TIP3   OH224027   1.734   1.056  13.174  0.0720 -0.3513  0.0860
  871TIP3    H124028   1.826   1.031  13.190  0.1431  0.7259  1.5862
  871TIP3    H224029   1.726   1.143  13.213 -1.2244  0.2198 -1.3586
  872TIP3   OH224030   4.477   3.913  14.275 -0.5228 -0.0785 -0.4046
  872TIP3    H124031   4.493   3.993  14.225 -0.3637 -0.2933 -0.6984
  872TIP3    H224032   4.412   3.939  14.341 -0.5799  0.2567 -0.5892
  873TIP3   OH224033   0.778   0.225   3.461  0.0085 -0.3261 -0.4592
  873TIP3    H124034   0.818   0.233   3.375  1.0545  0.0480  0.0452
  873TIP3    H224035   0.835   0.165   3.509 -0.8419 -0.9379 -0.1768
  874TIP3   OH224036   2.932   6.210   0.978  0.3792  0.6074 -0.4053
  874TIP3    H124037   3.018   6.209   1.020  0.1821 -0.7052  0.0302
  874TIP3    H224038   2.881   6.273   1.029 -0.1335 -1.5934  2.0506
  875TIP3   OH224039   3.887   2.169   5.205  0.2598 -0.3615  0.7180
  875TIP3    H124040   3.926   2.098   5.155  0.4477  1.1409 -1.3837
  875TIP3    H224041   3.869   2.130   5.291 -0.8427 -3.3215 -0.7043
  876TIP3   OH224042   5.793   5.211  16.041 -0.2891 -0.3420  0.3285
  876TIP3    H124043   5.744   5.246  16.116 -2.0545 -2.0571  0.0475
  876TIP3    H224044   5.802   5.286  15.982 -0.2738  0.6433  1.5369
  877TIP3   OH224045   3.935   5.405  11.821 -0.2440  0.7487  0.5271
  877TIP3    H124046   3.997   5.456  11.768  0.5322  0.0680  0.7459
  877TIP3    H224047   3.853   5.409  11.772  0.2098  0.9164 -0.2437
  878TIP3   OH224048   6.222   5.629   2.100 -1.1845 -0.1112  0.4113
  878TIP3    H124049   6.279   5.656   2.029 -1.0242 -0.4785  0.3985
  878TIP3    H224050   6.158   5.700   2.108 -1.0703  0.0330  0.0503
  879TIP3   OH224051   5.297   2.310  16.598  0.2842  0.9887  0.0285
  879TIP3    H124052   5.296   2.394  16.642  0.4062  1.0145 -0.0147
  879TIP3    H224053   5.340   2.250  16.660  0.5766  1.0557 -0.1051
  880TIP3   OH224054   3.226   1.650  13.666 -0.2100 -0.0413 -0.6183
  880TIP3    H124055   3.244   1.573  13.720 -2.2854 -1.7071 -2.1350
  880TIP3    H224056   3.300   1.655  13.606  0.8976  0.3821  0.7122
  881TIP3   OH224057   4.062   5.885   6.083  0.0876  0.2148 -0.0098
  881TIP3    H124058   4.014   5.804   6.062  0.7797 -0.1891 -0.0571
  881TIP3    H224059   4.093   5.871   6.172  0.1818  0.4406 -0.0087
  882TIP3   OH224060   5.962   0.700   6.187  0.3578 -0.3410 -0.4799
  882TIP3    H124061   5.919   0.659   6.262  0.9835 -0.2845 -0.0821
  882TIP3    H224062   5.929   0.789   6.186  1.5471  0.1567  0.7265
  883TIP3   OH224063   5.703   0.775  14.893 -0.0754 -0.8268  0.4536
  883TIP3    H124064   5.674   0.819  14.813  2.2559 -0.9672 -0.5373
  883TIP3    H224065   5.651   0.694  14.895 -0.8693 -0.3601 -0.3667
  884TIP3   OH224066   4.281   3.797   4.728  0.6573  0.6318 -0.4982
  884TIP3    H124067   4.270   3.892   4.717  0.6134  0.7327  0.3432
  884TIP3    H224068   4.207   3.759   4.681  0.3494  1.0470 -0.3572
  885TIP3   OH224069   1.374   3.307  11.471  0.7952 -0.0321  0.4965
  885TIP3    H124070   1.354   3.343  11.385 -3.0233  1.8207  1.9411
  885TIP3    H224071   1.465   3.330  11.487  0.6380  2.5599 -1.7189
  886TIP3   OH224072   3.791   1.573   3.171  0.1609 -0.1720  0.5234
  886TIP3    H124073   3.775   1.638   3.103  0.0307 -1.1588 -0.3975
  886TIP3    H224074   3.711   1.521   3.175 -0.0881  0.2610  1.8847
  887TIP3   OH224075   5.809   0.786  16.471  0.6450  0.2493  0.4593
  887TIP3    H124076   5.901   0.803  16.492  0.8342  0.7794 -0.7278
  887TIP3    H224077   5.812   0.745  16.385 -0.2470  0.6094  0.2501
  888TIP3   OH224078   3.118   5.467   1.316  0.7303 -0.1822 -0.3070
  888TIP3    H124079   3.073   5.408   1.376  0.6419 -2.3642 -2.3659
  888TIP3    H224080   3.207   5.433   1.310  0.5432 -0.4969 -1.9267
  889TIP3   OH224081   0.979   5.499   6.359 -0.0937  0.3772 -0.2206
  889TIP3    H124082   0.896   5.513   6.404 -0.5056 -0.1670 -0.7917
  889TIP3    H224083   1.043   5.490   6.430 -0.5969  0.3614  0.2391
  890TIP3   OH224084   0.228   4.912   3.527 -0.1633 -0.1892  0.0878
  890TIP3    H124085   0.213   4.866   3.610  2.2604 -1.7262 -0.2277
  890TIP3    H224086   0.140   4.930   3.494 -1.2405  0.8982  3.1554
  891TIP3   OH224087   5.351   3.013   1.976 -0.0710 -0.3599  0.0320
  891TIP3    H124088   5.293   2.977   1.909 -2.1472  1.5326  0.6990
  891TIP3    H224089   5.420   3.057   1.927 -0.8021 -0.1702 -0.8579
  892TIP3   OH224090   2.132   1.639  15.091 -0.7851  0.1909  0.0815
  892TIP3    H124091   2.085   1.596  15.163  1.2925 -0.4317  1.1646
  892TIP3    H224092   2.126   1.577  15.018 -1.4230  0.0249  0.2665
  893TIP3   OH224093   2.198   4.844  16.428 -0.4195 -0.3295 -0.3887
  893TIP3    H124094   2.277   4.872  16.382 -1.0499  0.3544 -1.0813
  893TIP3    H224095   2.140   4.813  16.359 -1.2094  0.2942 -0.0193
  894TIP3   OH224096   4.786   0.660   4.193 -0.1255  0.3061 -0.1763
  894TIP3    H124097   4.749   0.583   4.236 -0.2023  1.5417  2.1382
  894TIP3    H224098   4.712   0.699   4.147 -0.7928  0.5410  1.0489
  895TIP3   OH224099   1.424   0.831   3.788  0.4193 -0.2239  0.4697
  895TIP3    H124100   1.467   0.852   3.871 -0.0994  0.5408  0.5576
  895TIP3    H224101   1.404   0.917   3.750 -0.6001 -0.5688  0.2077
  896TIP3   OH224102   2.153   0.200   2.108  0.8137 -0.0106  0.2151
  896TIP3    H124103   2.240   0.168   2.083 -0.0183 -0.8434 -1.7908
  896TIP3    H224104   2.119   0.241   2.029  0.5828  3.2379  1.8307
  897TIP3   OH224105   3.424   1.423  17.150  0.5857  0.8924 -0.0828
  897TIP3    H124106   3.460   1.511  17.143 -0.3024  1.4831  1.9496
  897TIP3    H224107   3.497   1.370  17.183  2.3135 -0.1342 -4.8185
  898TIP3   OH224108   2.023   4.260   4.782 -0.3580 -0.4122 -0.7277
  898TIP3    H124109   2.098   4.257   4.722 -0.9540 -0.7304 -1.4725
  898TIP3    H224110   1.972   4.335   4.752 -0.9995 -0.9664 -1.0409
  899TIP3   OH224111   1.649   0.200  15.388  0.4616 -0.2271 -0.6654
  899TIP3    H124112   1.593   0.275  15.365  1.2034  0.6331  0.2554
  899TIP3    H224113   1.674   0.215  15.479 -0.5544 -2.3813  0.0392
  900TIP3   OH224114   2.360   1.984   4.531 -0.3534 -0.1616 -0.4283
  900TIP3    H124115   2.417   1.909   4.546 -2.1416 -1.4084  0.6254
  900TIP3    H224116   2.355   1.992   4.435  1.2987 -0.1954 -0.5374
  901TIP3   OH224117   2.693   3.552   6.294 -0.4812  0.4904  0.2126
  901TIP3    H124118   2.671   3.607   6.219 -2.4736  0.2193  0.5201
  901TIP3    H224119   2.618   3.563   6.353  0.0587 -0.9261  1.2032
  902TIP3   OH224120   5.559   1.615   5.015 -0.0584  0.1258  0.6767
  902TIP3    H124121   5.619   1.553   4.972 -0.6979 -0.6993  0.9538
  902TIP3    H224122   5.525   1.568   5.090 -1.7944  0.2160 -0.0056
  903TIP3   OH224123   5.606   6.565   5.485 -0.6307 -0.4736 -0.0046
  903TIP3    H124124   5.529   6.511   5.504 -0.4409 -0.7699 -0.0784
  903TIP3    H224125   5.588   6.603   5.399 -0.4321 -1.0116 -0.2876
  904TIP3   OH224126   3.789   1.609   3.429 -0.0461 -0.3663  0.4305
  904TIP3    H124127   3.831   1.695   3.425 -0.1606 -0.2876  0.8450
  904TIP3    H224128   3.797   1.574   3.340 -0.6502  0.3825  0.0715
  905TIP3   OH224129   4.699   1.922  12.434 -0.2361 -0.0459  0.6394
  905TIP3    H124130   4.730   1.873  12.358 -0.4520  1.5588 -0.5564
  905TIP3    H224131   4.730   1.873  12.510  0.9966 -1.0791 -0.4911
  906TIP3   OH224132   2.049   2.016  12.027  0.3237  0.2661 -0.3731
  906TIP3    H124133   2.050   2.039  12.120 -0.4711  0.3824 -0.3873
  906TIP3    H224134   1.957   2.019  12.003  0.5230  0.1932 -1.1577
  907TIP3   OH224135   1.135   3.755   2.130 -0.9183 -0.7680 -0.2943
  907TIP3    H124136   1.189   3.716   2.061 -1.9524  0.4713 -1.8724
  907TIP3    H224137   1.076   3.814   2.084 -1.6119  0.1720  1.6824
  908TIP3   OH224138   6.174   6.177  10.488  1.1993 -0.4056  0.8643
  908TIP3    H124139   6.084   6.211  10.495  1.6482  0.8296  0.8334
  908TIP3    H224140   6.163   6.082  10.491 -0.1576 -0.3012  0.3938
  909TIP3   OH224141   3.910   0.682  12.417 -0.3812  0.3076  0.2244
  909TIP3    H124142   3.974   0.752  12.400  1.1030 -1.2160 -0.8332
  909TIP3    H224143   3.825   0.722  12.399  0.3852  1.9656  0.1261
  910TIP3   OH224144   0.130   0.572  13.779  0.5444 -0.0770  0.2508
  910TIP3    H124145   0.061   0.518  13.816  0.5613 -1.3520 -1.4550
  910TIP3    H224146   0.113   0.660  13.813 -0.0021 -0.9602  2.3973
  911TIP3   OH224147   2.561   4.752  12.574  0.5194 -0.3567  0.1074
  911TIP3    H124148   2.490   4.719  12.630 -1.1633  2.1872 -0.3378
  911TIP3    H224149   2.596   4.674  12.532 -0.7958 -1.9279  1.7373
  912TIP3   OH224150   2.609   0.114   5.773 -0.1694 -0.5054  0.3179
  912TIP3    H124151   2.596   0.141   5.682 -0.4455  0.8465  0.7284
  912TIP3    H224152   2.685   0.056   5.770 -0.4188 -0.7979 -0.8204
  913TIP3   OH224153   0.449   0.984   0.333 -0.2234 -0.0887  0.5477
  913TIP3    H124154   0.483   1.073   0.321 -2.5216  1.0299  1.7251
  913TIP3    H224155   0.433   0.952   0.244  0.8731  0.5442  0.0965
  914TIP3   OH224156   4.394   2.432   4.616 -0.1937 -0.4236 -0.0896
  914TIP3    H124157   4.425   2.503   4.560 -0.1785  0.5231  1.0787
  914TIP3    H224158   4.410   2.352   4.565  1.5139  0.2550 -0.6674
  915TIP3   OH224159   2.318   0.699  13.883 -0.6683  0.5593  0.3039
  915TIP3    H124160   2.379   0.677  13.953 -0.3224  1.2972  0.2454
  915TIP3    H224161   2.322   0.795  13.877 -1.3238  0.5664 -0.1571
  916TIP3   OH224162   0.134   2.703   5.324  0.0172 -0.1241  0.4159
  916TIP3    H124163   0.052   2.702   5.373 -0.7377 -4.6942 -0.5025
  916TIP3    H224164   0.191   2.642   5.371  2.2021  1.3392 -0.1674
  917TIP3   OH224165   6.053   4.943   5.951  0.7438  0.2458 -0.3530
  917TIP3    H124166   6.013   4.977   5.871 -1.2500  0.5849  0.7190
  917TIP3    H224167   6.145   4.933   5.930  0.5617  1.9178 -2.1659
  918TIP3   OH224168   2.706   1.411  13.668 -0.7759 -0.3170 -0.0334
  918TIP3    H124169   2.785   1.441  13.714 -0.0928 -0.8525 -0.8346
  918TIP3    H224170   2.702   1.317  13.687 -1.3653 -0.2428  0.2095
  919TIP3   OH224171   6.226   5.700  11.844  0.0339 -0.1185  0.5616
  919TIP3    H124172   6.319   5.691  11.864  0.2444 -1.1372 -0.7573
  919TIP3    H224173   6.183   5.638  11.902  0.2984 -0.5275  0.3229
  920TIP3   OH224174   2.816   1.982   5.257  0.6011 -0.0614 -0.3171
  920TIP3    H124175   2.909   1.961   5.269  0.2909 -0.3274  2.3044
  920TIP3    H224176   2.814   2.077   5.249  1.0541  0.0513  0.7045
  921TIP3   OH224177   5.303   4.226  15.117  0.3217 -0.6323 -0.6667
  921TIP3    H124178   5.384   4.240  15.068  0.7367 -2.7526 -0.6659
  921TIP3    H224179   5.237   4.208  15.050  0.0059  0.2744 -0.6183
  922TIP3   OH224180   1.637   2.482  12.052 -0.0738 -0.1639 -0.4667
  922TIP3    H124181   1.589   2.400  12.059 -0.0335 -0.4159 -2.4365
  922TIP3    H224182   1.677   2.495  12.138  1.6899 -3.3257 -0.6833
  923TIP3   OH224183   2.080   0.029   4.434 -0.1437  0.0507  0.3219
  923TIP3    H124184   2.157   0.083   4.452 -0.2695 -0.1296  1.4725
  923TIP3    H224185   2.011   0.066   4.488 -0.4414 -0.7574  0.5177
  924TIP3   OH224186   5.506   3.253  11.166 -0.0979 -0.1194 -0.1837
  924TIP3    H124187   5.488   3.256  11.072  1.8325  0.4517 -0.5704
  924TIP3    H224188   5.600   3.236  11.173 -0.0385  0.6650  1.6318
  925TIP3   OH224189   6.395   5.940  12.660 -0.2538  0.0759 -0.8253
  925TIP3    H124190   6.341   5.874  12.616 -0.0903 -0.2334 -0.5712
  925TIP3    H224191   6.385   5.919  12.753  0.8149 -0.3916 -0.8023
  926TIP3   OH224192   1.874   4.285   3.836 -0.2117  0.3047  0.3224
  926TIP3    H124193   1.885   4.196   3.870 -1.2368  0.1179  0.2131
  926TIP3    H224194   1.884   4.341   3.913  2.7668  0.3222  0.0359
  927TIP3   OH224195   2.104   4.520  11.364 -0.4571 -0.1879  0.7749
  927TIP3    H124196   2.185   4.471  11.372 -1.5221 -2.0087  0.8337
  927TIP3    H224197   2.120   4.581  11.292  0.0514 -2.4303 -1.1048
  928TIP3   OH224198   5.279   5.348   5.961  0.2318 -0.2579 -0.4684
  928TIP3    H124199   5.339   5.306   6.023  1.8454 -2.1085 -3.0441
  928TIP3    H224200   5.330   5.354   5.880 -1.7555  1.9960 -1.6534
  929TIP3   OH224201   6.210   2.661  13.685  0.0273  0.2227  0.4494
  929TIP3    H124202   6.262   2.595  13.732 -2.5343 -0.9769  1.8305
  929TIP3    H224203   6.185   2.617  13.604 -0.7326 -0.1000  0.8508
  930TIP3   OH224204   6.692   2.777  11.302 -0.2944  0.0090  0.0881
  930TIP3    H124205   6.737   2.842  11.249 -0.6152 -0.5674 -0.9083
  930TIP3    H224206   6.761   2.737  11.355  0.1813 -0.0491 -0.5699
  931TIP3   OH224207   3.420   5.146  14.325 -0.6541  0.5858  0.5761
  931TIP3    H124208   3.476   5.069  14.321  1.0761  1.8410 -0.9623
  931TIP3    H224209   3.382   5.144  14.413  1.6973 -0.4123  1.6446
  932TIP3   OH224210   5.177   0.127   0.196 -0.4475 -0.4965  0.5019
  932TIP3    H124211   5.208   0.196   0.254  1.9104 -0.7828 -0.2831
  932TIP3    H224212   5.243   0.058   0.205 -1.3906 -1.5831 -0.6185
  933TIP3   OH224213   3.299   0.380   4.920  0.6265  0.1315 -0.7647
  933TIP3    H124214   3.356   0.361   4.846  0.9573 -1.7825 -0.0808
  933TIP3    H224215   3.267   0.294   4.948 -0.5557  0.9342  0.4740
  934TIP3   OH224216   6.604   3.031  10.412 -0.6899  0.6968  0.2032
  934TIP3    H124217   6.543   3.101  10.436 -2.3051 -0.2121 -1.0436
  934TIP3    H224218   6.671   3.075  10.359  1.0753  2.0998  3.3000
  935TIP3   OH224219   6.138   2.451   0.244  0.1960  0.1713 -0.4148
  935TIP3    H124220   6.094   2.370   0.218  0.2269  0.5280 -1.6242
  935TIP3    H224221   6.191   2.475   0.168  3.5150 -0.8800  1.3391
  936TIP3   OH224222   6.457   0.156  17.152 -0.0342  0.5566  0.0721
  936TIP3    H124223   6.528   0.129  17.094  0.5556 -2.3005  1.9083
  936TIP3    H224224   6.453   0.251  17.142  1.2198  0.4151 -3.1791
  937TIP3   OH224225   6.419   2.870   5.632 -0.9066  0.1918 -0.4134
  937TIP3    H124226   6.497   2.924   5.645  0.3921 -1.5330 -0.6395
  937TIP3    H224227   6.405   2.871   5.537 -0.4284 -0.4309 -0.4991
  938TIP3   OH224228   6.109   5.330  14.714 -0.4687 -0.3257 -0.5002
  938TIP3    H124229   6.066   5.415  14.715  1.3540  0.6470  0.9121
  938TIP3    H224230   6.110   5.305  14.621 -2.1422  0.5586 -0.8004
  939TIP3   OH224231   2.485   5.880   1.548 -0.0937 -0.2582  0.1167
  939TIP3    H124232   2.559   5.869   1.608 -0.6136  1.7778  1.2577
  939TIP3    H224233   2.427   5.807   1.568 -0.7417  0.8904  2.9681
  940TIP3   OH224234   3.658   2.618  16.667 -0.7103  0.3351 -0.1030
  940TIP3    H124235   3.639   2.700  16.621 -1.4126  1.2246  1.6589
  940TIP3    H224236   3.728   2.641  16.728 -0.6587 -0.4795  0.1536
  941TIP3   OH224237   1.232   1.555   1.917  0.1219 -0.0427 -0.3347
  941TIP3    H124238   1.193   1.642   1.922  2.2984  0.9480  0.6573
  941TIP3    H224239   1.271   1.542   2.003  1.9349 -0.9481 -1.2518
  942TIP3   OH224240   2.242   2.797  16.776  0.4750  0.4259 -0.2911
  942TIP3    H124241   2.331   2.785  16.809 -0.4550 -0.7694  2.0360
  942TIP3    H224242   2.248   2.775  16.683  2.7406  1.1872 -0.3818
  943TIP3   OH224243   5.569   3.978   5.659  0.0124 -0.1052  0.0724
  943TIP3    H124244   5.545   3.885   5.654 -0.8830 -0.0302  2.1182
  943TIP3    H224245   5.649   3.985   5.607 -1.6121 -1.3619 -2.8473
  944TIP3   OH224246   6.332   3.307   5.384 -0.0844  0.4077 -0.8235
  944TIP3    H124247   6.334   3.283   5.476  1.0525 -2.3942 -1.4563
  944TIP3    H224248   6.251   3.268   5.350  0.0303  0.4820 -1.1934
  945TIP3   OH224249   3.362   3.155   0.313  0.2586 -0.0739 -0.4183
  945TIP3    H124250   3.441   3.122   0.355  0.2406  1.2488  0.6975
  945TIP3    H224251   3.366   3.250   0.323 -2.1689 -0.0342  1.0307
  946TIP3   OH224252   0.650   0.175   2.531 -0.3098 -0.1272  0.4340
  946TIP3    H124253   0.678   0.089   2.501 -0.3054 -0.7389  2.1000
  946TIP3    H224254   0.730   0.218   2.560 -0.3082  0.4561 -0.4074
  947TIP3   OH224255   5.691   2.800   3.223 -0.2089 -0.1882 -0.5814
  947TIP3    H124256   5.657   2.712   3.206 -0.5311 -0.0467 -0.6757
  947TIP3    H224257   5.631   2.858   3.176 -0.5795  0.1540  0.3016
  948TIP3   OH224258   4.073   4.270   5.538 -0.0224  0.1585 -0.1597
  948TIP3    H124259   4.007   4.323   5.584  0.7197  0.8146  0.1631
  948TIP3    H224260   4.113   4.217   5.607 -1.1839 -1.3269 -0.5647
  949TIP3   OH224261   1.746   0.866   3.929 -0.0476  0.7250  0.2289
  949TIP3    H124262   1.790   0.830   4.007  0.5056 -0.3485 -0.5530
  949TIP3    H224263   1.716   0.789   3.882  0.9961  1.2741 -1.4124
  950TIP3   OH224264   4.106   3.254  14.576  0.1853 -0.2359 -0.3223
  950TIP3    H124265   4.093   3.165  14.608  1.5668 -0.0295  0.9002
  950TIP3    H224266   4.068   3.253  14.488 -1.2310 -1.5798  0.2545
  951TIP3   OH224267   0.646   4.609   2.787  0.3078  0.1857  0.1627
  951TIP3    H124268   0.603   4.590   2.870 -0.2694 -2.8064 -0.7058
  951TIP3    H224269   0.690   4.693   2.802 -2.1434  1.2172  2.5042
  952TIP3   OH224270   4.277   3.986  16.393  0.3460 -1.1299 -0.0467
  952TIP3    H124271   4.281   3.891  16.404 -0.0941 -1.3712 -1.6361
  952TIP3    H224272   4.278   3.999  16.298  2.0380  0.5416  0.1341
  953TIP3   OH224273   5.094   3.857  16.000 -0.0932  0.3076  0.2870
  953TIP3    H124274   5.128   3.768  15.997 -2.8327 -0.8277 -0.1179
  953TIP3    H224275   5.059   3.867  16.088  1.5961  1.6381  0.8711
  954TIP3   OH224276   2.675   1.063   2.059  0.4018 -0.0432 -0.4481
  954TIP3    H124277   2.614   1.019   2.000 -1.8255  2.3031 -0.0409
  954TIP3    H224278   2.641   1.044   2.147  1.2032  0.0144 -0.1131
  955TIP3   OH224279   4.021   2.076   3.929  0.5161 -0.0896 -0.5246
  955TIP3    H124280   3.981   2.049   3.847 -0.5072  0.3584 -0.2014
  955TIP3    H224281   3.985   2.016   3.994  0.1745  0.4700 -0.1893
  956TIP3   OH224282   3.549   1.247   2.341 -0.1730 -0.1217 -0.0756
  956TIP3    H124283   3.542   1.258   2.436  2.1802  0.1380  0.1285
  956TIP3    H224284   3.459   1.254   2.310 -0.8837  1.0196  2.0055
  957TIP3   OH224285   2.868   2.348   2.323  0.0993  0.1844 -0.3238
  957TIP3    H124286   2.804   2.392   2.267 -0.6971 -0.1933  0.2847
  957TIP3    H224287   2.893   2.270   2.274 -0.7000 -0.2187 -0.1030
  958TIP3   OH224288   1.750   5.968  15.810 -0.0184  0.7170  0.0148
  958TIP3    H124289   1.732   5.945  15.901 -0.2280  0.1200 -0.1744
  958TIP3    H224290   1.838   5.935  15.794  0.3026  1.4615  0.2090
  959TIP3   OH224291   0.488   6.607  11.591 -0.2331  0.6149 -0.2614
  959TIP3    H124292   0.408   6.599  11.641  0.3953  0.7598  0.7956
  959TIP3    H224293   0.524   6.692  11.616  1.7548 -0.6549  1.6283
  960TIP3   OH224294   4.348   4.662  14.555  0.4810  0.0333 -0.0439
  960TIP3    H124295   4.348   4.736  14.616  1.1437 -0.0894  0.1011
  960TIP3    H224296   4.434   4.623  14.563 -0.3324 -1.6578  0.9407
  961TIP3   OH224297   5.739   0.818   5.954  0.3322 -0.3164 -0.1747
  961TIP3    H124298   5.661   0.790   6.002 -0.2036 -0.5470 -1.1449
  961TIP3    H224299   5.794   0.859   6.020 -1.4944  1.7213  0.2010
  962TIP3   OH224300   3.974   1.942   5.084  0.1173 -0.3121 -0.4953
  962TIP3    H124301   3.952   1.889   5.160 -1.5385 -0.5471 -1.0994
  962TIP3    H224302   4.056   1.905   5.051  0.5405 -0.5709  0.8076
  963TIP3   OH224303   2.774   4.768  15.998  0.6093  0.2748  0.5529
  963TIP3    H124304   2.750   4.860  15.988 -1.2471 -0.1760  0.4343
  963TIP3    H224305   2.834   4.750  15.926  0.1072  1.1206 -0.0924
  964TIP3   OH224306   5.774   0.145   0.028 -0.1884  0.1198 -0.5327
  964TIP3    H124307   5.733   0.225   0.059  0.8317 -0.3186  2.2290
  964TIP3    H224308   5.865   0.169   0.010  0.3977 -0.5641  1.3189
  965TIP3   OH224309   5.681   6.389   6.526 -0.0245  0.2417  0.3755
  965TIP3    H124310   5.675   6.303   6.566 -0.0549  0.0200 -0.0954
  965TIP3    H224311   5.606   6.393   6.466 -1.0200  1.2601  1.6275
  966TIP3   OH224312   0.051   4.338   1.899 -0.3102 -0.4153  0.6469
  966TIP3    H124313   0.030   4.358   1.990 -0.8538 -0.9918  0.6582
  966TIP3    H224314   0.064   4.423   1.858 -0.5005 -0.1327  1.1621
  967TIP3   OH224315   2.357   2.571   5.158 -0.2426 -0.0988 -0.1566
  967TIP3    H124316   2.394   2.637   5.100 -0.4023  0.5082  0.4177
  967TIP3    H224317   2.371   2.488   5.113 -0.9102  0.4075 -1.3512
  968TIP3   OH224318   2.147   3.259   3.414 -0.9527  0.0469  0.2399
  968TIP3    H124319   2.095   3.213   3.348  1.1203 -2.0554 -0.0868
  968TIP3    H224320   2.191   3.329   3.366  0.6149 -1.5214 -0.7441
  969TIP3   OH224321   2.901   0.087   5.850  0.7957  0.0233  0.1755
  969TIP3    H124322   2.895  -0.004   5.822 -1.5330  0.1613  0.0548
  969TIP3    H224323   2.948   0.131   5.779  1.5297 -0.9810  0.0210
  970TIP3   OH224324   4.561   5.176  12.933  0.1876  0.1183 -0.0399
  970TIP3    H124325   4.639   5.131  12.901 -0.1717 -0.8631  0.4465
  970TIP3    H224326   4.533   5.229  12.858  0.3894 -0.7691 -0.7691
  971TIP3   OH224327   0.069   6.757   4.650 -0.2352 -0.8029  0.6190
  971TIP3    H124328   0.156   6.793   4.662 -1.0365  1.5271  0.0562
  971TIP3    H224329   0.011   6.818   4.698 -1.8113 -0.5441 -1.4824
  972TIP3   OH224330   2.435   6.760  16.784  0.2093 -0.0940 -0.4786
  972TIP3    H124331   2.487   6.718  16.852  0.4556 -1.2292 -1.3245
  972TIP3    H224332   2.410   6.844  16.821  0.0127 -0.8305  1.1432
  973TIP3   OH224333   3.052   3.359  11.436  0.1766 -0.7426 -0.0418
  973TIP3    H124334   3.049   3.398  11.348 -0.6001 -0.3939  0.1307
  973TIP3    H224335   3.000   3.418  11.490 -0.2817 -1.5578  0.4232
  974TIP3   OH224336   5.496   5.137   6.545  0.0198 -0.2908  0.1515
  974TIP3    H124337   5.458   5.223   6.561  0.2885 -0.6749  3.5074
  974TIP3    H224338   5.589   5.154   6.529 -0.3794  0.1659 -2.0517
  975TIP3   OH224339   1.119   3.764   4.686  0.1746 -0.4273 -0.3428
  975TIP3    H124340   1.137   3.683   4.638  2.1544  1.0903 -2.3263
  975TIP3    H224341   1.194   3.820   4.669 -1.6193  2.2969  0.0074
  976TIP3   OH224342   6.672   5.501   1.920 -0.0383 -0.5730  0.3351
  976TIP3    H124343   6.739   5.562   1.951  0.5116 -1.3326  0.6716
  976TIP3    H224344   6.655   5.529   1.830 -0.1919  0.4072  0.6511
  977TIP3   OH224345   0.203   5.660  10.422  0.1574 -0.3463 -0.2694
  977TIP3    H124346   0.109   5.674  10.414 -0.0225 -1.0716  0.4798
  977TIP3    H224347   0.231   5.723  10.489  0.0904 -0.5997 -0.0040
  978TIP3   OH224348   1.329   2.653   5.628  0.2630  0.3102 -0.1765
  978TIP3    H124349   1.274   2.580   5.599  1.0928 -0.7285  0.7332
  978TIP3    H224350   1.351   2.700   5.547 -1.2948  0.2971 -0.6353
  979TIP3   OH224351   5.255   0.102  12.171  0.5360  0.7402  0.1504
  979TIP3    H124352   5.280   0.073  12.259 -0.8226 -1.3918 -0.0782
  979TIP3    H224353   5.171   0.147  12.183  0.5156  0.7482 -0.0118
  980TIP3   OH224354   2.100   3.862  14.320  0.2446 -0.0377 -0.2615
  980TIP3    H124355   2.099   3.952  14.353 -2.0515 -0.6854  1.7528
  980TIP3    H224356   2.084   3.871  14.226 -3.9955  1.6652  0.3872
  981TIP3   OH224357   5.422   4.389   6.174 -0.3424 -0.0891  0.5156
  981TIP3    H124358   5.474   4.458   6.131 -1.9517 -0.0069 -1.4559
  981TIP3    H224359   5.437   4.402   6.267  1.1994  1.4759  0.1044
  982TIP3   OH224360   5.963   0.491  12.899 -0.2045  0.2833 -0.1075
  982TIP3    H124361   5.934   0.542  12.823 -1.5201 -0.4946 -0.1560
  982TIP3    H224362   5.999   0.411  12.861 -1.2872 -0.3107  0.0824
  983TIP3   OH224363   0.073   4.316   0.506 -0.3027 -0.3350  0.0040
  983TIP3    H124364   0.137   4.384   0.484 -1.7976  1.2816  0.4480
  983TIP3    H224365   0.106   4.278   0.588 -0.6082  1.4963  1.0336
  984TIP3   OH224366   6.033   0.494   1.403 -0.3055  0.0174 -0.2032
  984TIP3    H124367   6.122   0.507   1.435 -0.1404 -0.3350 -0.5161
  984TIP3    H224368   6.036   0.527   1.313 -0.6877  0.7175  0.0273
  985TIP3   OH224369   5.596   6.264   3.272  0.2049  0.3167 -0.2966
  985TIP3    H124370   5.556   6.180   3.250  0.1898  0.7107 -1.8933
  985TIP3    H224371   5.662   6.278   3.204  1.4929  0.7689  0.9819
  986TIP3   OH224372   6.720   6.098  15.346 -0.3680 -0.4221  0.2284
  986TIP3    H124373   6.813   6.102  15.324 -0.5088 -1.8131 -0.7791
  986TIP3    H224374   6.702   6.181  15.390  2.0219 -1.3406  3.2458
  987TIP3   OH224375   1.014   4.416  12.304  0.3050 -0.8152  0.0279
  987TIP3    H124376   0.976   4.329  12.321 -1.4393 -0.1667 -0.3850
  987TIP3    H224377   1.103   4.409  12.338 -0.4059 -2.1719  1.8059
  988TIP3   OH224378   4.958   4.012   1.557 -0.2484  0.3783  0.3125
  988TIP3    H124379   4.905   3.958   1.616 -0.6058  0.3998  0.0179
  988TIP3    H224380   5.008   3.949   1.505 -0.3208  0.3434  0.2845
  989TIP3   OH224381   2.058   2.202   5.562  0.0701 -0.5479 -0.2383
  989TIP3    H124382   1.986   2.221   5.502 -0.7083  0.0990  0.8623
  989TIP3    H224383   2.025   2.131   5.617  0.5101 -0.6448 -0.0934
  990TIP3   OH224384   4.148   2.372   0.969  0.3540  0.1569 -0.0913
  990TIP3    H124385   4.177   2.376   1.060 -0.3367 -1.9281  0.2781
  990TIP3    H224386   4.080   2.439   0.962 -1.2186 -1.1754  1.6162
  991TIP3   OH224387   4.338   6.751  16.623 -0.1505  0.0083  1.2061
  991TIP3    H124388   4.260   6.786  16.579 -0.1796  1.3908  2.3018
  991TIP3    H224389   4.401   6.824  16.622  1.1267 -1.0694  0.3875
  992TIP3   OH224390   3.873   0.556  16.777  0.2616  0.5647 -0.4668
  992TIP3    H124391   3.822   0.612  16.718 -0.1302 -0.0129 -0.6878
  992TIP3    H224392   3.845   0.582  16.865 -1.4476 -0.6382 -0.5933
  993TIP3   OH224393   5.222   4.547   4.980 -0.2166 -0.6326  0.1997
  993TIP3    H124394   5.210   4.575   4.889 -0.9606  3.5859  1.4245
  993TIP3    H224395   5.317   4.549   4.993 -0.2008  0.7819  0.0154
  994TIP3   OH224396   5.693   1.499   0.221  0.1334  0.3947 -0.3763
  994TIP3    H124397   5.616   1.556   0.215  0.9182  1.4653 -0.5699
  994TIP3    H224398   5.760   1.543   0.167  0.1016 -1.8737 -2.4129
  995TIP3   OH224399   2.799   4.923  15.388  0.2170  0.0112 -0.3024
  995TIP3    H124400   2.812   4.976  15.466 -0.6626  0.8887 -0.7229
  995TIP3    H224401   2.885   4.919  15.346  0.4103  0.6511  0.0214
  996TIP3   OH224402   6.573   5.706   6.133  0.1965  0.1519  0.2982
  996TIP3    H124403   6.637   5.762   6.089  2.4716 -1.3416  1.4741
  996TIP3    H224404   6.542   5.759   6.206  0.5026  0.7194  0.0298
  997TIP3   OH224405   0.520   3.631  11.920  0.1274  0.3067  0.6540
  997TIP3    H124406   0.533   3.584  11.837  1.6122  2.5452 -0.5020
  997TIP3    H224407   0.591   3.599  11.976  0.5097  0.4357  0.2492
  998TIP3   OH224408   4.440   0.455   2.706  0.1790 -0.0979  0.0669
  998TIP3    H124409   4.376   0.513   2.666  0.0435  0.6695  1.3204
  998TIP3    H224410   4.393   0.373   2.722  0.2642 -0.4500 -1.3606
  999TIP3   OH224411   4.353   6.654  14.241  0.0554 -0.1404 -0.2877
  999TIP3    H124412   4.324   6.642  14.150 -0.4062 -2.9096  0.1271
  999TIP3    H224413   4.273   6.645  14.293  0.5323 -0.0620  0.4790
 1000TIP3   OH224414   2.398   6.262  12.992 -0.3052 -0.1370  0.1193
 1000TIP3    H124415   2.337   6.327  12.958 -0.4232 -0.1987  0.2082
 1000TIP3    H224416   2.470   6.260  12.930  1.2657  2.3461  1.6828
 1001TIP3   OH224417   3.578   6.229   2.872  0.5085  0.3274  0.8840
 1001TIP3    H124418   3.662   6.270   2.854 -0.0396  0.6248 -1.3689
 1001TIP3    H224419   3.524   6.300   2.907  0.0996  1.2183 -1.3382
 1002TIP3   OH224420   3.405   2.956  10.495 -0.2494  0.2870  0.4108
 1002TIP3    H124421   3.489   2.984  10.459  0.0531 -2.1523 -1.0138
 1002TIP3    H224422   3.346   3.029  10.477  1.0431  1.1419 -0.6184
 1003TIP3   OH224423   4.387   0.355  16.810 -0.2747  0.0817  0.7195
 1003TIP3    H124424   4.333   0.351  16.889 -1.7191  1.3083 -0.1504
 1003TIP3    H224425   4.415   0.447  16.805  0.7268 -0.2272  0.3839
 1004TIP3   OH224426   5.126   6.526  15.116 -0.9109  0.5755 -0.3831
 1004TIP3    H124427   5.148   6.520  15.209 -0.0987  0.4164 -0.5852
 1004TIP3    H224428   5.154   6.442  15.079 -2.2534  0.1835 -0.5674
 1005TIP3   OH224429   5.493   4.556   4.891 -0.3100  0.0465  0.0782
 1005TIP3    H124430   5.550   4.625   4.925  1.3815 -0.9474 -0.5960
 1005TIP3    H224431   5.442   4.599   4.822 -2.5208  1.6375  2.5418
 1006TIP3   OH224432   4.871   0.855  13.598  1.0424  0.4264 -0.3720
 1006TIP3    H124433   4.781   0.854  13.563  1.7036 -2.0175 -2.3250
 1006TIP3    H224434   4.867   0.799  13.675  0.9721 -0.2538 -0.8538
 1007TIP3   OH224435   1.371   0.510   2.535  0.9160 -0.0406 -0.4886
 1007TIP3    H124436   1.420   0.575   2.485  0.1443 -0.2031 -1.4801
 1007TIP3    H224437   1.343   0.445   2.470 -0.6809  0.0925  0.0193
 1008TIP3   OH224438   3.083   4.197  17.106  0.0486  0.0374 -0.2447
 1008TIP3    H124439   3.115   4.186  17.016 -2.9613  0.1693 -1.4270
 1008TIP3    H224440   2.989   4.210  17.097 -0.1953  1.3054  2.8779
 1009TIP3   OH224441   4.331   1.803   1.496 -0.1400 -0.5605 -0.2404
 1009TIP3    H124442   4.360   1.814   1.405 -0.0320 -3.2778 -0.6378
 1009TIP3    H224443   4.333   1.708   1.510  0.0744 -0.2043  2.7139
 1010TIP3   OH224444   6.780   5.600   0.038  0.3850  0.0669 -0.0671
 1010TIP3    H124445   6.747   5.515   0.065 -0.5102  0.5140  0.2959
 1010TIP3    H224446   6.870   5.603   0.070  0.1683 -0.4302  0.6045
 1011TIP3   OH224447   5.446   1.876  11.294  0.4351 -0.2622  0.1049
 1011TIP3    H124448   5.512   1.807  11.286 -0.7380 -1.6702  1.6746
 1011TIP3    H224449   5.375   1.847  11.237  0.4492  0.3230 -0.2131
 1012TIP3   OH224450   5.429   4.017  16.755 -0.1897  0.2333 -0.9071
 1012TIP3    H124451   5.383   4.053  16.831  1.3348  0.2464  0.0561
 1012TIP3    H224452   5.440   4.091  16.696 -1.0908  0.3005 -1.0010
 1013TIP3   OH224453   3.855   0.550   2.580  0.0909  0.4969 -0.0242
 1013TIP3    H124454   3.881   0.629   2.533  1.1012 -0.3179 -0.8668
 1013TIP3    H224455   3.936   0.519   2.620 -0.7366  1.2097  2.3860
 1014TIP3   OH224456   2.127   2.466  12.139  0.4028  0.7757 -0.1307
 1014TIP3    H124457   2.103   2.430  12.224  0.4008 -0.8550 -0.7849
 1014TIP3    H224458   2.126   2.561  12.152  1.0698  0.5590  1.8523
 1015TIP3   OH224459   6.767   5.756  16.335  0.2696 -0.1367  0.6648
 1015TIP3    H124460   6.687   5.778  16.383 -0.8576  0.1847 -1.2728
 1015TIP3    H224461   6.776   5.825  16.270 -0.5674 -2.5720 -2.2825
 1016TIP3   OH224462   5.930   4.993   3.958  0.3540 -0.0377 -0.2748
 1016TIP3    H124463   6.008   5.017   3.907  0.9465 -0.7902  0.2500
 1016TIP3    H224464   5.870   4.957   3.893 -0.2578  2.0558 -0.9549
 1017TIP3   OH224465   2.501   0.053   6.453  0.0256 -0.4880  0.3896
 1017TIP3    H124466   2.461   0.121   6.508 -1.8599 -0.2542 -1.1530
 1017TIP3    H224467   2.444  -0.023   6.466  0.6586 -0.9981  0.1751
 1018TIP3   OH224468   1.562   3.786  15.613 -0.1162  0.2240 -0.0332
 1018TIP3    H124469   1.557   3.711  15.554 -0.0177 -0.6566  1.0474
 1018TIP3    H224470   1.510   3.760  15.689 -1.7736  2.0426 -0.4417
 1019TIP3   OH224471   3.342   6.063  11.671  0.2928 -0.4077  0.0152
 1019TIP3    H124472   3.252   6.039  11.651  0.8414 -1.7085 -1.0327
 1019TIP3    H224473   3.356   6.032  11.760 -0.5770  0.7109  0.5696
 1020TIP3   OH224474   5.792   2.858  13.752 -0.1864 -0.0029  0.3814
 1020TIP3    H124475   5.837   2.902  13.680 -0.1698 -0.9912 -0.2299
 1020TIP3    H224476   5.863   2.834  13.813 -0.0756 -0.0691  0.2284
 1021TIP3   OH224477   3.501   2.413   1.372 -0.2293  0.3060  0.3547
 1021TIP3    H124478   3.459   2.458   1.298 -0.9740 -0.1010  0.5282
 1021TIP3    H224479   3.550   2.341   1.332  1.1257  1.3486  0.0539
 1022TIP3   OH224480   1.735   0.723   4.311 -0.0625 -0.1146  0.5446
 1022TIP3    H124481   1.803   0.686   4.256 -0.4154 -0.1628  0.1318
 1022TIP3    H224482   1.708   0.803   4.266 -0.4742 -0.2440  0.5542
 1023TIP3   OH224483   4.008   0.307  13.506  0.0883 -0.3512  0.5184
 1023TIP3    H124484   4.085   0.352  13.541 -1.0208  0.8231  1.5447
 1023TIP3    H224485   3.936   0.336  13.562 -1.1193 -1.3840 -0.4496
 1024TIP3   OH224486   3.485   2.365  16.234 -0.3911 -0.0064 -0.5391
 1024TIP3    H124487   3.394   2.361  16.262 -0.3159  1.0923 -0.0936
 1024TIP3    H224488   3.531   2.408  16.306  0.1162  1.2623 -1.5754
 1025TIP3   OH224489   0.357   1.538  11.491 -0.4904  0.1069 -0.2737
 1025TIP3    H124490   0.330   1.583  11.571 -0.0021  0.6941 -0.4337
 1025TIP3    H224491   0.277   1.496  11.459 -0.6104 -0.4444  0.7140
 1026TIP3   OH224492   3.619   2.138  13.030  0.4658  0.0866 -0.3120
 1026TIP3    H124493   3.608   2.224  13.070 -2.4029 -0.2537 -0.1162
 1026TIP3    H224494   3.564   2.141  12.952 -0.2543 -1.7280  0.0677
 1027TIP3   OH224495   6.006   6.573   3.650 -0.3873  0.1424  0.7192
 1027TIP3    H124496   5.921   6.564   3.692 -0.0476 -3.1603  0.9304
 1027TIP3    H224497   6.039   6.484   3.642  1.2777  0.8898 -3.1044
 1028TIP3   OH224498   0.075   3.128   2.113  0.0179 -0.5751 -0.2266
 1028TIP3    H124499  -0.011   3.166   2.099  0.4694  0.4844 -0.2685
 1028TIP3    H224500   0.102   3.097   2.027  0.8361  1.6737 -0.8483
 1029TIP3   OH224501   4.638   0.437  15.413  0.0743 -0.0468  0.3225
 1029TIP3    H124502   4.611   0.384  15.338 -0.4509 -0.4572  0.7945
 1029TIP3    H224503   4.705   0.496  15.378  0.3591 -0.7268 -0.3094
 1030TIP3   OH224504   0.691   2.135  10.385  0.3585 -0.0225 -0.2940
 1030TIP3    H124505   0.654   2.049  10.363 -2.4215  1.1105 -0.4733
 1030TIP3    H224506   0.643   2.161  10.464  1.5553  1.1493  0.0778
 1031TIP3   OH224507   1.439   6.282  11.724 -0.7065 -0.2796  0.2714
 1031TIP3    H124508   1.383   6.313  11.653 -2.2610 -1.7789  0.7596
 1031TIP3    H224509   1.382   6.283  11.801  0.6337  0.3202  1.2799
 1032TIP3   OH224510   5.452   6.513   3.976  0.8418 -0.6267 -0.1134
 1032TIP3    H124511   5.524   6.454   3.998  0.6507 -0.5223  0.8555
 1032TIP3    H224512   5.404   6.524   4.058 -0.3785 -0.8159 -0.7806
 1033TIP3   OH224513   3.140   3.389   1.031  0.2529 -0.0571  0.6055
 1033TIP3    H124514   3.199   3.446   0.981  2.4498 -1.6881  1.1509
 1033TIP3    H224515   3.059   3.387   0.980  1.3207  0.7786 -1.2412
 1034TIP3   OH224516   1.584   4.411  13.562  0.2303 -0.5847 -0.4011
 1034TIP3    H124517   1.655   4.447  13.616  1.1228 -1.4570 -0.9703
 1034TIP3    H224518   1.533   4.357  13.623 -0.4104  0.6286  0.1808
 1035TIP3   OH224519   0.096   5.523   4.591  0.1329  0.0951 -0.0286
 1035TIP3    H124520   0.035   5.591   4.563  0.0432  0.3846  0.8482
 1035TIP3    H224521   0.158   5.568   4.648  2.8047  0.3927 -2.8895
 1036TIP3   OH224522   4.772   1.956   1.971 -0.2779  0.4900  0.4288
 1036TIP3    H124523   4.853   2.008   1.966 -1.1760  1.8280 -1.6224
 1036TIP3    H224524   4.764   1.917   1.885 -1.7343  0.2280  0.6672
 1037TIP3   OH224525   3.330   5.539  13.396  0.1312 -0.3231  0.0074
 1037TIP3    H124526   3.316   5.469  13.332 -0.1295 -0.1742 -0.1022
 1037TIP3    H224527   3.405   5.589  13.362 -0.8270  0.5480 -0.8960
 1038TIP3   OH224528   4.515   1.077   1.918  0.0634  0.5797 -0.6591
 1038TIP3    H124529   4.476   1.055   2.002  0.9076  1.8566  0.1096
 1038TIP3    H224530   4.473   1.159   1.892 -0.2023  0.1894 -1.5051
 1039TIP3   OH224531   1.699   1.779   6.137 -0.4842 -0.5466 -0.2405
 1039TIP3    H124532   1.734   1.706   6.189 -1.1815 -0.3223  0.5601
 1039TIP3    H224533   1.673   1.844   6.202  1.2517  0.9657 -0.9910
 1040TIP3   OH224534   5.300   0.227   3.483 -0.3912 -0.1902  0.4438
 1040TIP3    H124535   5.230   0.162   3.474 -1.7590  1.1678  0.8418
 1040TIP3    H224536   5.325   0.222   3.575 -0.5336 -0.1311  0.4866
 1041TIP3   OH224537   1.355   4.112  16.048 -0.6883  0.7288 -0.0828
 1041TIP3    H124538   1.292   4.162  16.099 -0.6506  1.6348 -0.8960
 1041TIP3    H224539   1.423   4.175  16.024  0.0453 -0.0159 -0.0285
 1042TIP3   OH224540   4.908   2.495  11.728  0.8640 -0.2776 -0.0869
 1042TIP3    H124541   4.813   2.496  11.728  0.8086 -1.9344 -1.3956
 1042TIP3    H224542   4.932   2.462  11.815  0.1310 -2.4683 -0.6536
 1043TIP3   OH224543   1.437   5.132   4.314  0.4266  0.2319  0.2037
 1043TIP3    H124544   1.384   5.212   4.320  0.2060  0.1433 -0.4566
 1043TIP3    H224545   1.387   5.067   4.362 -0.3474  0.0108 -0.8735
 1044TIP3   OH224546   2.780   2.392   1.113  0.2146  0.2804 -0.5838
 1044TIP3    H124547   2.821   2.367   1.196 -0.8220  0.9980  0.1785
 1044TIP3    H224548   2.829   2.345   1.046  1.8533  0.6116  0.3284
 1045TIP3   OH224549   1.383   5.444   1.677  0.3787  0.7805 -0.4869
 1045TIP3    H124550   1.314   5.485   1.625 -1.0702  1.8774  2.1194
 1045TIP3    H224551   1.455   5.507   1.677  0.2483  0.9304 -0.8393
 1046TIP3   OH224552   4.847   2.370   0.954  0.1127 -0.4012 -0.3231
 1046TIP3    H124553   4.908   2.299   0.933  1.7129  0.6262  0.6108
 1046TIP3    H224554   4.846   2.373   1.049 -1.1475 -0.1396 -0.3287
 1047TIP3   OH224555   1.870   2.473   5.714  0.2690 -0.3116  0.2850
 1047TIP3    H124556   1.778   2.499   5.709  0.2797 -0.4947 -1.5241
 1047TIP3    H224557   1.868   2.381   5.741 -0.0377 -0.0835  1.0405
 1048TIP3   OH224558   4.669   6.596   6.220 -0.0809  0.3631  0.2571
 1048TIP3    H124559   4.576   6.607   6.240  0.3517  1.0822  2.0406
 1048TIP3    H224560   4.675   6.506   6.187 -1.6895  0.9715 -2.0182
 1049TIP3   OH224561   3.594   5.815  14.360 -0.2289 -0.3740 -0.2888
 1049TIP3    H124562   3.683   5.822  14.326 -0.4496 -0.5537 -0.9106
 1049TIP3    H224563   3.558   5.737  14.318 -1.0606  0.3333 -0.9242
 1050TIP3   OH224564   3.312   4.647  15.434  0.2267  0.5878  0.3204
 1050TIP3    H124565   3.223   4.623  15.409  0.5503 -0.0773 -0.2272
 1050TIP3    H224566   3.321   4.738  15.405  0.6768 -0.2308 -2.3474
 1051TIP3   OH224567   3.561   4.302  14.104  0.3981 -0.1807 -0.0423
 1051TIP3    H124568   3.586   4.273  14.017 -1.7769  0.6392 -1.0201
 1051TIP3    H224569   3.529   4.392  14.091 -2.1142 -0.8189  1.1528
 1052TIP3   OH224570   6.626   2.867  14.186 -0.5836  0.0749  0.3774
 1052TIP3    H124571   6.717   2.856  14.159 -0.7424  1.3874 -0.8007
 1052TIP3    H224572   6.628   2.857  14.281  0.7074 -0.3880  0.3209
 1053TIP3   OH224573   0.517   1.080  13.169  0.2337 -0.0462 -0.3003
 1053TIP3    H124574   0.425   1.085  13.143  0.5078 -1.4622 -1.7023
 1053TIP3    H224575   0.557   1.157  13.130 -0.1663  0.0310 -0.5650
 1054TIP3   OH224576   2.545   4.267   0.107 -0.1873  0.0036  0.4913
 1054TIP3    H124577   2.459   4.241   0.075 -0.3782  0.9597  0.1994
 1054TIP3    H224578   2.587   4.185   0.132 -0.6781 -0.6007 -0.6058
 1055TIP3   OH224579   1.737   0.837   1.169 -0.1299  0.0860 -0.4022
 1055TIP3    H124580   1.747   0.763   1.229 -2.4179 -0.8538 -1.1060
 1055TIP3    H224581   1.793   0.816   1.095  0.3057 -0.2522  0.0156
 1056TIP3   OH224582   2.997   3.501   4.023  0.4873 -0.4738  0.0852
 1056TIP3    H124583   2.954   3.483   3.939  0.2401  1.4412 -0.2463
 1056TIP3    H224584   2.934   3.470   4.089 -0.5909  0.5450 -0.4276
 1057TIP3   OH224585   5.584   3.204   5.803 -0.0709 -0.1374 -0.2293
 1057TIP3    H124586   5.656   3.145   5.824 -1.9519 -2.7210 -0.5410
 1057TIP3    H224587   5.526   3.152   5.748 -2.7924  1.3688  1.0064
 1058TIP3   OH224588   3.957   4.480  11.220  0.4606  0.4627  0.7813
 1058TIP3    H124589   4.034   4.465  11.164 -0.4945  0.4350 -0.5873
 1058TIP3    H224590   3.978   4.558  11.271  0.6015  1.7236 -1.1150
 1059TIP3   OH224591   4.375   3.730  13.880  0.1434 -0.7227  0.3161
 1059TIP3    H124592   4.339   3.780  13.952 -0.1096 -0.9008  0.3144
 1059TIP3    H224593   4.398   3.795  13.814  1.0788 -0.4875  0.8503
 1060TIP3   OH224594   4.602   6.576   5.844 -0.3032 -0.1834 -0.0750
 1060TIP3    H124595   4.571   6.599   5.756  1.7548 -1.2781 -1.1579
 1060TIP3    H224596   4.597   6.658   5.893  0.6678  1.0510 -1.8942
 1061TIP3   OH224597   0.341   3.580   0.012 -0.2360  0.1544 -0.7425
 1061TIP3    H124598   0.308   3.545   0.095  0.4297  1.7050  0.2160
 1061TIP3    H224599   0.351   3.503  -0.043  1.7522 -1.3016  1.4461
 1062TIP3   OH224600   6.772   0.283   1.826  0.3959  0.3672  0.1350
 1062TIP3    H124601   6.842   0.232   1.785  0.1624 -0.3158  0.5675
 1062TIP3    H224602   6.760   0.243   1.912 -1.4021 -0.3721 -0.4179
 1063TIP3   OH224603   1.659   5.472  15.700  0.0140  0.0015 -0.6011
 1063TIP3    H124604   1.726   5.422  15.654  1.5687  1.2849  0.1258
 1063TIP3    H224605   1.581   5.417  15.698  1.4098 -2.1090 -0.4569
 1064TIP3   OH224606   6.589   0.769   6.409  0.6040  0.3682  0.0429
 1064TIP3    H124607   6.679   0.741   6.390  0.1678  0.0203 -1.7257
 1064TIP3    H224608   6.557   0.705   6.473  0.9797 -0.7201 -0.8127
 1065TIP3   OH224609   3.918   2.398   1.351  0.7298  0.4478  0.7547
 1065TIP3    H124610   3.857   2.326   1.364 -0.3055  1.2178  0.2467
 1065TIP3    H224611   3.906   2.425   1.260  1.7178  0.7160  0.6885
 1066TIP3   OH224612   5.667   6.266   5.839  0.2115 -0.4557 -0.4421
 1066TIP3    H124613   5.743   6.268   5.897 -0.5550  3.5911  0.8109
 1066TIP3    H224614   5.697   6.310   5.759 -0.7991  1.8755  0.3470
 1067TIP3   OH224615   6.097   2.914   4.132 -0.2493 -0.2095  0.2428
 1067TIP3    H124616   6.080   3.006   4.113  0.8426  0.2823  1.4838
 1067TIP3    H224617   6.054   2.898   4.216  0.4831 -0.5145  0.5719
 1068TIP3   OH224618   4.754   0.988   4.865  0.3111  0.1029  0.4845
 1068TIP3    H124619   4.659   0.980   4.862  0.3884 -0.5435 -1.0281
 1068TIP3    H224620   4.786   0.908   4.824  1.4393  1.1753 -0.8404
 1069TIP3   OH224621   6.044   4.712  16.850 -0.0903 -0.1545  0.0665
 1069TIP3    H124622   6.057   4.652  16.777 -4.2219  1.5619 -2.4259
 1069TIP3    H224623   6.069   4.798  16.815 -1.4532  0.6065  0.8717
 1070TIP3   OH224624   0.583   0.759   0.951 -0.1672  0.4039 -0.0985
 1070TIP3    H124625   0.659   0.732   1.002 -1.1412  1.3899  1.9767
 1070TIP3    H224626   0.508   0.719   0.995 -1.2797  3.2190  0.8333
 1071TIP3   OH224627   6.079   0.888  12.691 -0.4662  0.3368 -0.3540
 1071TIP3    H124628   6.083   0.977  12.726 -0.7656 -0.4996  2.0020
 1071TIP3    H224629   6.092   0.832  12.767  1.0662 -1.6605 -1.9697
 1072TIP3   OH224630   2.832   5.558  12.812 -0.3215  0.1888 -1.1510
 1072TIP3    H124631   2.918   5.573  12.774  0.6314  2.2378  1.5379
 1072TIP3    H224632   2.789   5.643  12.811 -0.6776  0.1113  1.1668
 1073TIP3   OH224633   3.257   5.076  14.543 -0.4275 -0.3654 -0.7019
 1073TIP3    H124634   3.171   5.093  14.506  0.6816 -1.0275 -3.8236
 1073TIP3    H224635   3.259   4.981  14.555 -0.6613 -0.2023  1.0345
 1074TIP3   OH224636   1.666   0.256  13.760 -0.2657  0.2956  0.1504
 1074TIP3    H124637   1.702   0.228  13.676  1.0399  1.7982  0.1575
 1074TIP3    H224638   1.576   0.282  13.741 -0.5454 -1.0252 -0.4111
 1075TIP3   OH224639   4.959   0.519  14.118  0.0296  0.1542 -0.3760
 1075TIP3    H124640   4.977   0.483  14.205  1.0631  1.1844 -0.1460
 1075TIP3    H224641   5.008   0.601  14.115  1.8650 -0.9227 -2.7587
 1076TIP3   OH224642   4.120   4.698  13.074 -0.1862 -0.9722 -0.3746
 1076TIP3    H124643   4.132   4.611  13.113  0.1134 -0.5588  0.4932
 1076TIP3    H224644   4.178   4.699  12.998 -1.2287 -2.0135 -1.2149
 1077TIP3   OH224645   0.151   4.657  15.650  0.9096  0.2548  0.3163
 1077TIP3    H124646   0.165   4.568  15.684 -1.7473 -0.7267 -0.8795
 1077TIP3    H224647   0.175   4.650  15.557  3.1413  1.5398  0.7315
 1078TIP3   OH224648   4.587   1.220  12.718 -0.0617 -0.1302  0.2391
 1078TIP3    H124649   4.625   1.225  12.630 -0.0185 -0.2621  0.2510
 1078TIP3    H224650   4.646   1.163  12.767 -0.3706 -0.4785  0.2084
 1079TIP3   OH224651   0.040   3.035  14.346  0.7131 -0.3381  0.4317
 1079TIP3    H124652   0.118   3.066  14.301 -0.7211  0.4040 -1.7331
 1079TIP3    H224653  -0.033   3.074  14.297 -1.0402 -1.9186  1.6227
 1080TIP3   OH224654   3.546   1.591   5.912 -0.0258 -0.0009 -0.3115
 1080TIP3    H124655   3.610   1.591   5.983  0.0740 -2.5596 -0.3183
 1080TIP3    H224656   3.597   1.600   5.832  0.1025  0.2159 -0.2061
 1081TIP3   OH224657   1.846   3.132   0.641  0.5574 -0.3638 -0.2210
 1081TIP3    H124658   1.928   3.179   0.629 -0.6208  1.9009  0.0327
 1081TIP3    H224659   1.840   3.117   0.735  0.8338 -0.8181 -0.2767
 1082TIP3   OH224660   2.727   0.853  14.491  0.3381  0.3328  0.4624
 1082TIP3    H124661   2.815   0.815  14.485 -0.4251 -1.2828 -1.2490
 1082TIP3    H224662   2.740   0.933  14.543  2.6585 -0.2872  0.9659
 1083TIP3   OH224663   1.980   2.746  12.147  0.0398  0.3306 -0.0051
 1083TIP3    H124664   2.043   2.757  12.075  3.0363 -0.8645  2.2429
 1083TIP3    H224665   1.914   2.814  12.131  0.8084  0.4511 -3.5554
 1084TIP3   OH224666   6.626   4.993  10.504  0.5641  0.2852  0.3621
 1084TIP3    H124667   6.646   5.078  10.542 -0.5872  0.9645 -0.4846
 1084TIP3    H224668   6.696   4.935  10.535  0.7360  1.2598  1.8583
 1085TIP3   OH224669   0.803   1.648  14.716 -0.3509  0.6363 -0.0079
 1085TIP3    H124670   0.767   1.568  14.754 -1.6728  0.8092 -0.8493
 1085TIP3    H224671   0.728   1.694  14.680  0.7111  0.8074 -2.2152
 1086TIP3   OH224672   5.416   5.565   1.850 -0.1531 -0.0182 -0.4054
 1086TIP3    H124673   5.322   5.559   1.866 -0.0642  0.2705  0.2476
 1086TIP3    H224674   5.430   5.655   1.821  0.0389  0.1974  0.3374
 1087TIP3   OH224675   0.806   4.667   0.890  0.1618 -0.7097 -0.1703
 1087TIP3    H124676   0.866   4.738   0.915  0.3011 -1.3389  1.3374
 1087TIP3    H224677   0.742   4.710   0.834  0.3353  0.5893  0.5886
 1088TIP3   OH224678   5.025   5.515   4.665  0.1081  0.0728  0.4259
 1088TIP3    H124679   4.981   5.600   4.665 -1.6378 -0.7918  0.4001
 1088TIP3    H224680   5.024   5.487   4.574  0.0873 -0.2612  0.5269
 1089TIP3   OH224681   1.851   1.863   2.040  0.1773  0.2972 -0.0971
 1089TIP3    H124682   1.850   1.805   2.116  3.8950  1.2385  0.8935
 1089TIP3    H224683   1.870   1.806   1.966  1.2157 -0.1071  0.4583
 1090TIP3   OH224684   0.673   3.187  11.837  0.4829  0.4901 -0.4236
 1090TIP3    H124685   0.737   3.256  11.822  2.2878 -0.5994  1.6586
 1090TIP3    H224686   0.706   3.113  11.786 -0.4706  0.5983 -1.2319
 1091TIP3   OH224687   4.688   1.866  14.717 -0.1938  0.3059 -0.2719
 1091TIP3    H124688   4.721   1.793  14.768 -2.1464  0.2958  1.0750
 1091TIP3    H224689   4.628   1.826  14.654 -1.5046  0.7386  0.6715
 1092TIP3   OH224690   6.017   3.890   1.938 -0.7683 -0.3386  0.1576
 1092TIP3    H124691   6.094   3.846   1.974 -0.6243  0.9306  1.4860
 1092TIP3    H224692   5.949   3.822   1.937 -0.1627 -0.9759  0.8172
 1093TIP3   OH224693   4.926   2.755   4.698 -0.4639 -0.2545  0.0372
 1093TIP3    H124694   4.891   2.778   4.784 -1.3969 -2.8532  0.4579
 1093TIP3    H224695   4.868   2.686   4.666 -0.1633  0.6529 -2.7429
 1094TIP3   OH224696   1.800   6.026  13.597 -0.3331  0.1083 -0.4412
 1094TIP3    H124697   1.814   6.090  13.527 -1.4794  2.1467  1.0873
 1094TIP3    H224698   1.882   6.027  13.647  0.0067 -0.3806 -0.9713
 1095TIP3   OH224699   1.564   2.765  16.666 -0.0082  0.5463  0.2997
 1095TIP3    H124700   1.524   2.852  16.658  0.0015  0.5619  0.4299
 1095TIP3    H224701   1.623   2.759  16.591  1.3331  1.3472  1.2478
 1096TIP3   OH224702   0.926   6.642  11.141  0.5229  0.0012 -0.2498
 1096TIP3    H124703   0.952   6.634  11.049  1.0936  1.3790 -0.2398
 1096TIP3    H224704   0.838   6.605  11.144  0.5422 -0.1790 -1.3323
 1097TIP3   OH224705   4.371   6.449  16.711  0.0963  0.1641  0.4236
 1097TIP3    H124706   4.341   6.436  16.801  0.5311  2.4667  0.9793
 1097TIP3    H224707   4.340   6.537  16.687  1.5213  0.3415 -1.0009
 1098TIP3   OH224708   5.583   4.260  16.957  0.0965 -0.4969 -0.1542
 1098TIP3    H124709   5.615   4.297  17.039  0.0944 -3.0469  1.1008
 1098TIP3    H224710   5.498   4.222  16.980  0.0205 -1.0996 -1.3663
 1099TIP3   OH224711   3.406   5.189   5.377 -0.4731 -0.2299 -0.0679
 1099TIP3    H124712   3.380   5.278   5.356 -1.1622 -0.0519  1.4502
 1099TIP3    H224713   3.331   5.151   5.423  0.6765 -0.7908  1.4410
 1100TIP3   OH224714   6.321   0.675   3.479 -0.1461 -0.5962  0.3342
 1100TIP3    H124715   6.287   0.744   3.421 -0.1671 -0.1335  0.8921
 1100TIP3    H224716   6.402   0.711   3.513 -0.6366 -0.4475  1.3784
 1101TIP3   OH224717   2.300   0.138  14.360 -0.3121  0.7198 -0.3648
 1101TIP3    H124718   2.291   0.111  14.451  0.8354  2.1929  0.2163
 1101TIP3    H224719   2.314   0.232  14.364  1.2846  0.5974 -1.9630
 1102TIP3   OH224720   0.053   0.201   3.985 -0.0113 -0.1203  0.0656
 1102TIP3    H124721   0.063   0.116   4.028 -1.7424 -1.3254 -1.7841
 1102TIP3    H224722   0.072   0.184   3.893  0.7101  1.7789 -0.1840
 1103TIP3   OH224723   5.963   3.238   1.234 -0.4440  0.4075  0.4852
 1103TIP3    H124724   5.897   3.244   1.165 -0.5967 -0.6749  0.5351
 1103TIP3    H224725   6.025   3.308   1.212 -0.4065 -0.0136 -0.8344
 1104TIP3   OH224726   6.062   4.894   0.188 -0.5202  0.2627  0.3427
 1104TIP3    H124727   6.144   4.843   0.184 -0.8586 -0.3414  0.8340
 1104TIP3    H224728   6.086   4.974   0.235 -0.0667  0.3944 -0.0989
 1105TIP3   OH224729   5.274   4.196   5.002  0.4564  0.3118  0.0970
 1105TIP3    H124730   5.346   4.256   4.986  0.3514  0.6341  0.8078
 1105TIP3    H224731   5.315   4.118   5.039  0.3539  0.8904  1.4920
 1106TIP3   OH224732   1.153   5.108   3.348 -0.5966 -0.4417  0.0980
 1106TIP3    H124733   1.217   5.171   3.316 -0.3647 -0.9961 -0.5657
 1106TIP3    H224734   1.082   5.111   3.285 -0.9498 -0.2688  0.5012
 1107TIP3   OH224735   4.471   5.749  12.056 -0.4498 -0.4727  0.1003
 1107TIP3    H124736   4.563   5.746  12.030 -0.1284 -0.3926  1.1839
 1107TIP3    H224737   4.472   5.789  12.143 -1.4683 -0.8594  0.3045
 1108TIP3   OH224738   0.208   4.122  13.711  0.2544 -0.4939  0.2552
 1108TIP3    H124739   0.142   4.060  13.744  1.2779 -3.2089 -2.3901
 1108TIP3    H224740   0.164   4.166  13.638  0.3738  0.0637  0.5149
 1109TIP3   OH224741   1.311   0.872   0.909  0.1524 -0.3901  0.2087
 1109TIP3    H124742   1.220   0.880   0.881  0.5190 -0.5895 -1.0980
 1109TIP3    H224743   1.343   0.963   0.912  0.2370 -0.3908 -0.4964
 1110TIP3   OH224744   4.015   3.255  13.838  0.2787 -0.4422  0.1128
 1110TIP3    H124745   4.071   3.230  13.911 -0.0592  0.0989  0.5561
 1110TIP3    H224746   4.055   3.334  13.802 -0.9020  0.7270  1.2560
 1111TIP3   OH224747   2.272   5.359   2.372  0.1584 -0.6818 -0.0563
 1111TIP3    H124748   2.222   5.287   2.412  1.8467 -0.2357  3.1086
 1111TIP3    H224749   2.358   5.321   2.354  1.1519  0.5099  1.8809
 1112TIP3   OH224750   5.444   2.966   2.214 -0.0463  0.1777  0.0552
 1112TIP3    H124751   5.371   3.003   2.264 -0.3811  1.9895 -1.6534
 1112TIP3    H224752   5.420   2.981   2.123  1.2844 -1.5870 -0.6419
 1113TIP3   OH224753   6.659   6.048  16.930 -0.6163  0.3631 -0.4894
 1113TIP3    H124754   6.698   6.060  17.016  1.6515  2.4379 -1.7109
 1113TIP3    H224755   6.664   5.953  16.915  2.3733  0.3153  0.1882
 1114TIP3   OH224756   2.241   1.002   1.714 -0.3880 -0.2077 -0.4270
 1114TIP3    H124757   2.146   1.014   1.726 -0.7543 -0.5835 -2.4375
 1114TIP3    H224758   2.278   1.089   1.726 -0.9616 -0.0722  0.4801
 1115TIP3   OH224759   2.641   4.212   6.017  0.0785  0.0376 -0.1760
 1115TIP3    H124760   2.636   4.181   6.107 -0.6329 -0.5768 -0.4130
 1115TIP3    H224761   2.712   4.161   5.977  1.9724  1.9245  0.6202
 1116TIP3   OH224762   3.866   5.750  15.743  0.3065  0.0015  0.0732
 1116TIP3    H124763   3.857   5.797  15.825  1.2710 -1.4097  1.0285
 1116TIP3    H224764   3.849   5.658  15.765  2.1397 -0.6320 -0.9404
 1117TIP3   OH224765   5.625   0.801   1.006 -0.3241  0.0113 -0.2032
 1117TIP3    H124766   5.644   0.864   1.075 -1.2502 -0.7603  0.7924
 1117TIP3    H224767   5.547   0.836   0.962  0.6939  0.8842 -1.3791
 1118TIP3   OH224768   2.017   4.551  15.722 -0.4008 -0.3497 -0.5583
 1118TIP3    H124769   2.001   4.561  15.628 -0.2305 -3.3830 -1.0259
 1118TIP3    H224770   1.934   4.572  15.764 -0.3966  1.3177 -1.3320
 1119TIP3   OH224771   4.802   4.897  12.599  0.2879  0.6020  0.0095
 1119TIP3    H124772   4.792   4.802  12.589  0.7448  0.6298 -0.8001
 1119TIP3    H224773   4.768   4.915  12.687  1.8093 -0.5630  0.8911
 1120TIP3   OH224774   2.396   1.504   6.575 -0.1624  0.1959 -0.6997
 1120TIP3    H124775   2.480   1.509   6.530  0.4772 -0.1275  0.4128
 1120TIP3    H224776   2.388   1.589   6.620 -0.5648  0.3292 -1.0113
 1121TIP3   OH224777   2.106   6.706  15.439  0.2490 -0.0285  0.3093
 1121TIP3    H124778   2.111   6.706  15.535  0.3401 -0.4014  0.3038
 1121TIP3    H224779   2.013   6.697  15.420  0.3725 -1.6291  0.3559
 1122TIP3   OH224780   6.708   5.634   6.597  0.3472 -0.1997  0.5136
 1122TIP3    H124781   6.719   5.568   6.666  1.5269 -1.0859 -0.4806
 1122TIP3    H224782   6.613   5.639   6.583  0.2619 -2.4894 -0.1012
 1123TIP3   OH224783   3.529   5.276   4.911  0.1409  0.7085 -0.0779
 1123TIP3    H124784   3.576   5.352   4.946  0.7219  0.5072 -0.4238
 1123TIP3    H224785   3.492   5.307   4.829 -0.3221  0.8592  0.1815
 1124TIP3   OH224786   2.500   5.250   6.829 -0.4666  0.0657  0.6824
 1124TIP3    H124787   2.557   5.175   6.845 -0.2442  0.0747 -0.0032
 1124TIP3    H224788   2.451   5.261   6.910 -1.6232 -1.7777  0.3030
 1125TIP3   OH224789   1.066   3.275  13.395 -0.3602 -0.8069 -0.0292
 1125TIP3    H124790   0.976   3.263  13.365 -0.1275 -2.3251 -0.2179
 1125TIP3    H224791   1.073   3.220  13.473  0.0905  0.2109  0.6699
 1126TIP3   OH224792   3.675   1.187  13.168  0.7414  0.8524 -0.4016
 1126TIP3    H124793   3.650   1.147  13.085 -1.5581  1.3812 -0.0195
 1126TIP3    H224794   3.687   1.112  13.227  0.7328  0.5440 -0.7853
 1127TIP3   OH224795   6.612   4.091  15.040  0.6930 -0.1236  0.1020
 1127TIP3    H124796   6.518   4.078  15.047  0.1662  2.9576  0.1189
 1127TIP3    H224797   6.638   4.121  15.127  1.8889 -1.7069  0.3320
 1128TIP3   OH224798   4.059   6.454  15.488 -0.2143  0.4688 -0.1388
 1128TIP3    H124799   4.050   6.359  15.480  4.6570 -0.3089  0.3103
 1128TIP3    H224800   4.003   6.477  15.561 -1.9651 -1.9152 -0.5870
 1129TIP3   OH224801   4.020   1.173  13.578  0.1761 -0.1390  0.1789
 1129TIP3    H124802   3.979   1.112  13.516 -0.2630 -0.7181  1.0216
 1129TIP3    H224803   4.002   1.135  13.664  2.2371 -0.2655  0.6092
 1130TIP3   OH224804   6.381   1.878   1.390  0.0588 -0.0024 -0.7557
 1130TIP3    H124805   6.288   1.903   1.394  0.0595  0.6053 -2.9811
 1130TIP3    H224806   6.384   1.812   1.321  1.3561  0.3027 -1.0074
 1131TIP3   OH224807   4.902   5.762   3.113 -0.3815 -0.5160 -0.2402
 1131TIP3    H124808   4.898   5.783   3.207  5.7610  1.6279  0.0208
 1131TIP3    H224809   4.952   5.681   3.109 -0.4064 -0.4859 -1.6732
 1132TIP3   OH224810   3.556   5.134   2.431  0.2039 -0.1458 -0.2697
 1132TIP3    H124811   3.559   5.154   2.338 -1.5049 -0.0713 -0.3414
 1132TIP3    H224812   3.599   5.209   2.473  0.1889  0.2493 -0.9454
 1133TIP3   OH224813   2.386   5.275  10.794  0.0082  0.0892 -0.0797
 1133TIP3    H124814   2.340   5.231  10.723  0.2774 -0.1726 -0.0916
 1133TIP3    H224815   2.323   5.341  10.825 -0.8168 -1.0097  0.6575
 1134TIP3   OH224816   4.888   1.970   4.846  0.6245  0.0282 -0.1036
 1134TIP3    H124817   4.912   2.055   4.810 -0.0736 -0.3457 -1.5524
 1134TIP3    H224818   4.797   1.958   4.819  1.1737 -1.8376 -1.2811
 1135TIP3   OH224819   0.439   2.725   2.732 -0.0999  0.2194 -0.0331
 1135TIP3    H124820   0.522   2.679   2.744  0.3657  1.5140  2.5345
 1135TIP3    H224821   0.375   2.673   2.780 -0.2731  0.4260 -0.0386
 1136TIP3   OH224822   3.881   1.455   0.373 -0.3557 -0.1557  0.5449
 1136TIP3    H124823   3.829   1.478   0.450 -0.4311  0.4848  0.3060
 1136TIP3    H224824   3.836   1.498   0.300 -0.1795 -0.6037  0.1689
 1137TIP3   OH224825   2.690   5.860   1.731 -0.5165  0.1277  0.6302
 1137TIP3    H124826   2.693   5.777   1.779  1.1599  0.4709  1.1865
 1137TIP3    H224827   2.711   5.926   1.798 -2.8537  1.1462  0.4425
 1138TIP3   OH224828   1.941   6.105  15.441  0.1269  0.4007 -0.9710
 1138TIP3    H124829   1.878   6.034  15.437 -0.6053  0.9776 -0.0480
 1138TIP3    H224830   1.945   6.138  15.351 -0.8233  0.3002 -1.0568
 1139TIP3   OH224831   3.065   2.097   3.705 -0.1409  0.1261 -0.1187
 1139TIP3    H124832   3.044   2.058   3.620  0.3388  1.9019 -1.0857
 1139TIP3    H224833   3.018   2.180   3.707 -0.4264 -0.0413  1.5187
 1140TIP3   OH224834   6.684   5.311  15.970  0.0917  0.3079 -0.0311
 1140TIP3    H124835   6.740   5.246  16.014  0.7474  0.5342 -0.5155
 1140TIP3    H224836   6.739   5.348  15.901  0.1425  2.2517  0.9934
 1141TIP3   OH224837   5.671   4.276   1.012 -0.4847  0.1812 -0.0446
 1141TIP3    H124838   5.623   4.193   1.018 -0.6658  0.4122  3.1097
 1141TIP3    H224839   5.605   4.343   1.029 -0.0347  0.8912 -1.0180
 1142TIP3   OH224840   5.986   3.813   4.748  0.0430 -0.4185 -0.3480
 1142TIP3    H124841   5.964   3.721   4.737 -0.7152 -0.3013  0.1324
 1142TIP3    H224842   6.037   3.835   4.670  0.4985 -1.3159 -0.3226
 1143TIP3   OH224843   4.657   1.414   5.852 -0.4356  0.3414  0.2181
 1143TIP3    H124844   4.735   1.378   5.894  1.3253  1.5760 -1.7299
 1143TIP3    H224845   4.638   1.494   5.901 -0.0586  0.3707  0.3213
 1144TIP3   OH224846   2.276   1.652  11.277 -0.5642  0.0596  0.4054
 1144TIP3    H124847   2.263   1.632  11.184 -0.0392  1.4284  0.0222
 1144TIP3    H224848   2.249   1.571  11.322  1.1608 -1.3927 -1.0193
 1145TIP3   OH224849   2.889   6.623  17.051  0.3885 -0.0334 -0.2845
 1145TIP3    H124850   2.947   6.572  16.995 -0.6991 -0.8785 -0.6733
 1145TIP3    H224851   2.939   6.702  17.072  1.6879 -0.7544 -0.5609
 1146TIP3   OH224852   3.687   4.982   2.866  0.5864  0.4830 -0.4407
 1146TIP3    H124853   3.690   5.077   2.858  0.7795  0.3835 -1.6465
 1146TIP3    H224854   3.750   4.962   2.935  1.1423  1.1694 -0.7386
 1147TIP3   OH224855   5.311   1.070  12.896  0.1309  0.1488 -0.5045
 1147TIP3    H124856   5.310   1.095  12.988 -0.3976 -1.8163  0.0618
 1147TIP3    H224857   5.397   1.030  12.882  0.5319  1.1792 -1.1031
 1148TIP3   OH224858   5.692   5.981  13.491  0.2562 -0.2063  0.3178
 1148TIP3    H124859   5.776   5.966  13.449  0.5732 -1.5420  1.3656
 1148TIP3    H224860   5.709   5.971  13.585 -0.8283  0.7509  0.6511
 1149TIP3   OH224861   1.544   3.801  15.270 -0.3758 -0.6581 -0.6163
 1149TIP3    H124862   1.574   3.717  15.235 -0.4991 -0.3928 -1.3764
 1149TIP3    H224863   1.499   3.843  15.197 -2.6116 -1.0227  0.4870
 1150TIP3   OH224864   4.568   1.616   3.857  0.0085  0.0217 -0.3382
 1150TIP3    H124865   4.512   1.673   3.909 -0.9261 -2.1260  1.1938
 1150TIP3    H224866   4.638   1.590   3.916  0.0557 -0.8846 -0.7655
 1151TIP3   OH224867   3.392   4.296  13.234  0.1430  0.8787 -0.2288
 1151TIP3    H124868   3.463   4.332  13.287 -0.5772  2.2636 -0.1607
 1151TIP3    H224869   3.400   4.202  13.245  0.4314  1.0950  1.7864
 1152TIP3   OH224870   1.055   5.139  13.165  0.1866 -0.7410 -0.2213
 1152TIP3    H124871   1.043   5.126  13.259  0.5282 -0.5669 -0.1494
 1152TIP3    H224872   1.137   5.093  13.145  0.1155 -0.7760 -0.4352
 1153TIP3   OH224873   4.135   3.808   5.151 -0.2139 -0.2436  0.6080
 1153TIP3    H124874   4.148   3.895   5.188 -1.1072  0.9258 -1.6937
 1153TIP3    H224875   4.217   3.789   5.105 -0.7298  0.2707 -0.5563
 1154TIP3   OH224876   0.075   4.125  13.214  0.8079 -0.0899 -0.2993
 1154TIP3    H124877   0.013   4.189  13.180 -1.2925 -0.6358  2.2444
 1154TIP3    H224878   0.041   4.101  13.300  2.3280 -3.4922 -0.4770
 1155TIP3   OH224879   0.275   3.504   4.687 -0.0076  0.4594 -0.4645
 1155TIP3    H124880   0.277   3.413   4.658  1.8847  0.3500 -0.1020
 1155TIP3    H224881   0.358   3.541   4.656 -1.1592  2.3617 -1.4593
 1156TIP3   OH224882   3.402   1.325  11.689 -0.3710  0.3202  0.1033
 1156TIP3    H124883   3.471   1.359  11.745  0.4243 -2.1318  0.7535
 1156TIP3    H224884   3.446   1.304  11.606 -0.0649 -1.8941  0.7465
 1157TIP3   OH224885   0.375   5.978  11.817  0.2771 -0.0323  0.4598
 1157TIP3    H124886   0.363   5.936  11.903 -0.3915 -0.3651  0.2109
 1157TIP3    H224887   0.351   6.069  11.831  2.2996  0.4311  1.1477
 1158TIP3   OH224888   6.006   5.326  12.486  0.2224 -0.0480  0.2039
 1158TIP3    H124889   6.101   5.328  12.476  0.1658  0.7882 -0.2589
 1158TIP3    H224890   5.973   5.320  12.396 -0.1505 -1.6772  0.4177
 1159TIP3   OH224891   1.398   3.557  14.558 -0.2457 -0.2743  0.1723
 1159TIP3    H124892   1.396   3.475  14.509 -0.5811  0.2958 -0.7945
 1159TIP3    H224893   1.490   3.583  14.559 -0.4133  0.4744 -1.4892
 1160TIP3   OH224894   3.197   2.965   4.092 -0.9273 -0.5566  0.0531
 1160TIP3    H124895   3.117   3.001   4.131  0.5037  1.2641  1.4826
 1160TIP3    H224896   3.266   2.983   4.156  0.5947 -2.4791 -0.9233
 1161TIP3   OH224897   6.420   1.732  10.710  0.2597 -0.4505  0.0781
 1161TIP3    H124898   6.363   1.713  10.784 -0.5386  0.3640 -0.3049
 1161TIP3    H224899   6.368   1.709  10.633  1.0530 -1.2166 -0.2401
 1162TIP3   OH224900   1.958   5.062  11.108 -0.5707 -0.2051 -0.2105
 1162TIP3    H124901   1.978   5.123  11.037 -1.0341 -0.8572 -0.9186
 1162TIP3    H224902   2.023   5.082  11.176 -0.1947  0.5108 -0.7668
 1163TIP3   OH224903   1.126   2.725  12.580  0.4293 -0.2193 -0.1013
 1163TIP3    H124904   1.212   2.762  12.600 -0.0218  0.5788  0.4141
 1163TIP3    H224905   1.072   2.749  12.656  0.3990 -2.9719  0.8531
 1164TIP3   OH224906   5.697   3.758   2.317  0.3435 -0.0098 -0.0776
 1164TIP3    H124907   5.792   3.766   2.325  0.2315  0.4127  0.9575
 1164TIP3    H224908   5.666   3.749   2.407 -0.7840  1.9164 -0.2389
 1165TIP3   OH224909   4.347   0.319  10.792 -0.3221 -0.5917  0.0796
 1165TIP3    H124910   4.259   0.283  10.786 -0.7941  0.6263 -0.6618
 1165TIP3    H224911   4.343   0.402  10.744  0.5203  0.8039  2.2475
 1166TIP3   OH224912   6.775   6.020   4.586 -0.5747 -0.0053 -0.6990
 1166TIP3    H124913   6.752   6.110   4.563 -2.6224 -1.1348 -3.7059
 1166TIP3    H224914   6.717   5.997   4.659  0.4801  1.2683  0.5871
 1167TIP3   OH224915   4.183   4.408   5.154 -0.2472 -0.0634 -0.0717
 1167TIP3    H124916   4.217   4.368   5.234 -0.1384 -0.1036 -0.1378
 1167TIP3    H224917   4.218   4.354   5.083 -0.8004 -0.3703 -0.1228
 1168TIP3   OH224918   3.872   5.877   2.372  0.0644  0.1349 -0.4030
 1168TIP3    H124919   3.925   5.928   2.310  0.6026  1.7969  1.3267
 1168TIP3    H224920   3.835   5.942   2.431  0.8637 -1.4452  2.0168
 1169TIP3   OH224921   5.284   6.639  13.065  0.4725 -0.0074 -0.3781
 1169TIP3    H124922   5.190   6.660  13.068  0.4650  1.2650 -3.9218
 1169TIP3    H224923   5.286   6.545  13.044  0.0323 -0.1991  0.3930
 1170TIP3   OH224924   5.801   3.472   0.614  0.1668  0.3315 -0.2526
 1170TIP3    H124925   5.868   3.432   0.560 -1.4444  0.4153 -2.4472
 1170TIP3    H224926   5.796   3.562   0.583 -1.5698  0.0758 -0.8235
 1171TIP3   OH224927   4.214   4.466  16.116 -0.2899 -0.3868  0.6134
 1171TIP3    H124928   4.169   4.390  16.076 -2.3767  1.3301 -0.5425
 1171TIP3    H224929   4.272   4.497  16.047 -0.0967 -0.4164  0.7648
 1172TIP3   OH224930   5.458   0.664   0.705  0.0509  0.1087  0.4448
 1172TIP3    H124931   5.461   0.756   0.675  0.2593 -0.0212  0.0508
 1172TIP3    H224932   5.544   0.629   0.682 -0.8368 -0.8751 -1.6826
 1173TIP3   OH224933   4.383   3.750   5.607 -0.4288 -0.4231  0.2878
 1173TIP3    H124934   4.305   3.725   5.657  0.0595  1.5370  2.2127
 1173TIP3    H224935   4.455   3.702   5.649 -0.4645 -1.7111 -1.0544
 1174TIP3   OH224936   2.453   0.077  17.111 -0.5498  0.1314 -0.3331
 1174TIP3    H124937   2.516   0.059  17.041  0.6286 -0.1099  0.7530
 1174TIP3    H224938   2.488   0.153  17.157 -1.4242  0.4247 -0.1216
 1175TIP3   OH224939   2.459   0.247  16.450 -0.1561  0.5337 -0.1810
 1175TIP3    H124940   2.468   0.183  16.379  1.1990  0.8946 -0.3589
 1175TIP3    H224941   2.372   0.231  16.486 -0.2035 -0.7821 -0.8351
 1176TIP3   OH224942   6.072   1.962  14.507 -0.2419  0.0392 -0.3626
 1176TIP3    H124943   6.040   1.969  14.417 -1.6601 -0.9367  0.0158
 1176TIP3    H224944   6.034   2.038  14.552  2.6321  2.0734 -1.0939
 1177TIP3   OH224945   3.868   0.377   3.316  0.0907 -0.4464 -0.1960
 1177TIP3    H124946   3.824   0.305   3.270  0.0661 -2.3471  2.5474
 1177TIP3    H224947   3.932   0.334   3.373  1.2726  1.8516  0.3429
 1178TIP3   OH224948   1.883   0.591   0.650 -0.0209  0.2991 -0.4040
 1178TIP3    H124949   1.803   0.584   0.702  0.3288 -1.5591 -0.0428
 1178TIP3    H224950   1.854   0.628   0.566 -1.3154 -0.5887 -0.3762
 1179TIP3   OH224951   1.959   0.849  15.804 -0.1748  0.3700 -0.1058
 1179TIP3    H124952   2.031   0.892  15.848  0.8856 -0.6478 -0.7811
 1179TIP3    H224953   1.883   0.863  15.861  0.7698  0.5878  1.1250
 1180TIP3   OH224954   4.800   6.127  12.697 -0.4374  0.2942 -0.3985
 1180TIP3    H124955   4.888   6.113  12.662 -0.7663  0.1111 -1.1771
 1180TIP3    H224956   4.752   6.169  12.625 -1.6785 -1.8715 -0.9207
 1181TIP3   OH224957   6.367   5.231  10.277 -0.2865  0.7211  0.3458
 1181TIP3    H124958   6.397   5.168  10.343  0.2549  1.3649  0.7337
 1181TIP3    H224959   6.285   5.195  10.245  0.1965 -0.3779  0.2843
 1182TIP3   OH224960   2.475   5.017   0.818 -0.7025  0.0082  0.3428
 1182TIP3    H124961   2.526   4.992   0.895 -0.6311 -0.6349  0.0938
 1182TIP3    H224962   2.461   4.935   0.771  0.2176  0.5434 -0.9149
 1183TIP3   OH224963   3.040   2.462   5.010 -0.2994  0.2833 -0.4843
 1183TIP3    H124964   3.121   2.458   5.059 -1.2874 -0.8428  1.1461
 1183TIP3    H224965   3.025   2.372   4.980 -1.7898  0.0694  0.7607
 1184TIP3   OH224966   2.202   1.505  12.652  0.1405 -0.4597 -0.5491
 1184TIP3    H124967   2.179   1.519  12.560  0.6818  0.4631 -0.5593
 1184TIP3    H224968   2.293   1.476  12.650  0.8847  1.6267 -0.2351
 1185TIP3   OH224969   6.448   0.442  11.840  0.0424 -0.4196  0.3962
 1185TIP3    H124970   6.494   0.450  11.757 -2.4597 -1.0204 -1.1666
 1185TIP3    H224971   6.391   0.519  11.844 -2.7065 -2.2488 -0.4754
 1186TIP3   OH224972   0.566   0.446   3.269  0.3044  0.7945  0.1420
 1186TIP3    H124973   0.659   0.448   3.244  1.0937 -1.4195  2.4526
 1186TIP3    H224974   0.552   0.529   3.313  1.0980  1.2894 -0.5009
 1187TIP3   OH224975   3.972   1.163  16.910  0.0992  1.0612 -0.1128
 1187TIP3    H124976   3.941   1.078  16.941 -1.9911  1.7920  0.0064
 1187TIP3    H224977   3.983   1.152  16.816 -0.7126  0.7885 -0.1840
 1188TIP3   OH224978   2.045   6.029   2.073  0.4601  0.1653  0.0468
 1188TIP3    H124979   2.119   6.065   2.123  0.3380  1.6687 -0.7802
 1188TIP3    H224980   2.079   5.950   2.033  1.1464 -0.0029  0.9280
 1189TIP3   OH224981   5.089   1.136  14.304  0.1823 -0.4300  0.2093
 1189TIP3    H124982   5.126   1.081  14.373 -0.1253 -1.7256 -0.6219
 1189TIP3    H224983   5.116   1.094  14.222 -0.7907  0.1693 -0.4489
 1190TIP3   OH224984   2.080   4.217  14.301 -0.8203  0.3159  0.1234
 1190TIP3    H124985   2.029   4.293  14.274  1.0285  1.4618 -0.3133
 1190TIP3    H224986   2.161   4.223  14.251  0.3485 -0.6481  1.7889
 1191TIP3   OH224987   6.217   6.549  12.177 -0.1374 -0.0981  0.3012
 1191TIP3    H124988   6.237   6.524  12.087  2.2787 -0.5221  0.8756
 1191TIP3    H224989   6.122   6.539  12.185 -0.9546  3.0329 -3.0626
 1192TIP3   OH224990   2.096   6.674   1.242 -0.0270  0.2189 -0.2059
 1192TIP3    H124991   2.095   6.726   1.163  1.3821  0.9516  0.2175
 1192TIP3    H224992   2.133   6.590   1.215  0.3543  0.4329 -0.3614
 1193TIP3   OH224993   2.069   2.268   2.431 -0.0033 -0.3945  0.0894
 1193TIP3    H124994   2.162   2.288   2.439  0.2208 -1.4577  0.2831
 1193TIP3    H224995   2.030   2.304   2.510  0.2138  0.1741 -0.0557
 1194TIP3   OH224996   3.587   2.719   1.848 -0.0024 -0.0667  0.1687
 1194TIP3    H124997   3.612   2.666   1.772  1.4701 -0.9264  1.1889
 1194TIP3    H224998   3.664   2.716   1.905 -0.4307  1.9797  0.9363
 1195TIP3   OH224999   2.498   4.188  14.219  0.6186 -0.0371 -0.6987
 1195TIP3    H125000   2.449   4.130  14.277 -1.3302  1.8515 -0.2993
 1195TIP3    H225001   2.589   4.177  14.244 -0.0437 -0.3270  1.8068
 1196TIP3   OH225002   2.934   3.909   1.260 -0.0494  0.1287 -0.1057
 1196TIP3    H125003   3.013   3.913   1.315  1.1594  0.0116 -1.7565
 1196TIP3    H225004   2.863   3.888   1.321  0.9429  1.5944  1.6587
 1197TIP3   OH225005   4.752   3.494   0.937  0.0108 -0.3010  0.8040
 1197TIP3    H125006   4.764   3.549   1.014 -0.6441 -0.1626  0.8186
 1197TIP3    H225007   4.678   3.437   0.960 -1.9165  1.4530 -0.6331
 1198TIP3   OH225008   0.087   5.582  15.549  0.4362 -0.2834 -0.0125
 1198TIP3    H125009   0.056   5.673  15.554 -1.6665 -0.8658 -1.0948
 1198TIP3    H225010   0.180   5.589  15.530  0.5108  1.6330  0.8207
 1199TIP3   OH225011   3.852   0.307   2.443  0.8645  0.1687  0.5641
 1199TIP3    H125012   3.924   0.314   2.380  0.6924  0.1460  0.3642
 1199TIP3    H225013   3.838   0.396   2.473 -0.0770  0.4266 -0.5825
 1200TIP3   OH225014   1.916   2.782   1.503 -0.0641  0.7020 -0.2773
 1200TIP3    H125015   1.922   2.834   1.423 -2.1720  0.6380 -0.5515
 1200TIP3    H225016   1.940   2.693   1.477 -2.4951  0.2866 -1.3568
 1201TIP3   OH225017   2.497   5.428  12.184 -0.2190  0.2324  0.3660
 1201TIP3    H125018   2.446   5.353  12.215  2.5037 -1.0260  2.1692
 1201TIP3    H225019   2.583   5.393  12.162  1.0025  2.7121  0.7574
 1202TIP3   OH225020   4.917   4.729   2.809  0.5549 -0.1207  0.0920
 1202TIP3    H125021   4.938   4.748   2.717  2.0354  0.5731  0.5421
 1202TIP3    H225022   4.823   4.745   2.816  0.3266 -0.6397 -1.4001
 1203TIP3   OH225023   4.619   4.562  13.374 -0.4203 -0.0216 -0.1800
 1203TIP3    H125024   4.559   4.498  13.338 -0.1704 -0.9501  0.9948
 1203TIP3    H225025   4.577   4.591  13.456 -0.6338  1.4838 -0.7877
 1204TIP3   OH225026   4.131   0.416   4.525 -0.1908  0.6889 -0.4545
 1204TIP3    H125027   4.078   0.358   4.471 -1.4287  1.2217  0.1479
 1204TIP3    H225028   4.155   0.364   4.602 -1.2167  0.9166  0.0380
 1205TIP3   OH225029   3.757   0.037  13.804  0.2575 -0.4072  0.4025
 1205TIP3    H125030   3.780   0.075  13.889  0.5892 -0.1469  0.2002
 1205TIP3    H225031   3.826  -0.027  13.787 -0.3820 -1.2294  0.8145
 1206TIP3   OH225032   6.111   3.359   5.103  0.2254  0.7113 -0.4262
 1206TIP3    H125033   6.182   3.394   5.157  0.4538 -1.3539  0.7020
 1206TIP3    H225034   6.122   3.403   5.018  1.5449  1.9914  0.3514
 1207TIP3   OH225035   0.581   1.925   4.391  0.1232 -0.0273 -0.3268
 1207TIP3    H125036   0.506   1.927   4.333  0.8475 -3.1094 -1.5823
 1207TIP3    H225037   0.578   1.838   4.431  1.1134  1.0455  2.3442
 1208TIP3   OH225038   4.103   0.180  11.494  0.2803  0.3135 -0.1045
 1208TIP3    H125039   4.053   0.108  11.455 -1.1032  0.8058  0.6967
 1208TIP3    H225040   4.093   0.167  11.588  0.4982  1.2307  0.0481
 1209TIP3   OH225041   5.662   3.161   2.287  0.2685  0.0365  0.2426
 1209TIP3    H125042   5.579   3.197   2.320  0.7182  0.0500  1.3894
 1209TIP3    H225043   5.650   3.066   2.292  0.6677  0.0321  1.3450
 1210TIP3   OH225044   6.308   5.151  11.329 -0.4110  0.1760 -0.3461
 1210TIP3    H125045   6.384   5.094  11.333 -0.2279  0.2557 -1.9551
 1210TIP3    H225046   6.309   5.199  11.412  1.5132  0.4624 -0.4888
 1211TIP3   OH225047   3.000   4.323   6.030 -0.1469  0.8451  0.0896
 1211TIP3    H125048   3.017   4.230   6.047  0.2254  0.3267 -2.6647
 1211TIP3    H225049   3.053   4.369   6.094 -0.4839 -0.8194  1.6410
 1212TIP3   OH225050   0.907   6.226   3.115  0.3256  0.2236  0.4741
 1212TIP3    H125051   0.929   6.272   3.196 -2.0854 -1.7263  2.4168
 1212TIP3    H225052   0.816   6.250   3.098  0.6667  0.3020 -1.5365
 1213TIP3   OH225053   2.754   2.339   4.856  0.2373 -0.1622 -0.3808
 1213TIP3    H125054   2.691   2.313   4.788 -1.4758  3.0680 -0.2726
 1213TIP3    H225055   2.702   2.343   4.936  1.1062  0.4427  0.1713
 1214TIP3   OH225056   3.748   3.260   0.405 -0.2656 -0.7311 -0.1131
 1214TIP3    H125057   3.781   3.284   0.318  1.1041 -0.9264  0.3385
 1214TIP3    H225058   3.719   3.343   0.443 -2.6752 -0.8495 -1.4219
 1215TIP3   OH225059   6.440   4.951  12.738 -0.9576 -0.0747  0.4728
 1215TIP3    H125060   6.447   4.915  12.826  1.8599 -0.2990  0.2648
 1215TIP3    H225061   6.483   4.886  12.682  0.5159  1.6532 -0.5118
 1216TIP3   OH225062   1.129   6.214  14.220 -0.1722 -0.5380 -0.1173
 1216TIP3    H125063   1.178   6.243  14.143 -1.2670 -2.6461 -1.7262
 1216TIP3    H225064   1.047   6.263  14.215 -0.4834 -1.0983 -0.6623
 1217TIP3   OH225065   5.028   5.435  13.896 -0.0952  0.3224  0.0744
 1217TIP3    H125066   5.017   5.421  13.802  0.9314  0.7177 -0.1234
 1217TIP3    H225067   4.947   5.477  13.924  0.0463  1.2533 -0.8634
 1218TIP3   OH225068   5.895   1.930   1.135  0.5127 -0.2910  0.0865
 1218TIP3    H125069   5.918   1.839   1.119 -0.6496 -0.6445  0.3102
 1218TIP3    H225070   5.828   1.949   1.068  1.1052  0.5518 -0.2795
 1219TIP3   OH225071   6.728   5.992   4.050  0.2960  0.1455 -0.6246
 1219TIP3    H125072   6.653   5.982   4.108  0.4979  0.8657 -0.2258
 1219TIP3    H225073   6.787   6.051   4.097 -0.2691  2.1451 -2.2694
 1220TIP3   OH225074   3.007   0.022   2.495  0.0562 -0.0884 -0.1930
 1220TIP3    H125075   2.940   0.020   2.427  0.6170 -1.9351 -0.7529
 1220TIP3    H225076   3.058   0.101   2.475 -2.7690  2.2498  1.1850
 1221TIP3   OH225077   4.439   1.922  13.859 -0.6690 -0.2852  0.7672
 1221TIP3    H125078   4.421   1.917  13.952 -0.1716  1.2907  0.9731
 1221TIP3    H225079   4.535   1.931  13.854 -0.6962 -0.3006  0.1079
 1222TIP3   OH225080   3.240   2.787   1.294 -0.6170 -0.4633  1.1265
 1222TIP3    H125081   3.301   2.806   1.223 -1.2396  1.3981  1.0433
 1222TIP3    H225082   3.168   2.740   1.252 -0.6351 -0.0258  0.6594
 1223TIP3   OH225083   2.382   0.377  16.083  0.3390 -0.4275  0.1803
 1223TIP3    H125084   2.318   0.428  16.134  1.2185  0.2405  0.6324
 1223TIP3    H225085   2.466   0.417  16.103  0.6199  0.8540 -2.9181
 1224TIP3   OH225086   6.533   5.993  14.470  0.0017 -0.3973 -0.4829
 1224TIP3    H125087   6.507   6.066  14.412 -3.1127 -0.7788  0.2648
 1224TIP3    H225088   6.573   5.930  14.411  0.1055  0.6958 -1.6421
 1225TIP3   OH225089   2.199   4.848  11.861  0.3478 -0.3593 -0.3967
 1225TIP3    H125090   2.116   4.806  11.884 -0.5436  1.2208 -0.5598
 1225TIP3    H225091   2.174   4.921  11.805  1.9794 -0.5986 -1.4998
 1226TIP3   OH225092   2.164   5.209   3.733  0.1355 -0.7800  0.5589
 1226TIP3    H125093   2.128   5.186   3.818  0.0815 -0.2169  0.6955
 1226TIP3    H225094   2.256   5.231   3.750  0.0506 -0.3854  0.5254
 1227TIP3   OH225095   3.523   5.065   6.052 -0.0482  0.4803 -0.1880
 1227TIP3    H125096   3.566   4.995   6.102 -2.2311 -0.2247  0.8390
 1227TIP3    H225097   3.500   5.131   6.117 -1.5615  0.2580 -0.4433
 1228TIP3   OH225098   3.671   3.580  14.567 -0.5451  0.3863  0.0085
 1228TIP3    H125099   3.743   3.641  14.579 -0.6293  0.5993 -0.5364
 1228TIP3    H225100   3.700   3.500  14.610  0.2524  0.2908 -0.6742
 1229TIP3   OH225101   5.821   3.884   5.713 -0.0682  0.5848 -0.0629
 1229TIP3    H125102   5.768   3.806   5.704 -0.0059  0.2143  2.2085
 1229TIP3    H225103   5.912   3.853   5.709 -0.0431  0.6216  0.1739
 1230TIP3   OH225104   2.249   0.151   1.794 -0.0727 -0.1169 -0.3284
 1230TIP3    H125105   2.212   0.206   1.725 -2.1172 -0.3827  0.4873
 1230TIP3    H225106   2.311   0.208   1.840  2.0033 -0.1848 -2.8317
 1231TIP3   OH225107   5.536   5.398  14.748 -0.4122 -0.3278  0.0784
 1231TIP3    H125108   5.620   5.356  14.731  0.5002  1.3241  0.2535
 1231TIP3    H225109   5.475   5.357  14.687  0.7113 -0.9353 -0.6641
 1232TIP3   OH225110   5.217   4.043  10.861  0.0531 -0.4833 -0.7189
 1232TIP3    H125111   5.303   4.008  10.838 -0.2665 -1.7381 -0.1129
 1232TIP3    H225112   5.208   4.025  10.955 -0.4806  0.5045 -0.5644
 1233TIP3   OH225113   6.682   3.360   1.583  0.2887  0.1119  0.1087
 1233TIP3    H125114   6.715   3.342   1.671 -0.0331 -0.1114  0.1845
 1233TIP3    H225115   6.744   3.317   1.525  1.2303  1.3366  0.1645
 1234TIP3   OH225116   3.810   4.447   2.172  0.2195 -0.4178 -0.0186
 1234TIP3    H125117   3.754   4.379   2.134 -0.8892 -0.4473  1.5469
 1234TIP3    H225118   3.749   4.508   2.213  1.2910  0.1667  0.7554
 1235TIP3   OH225119   6.483   6.638  16.075  0.3493  0.0436 -0.2149
 1235TIP3    H125120   6.445   6.713  16.120  2.2153  0.7774  0.2533
 1235TIP3    H225121   6.477   6.566  16.138  0.7885  0.4542  0.3067
 1236TIP3   OH225122   6.509   2.400   3.080 -0.7375 -0.5850 -0.2510
 1236TIP3    H125123   6.464   2.316   3.072 -0.2279 -0.7966 -0.9773
 1236TIP3    H225124   6.598   2.378   3.104 -0.8674 -0.1930  0.6206
 1237TIP3   OH225125   1.182   0.520   3.838  0.3033  0.1715  0.5643
 1237TIP3    H125126   1.269   0.495   3.869  0.7704  1.2650  0.1991
 1237TIP3    H225127   1.123   0.458   3.880  1.3263 -1.1671  0.1264
 1238TIP3   OH225128   2.638   0.256  13.554 -0.0472 -0.7672  0.1907
 1238TIP3    H125129   2.543   0.262  13.549 -0.0547  0.3803  1.3661
 1238TIP3    H225130   2.669   0.345  13.539  0.6793 -0.5082  2.7302
 1239TIP3   OH225131   3.029   4.612   5.029 -0.7473 -0.3273  0.0638
 1239TIP3    H125132   3.082   4.539   4.995  0.9365  0.0674  1.6762
 1239TIP3    H225133   3.078   4.690   5.005 -2.3613  0.3148 -1.3295
 1240TIP3   OH225134   2.108   0.465   1.087 -0.1413  0.1197  0.3447
 1240TIP3    H125135   2.028   0.452   1.139 -0.3814  0.0924 -0.0270
 1240TIP3    H225136   2.177   0.422   1.138  0.1473  2.3261  1.9708
 1241TIP3   OH225137   1.815   0.733  14.935  0.4504 -0.4736  0.4669
 1241TIP3    H125138   1.755   0.714  14.863  1.5197  1.6711 -1.1079
 1241TIP3    H225139   1.759   0.733  15.013 -1.0790 -1.1348 -0.5809
 1242TIP3   OH225140   2.233   0.490  17.141 -0.4138 -0.2858 -0.2238
 1242TIP3    H125141   2.171   0.509  17.071  0.4130 -0.7537 -1.1055
 1242TIP3    H225142   2.293   0.566  17.141  1.7585 -1.8385 -2.4925
 1243TIP3   OH225143   5.825   1.021  17.078 -0.0021 -0.0116 -0.1707
 1243TIP3    H125144   5.844   0.968  17.000 -0.3298  0.1025 -0.3305
 1243TIP3    H225145   5.788   0.959  17.141  2.1200 -0.5220  0.6486
 1244TIP3   OH225146   5.634   6.003   1.344 -0.0415 -0.1978 -0.7620
 1244TIP3    H125147   5.629   6.065   1.271  0.5572 -0.0792 -0.7044
 1244TIP3    H225148   5.590   5.925   1.311 -0.3118  0.0628 -1.0332
 1245TIP3   OH225149   0.372   3.611   0.484  0.7201 -0.2592  0.5906
 1245TIP3    H125150   0.284   3.635   0.514  1.2297 -0.7561  2.6116
 1245TIP3    H225151   0.409   3.692   0.451  0.0443  0.2899  1.1477
 1246TIP3   OH225152   3.655   2.046  14.592 -0.2028 -0.0601 -0.0129
 1246TIP3    H125153   3.672   1.961  14.633  2.0623  0.8619  1.1284
 1246TIP3    H225154   3.707   2.044  14.511 -1.0374 -0.1426 -0.5657
 1247TIP3   OH225155   1.026   0.118   2.284 -0.0563  0.0111 -0.2688
 1247TIP3    H125156   0.974   0.142   2.207  0.6809  1.4978 -0.3405
 1247TIP3    H225157   0.973   0.149   2.358  1.1293  2.5758 -0.3772
 1248TIP3   OH225158   3.054   5.719   1.373  0.1114  0.0231  0.3144
 1248TIP3    H125159   3.105   5.732   1.453  1.9117 -0.3785 -0.7086
 1248TIP3    H225160   3.079   5.632   1.342 -0.8175  0.0297 -0.5109
 1249TIP3   OH225161   3.378   5.322  14.084 -0.0756 -0.5171 -0.1295
 1249TIP3    H125162   3.358   5.256  14.151 -0.3509 -0.6875 -0.3797
 1249TIP3    H225163   3.410   5.271  14.009 -0.2923 -0.3669 -0.3252
 1250TIP3   OH225164   3.180   6.209   5.349 -0.2867  0.2313 -0.4211
 1250TIP3    H125165   3.146   6.297   5.364 -1.6818 -0.0386 -1.7393
 1250TIP3    H225166   3.108   6.151   5.373  0.2668 -0.5071 -0.5097
 1251TIP3   OH225167   3.667   5.343   1.451 -0.1674 -0.5722 -0.0217
 1251TIP3    H125168   3.604   5.271   1.459  1.1051 -1.7211 -0.0206
 1251TIP3    H225169   3.724   5.333   1.527 -1.2959  1.8344  1.2402
 1252TIP3   OH225170   6.274   3.800   2.916 -0.0921 -0.0920 -0.5201
 1252TIP3    H125171   6.243   3.755   2.994  0.7781  1.2835  0.6892
 1252TIP3    H225172   6.259   3.893   2.935  2.1554  0.4486 -0.9949
 1253TIP3   OH225173   1.037   1.614  15.293 -0.1406 -0.3430 -0.9185
 1253TIP3    H125174   1.103   1.653  15.350 -0.6886  1.2784 -1.3397
 1253TIP3    H225175   1.022   1.680  15.226 -2.3860 -0.5494 -0.6720
 1254TIP3   OH225176   0.174   1.865   3.485 -0.2907  1.1424 -0.2960
 1254TIP3    H125177   0.090   1.909   3.475 -0.4376  0.6606 -1.2937
 1254TIP3    H225178   0.153   1.772   3.494  0.0900  1.1231  0.5295
 1255TIP3   OH225179   1.248   6.415  14.939  0.0431  0.0431  0.4558
 1255TIP3    H125180   1.236   6.329  14.979 -2.0569 -0.8639 -1.8565
 1255TIP3    H225181   1.203   6.476  14.998 -0.5713 -0.8069  0.8771
 1256TIP3   OH225182   4.278   5.707  15.048 -0.5047  0.0261  0.1221
 1256TIP3    H125183   4.344   5.667  15.105  0.1789  0.9083 -0.0250
 1256TIP3    H225184   4.200   5.714  15.103 -0.4470 -0.9112  0.3381
 1257TIP3   OH225185   4.123   1.878   5.721 -0.2475 -0.1803  0.1912
 1257TIP3    H125186   4.137   1.825   5.799  0.7444  0.9648  0.8284
 1257TIP3    H225187   4.028   1.886   5.713 -0.4579 -2.2649 -0.1129
 1258TIP3   OH225188   0.980   1.643  14.475 -0.0763  0.3443  0.6871
 1258TIP3    H125189   0.935   1.692  14.544 -1.5528  0.4915 -0.3368
 1258TIP3    H225190   0.927   1.657  14.397  0.6993 -1.0821 -0.1436
 1259TIP3   OH225191   5.399   0.498  11.119  0.1431 -0.1667 -0.1825
 1259TIP3    H125192   5.454   0.445  11.175 -2.8397 -1.8648  1.3822
 1259TIP3    H225193   5.389   0.447  11.038  0.2179 -0.2204 -0.1570
 1260TIP3   OH225194   0.620   1.297  11.178 -0.3100 -0.5365 -0.2147
 1260TIP3    H125195   0.608   1.345  11.259 -2.7212 -1.0922 -0.1773
 1260TIP3    H225196   0.619   1.364  11.110 -0.3751 -0.2409  0.0763
 1261TIP3   OH225197   2.436   5.655  12.078  0.3057 -0.1795 -0.2021
 1261TIP3    H125198   2.462   5.575  12.122 -2.0906 -0.6959  0.4350
 1261TIP3    H225199   2.360   5.630  12.025  0.4507  1.3602 -1.2120
 1262TIP3   OH225200   4.004   6.499   0.382  0.3419  0.2232 -0.5624
 1262TIP3    H125201   4.014   6.545   0.298  0.9462  1.2779  0.0631
 1262TIP3    H225202   3.957   6.418   0.360  0.0110  0.7377 -1.8305
 1263TIP3   OH225203   4.575   6.293  12.568  0.8833  0.0141 -0.3436
 1263TIP3    H125204   4.542   6.340  12.491 -0.0939 -0.3317 -0.1464
 1263TIP3    H225205   4.497   6.261  12.612  1.2673  1.8614  1.8818
 1264TIP3   OH225206   3.357   5.936   5.738  0.1441 -0.2536  0.3000
 1264TIP3    H125207   3.346   5.849   5.700 -0.1212 -0.0354 -0.1256
 1264TIP3    H225208   3.389   5.990   5.666 -2.2456  0.6330 -0.1913
 1265TIP3   OH225209   3.966   2.892  13.990 -0.0039 -0.5581 -0.1914
 1265TIP3    H125210   3.981   2.921  14.079 -2.3454  0.2142  0.0230
 1265TIP3    H225211   4.051   2.900  13.947  1.1669 -0.9485  1.9395
 1266TIP3   OH225212   0.878   0.451   1.900 -0.2618 -0.4351  0.0684
 1266TIP3    H125213   0.836   0.536   1.886 -0.4012  0.0765  2.9305
 1266TIP3    H225214   0.807   0.387   1.896 -0.4969 -0.1608 -0.0696
 1267TIP3   OH225215   6.729   5.497   3.786 -0.2937  0.1145  0.1125
 1267TIP3    H125216   6.788   5.557   3.831 -0.8633  0.5078  0.3459
 1267TIP3    H225217   6.669   5.467   3.854 -0.3162 -0.3443 -0.1053
 1268TIP3   OH225218   4.884   3.501   2.871 -0.0122  0.3930  0.1750
 1268TIP3    H125219   4.858   3.547   2.951 -0.7101  2.0812 -0.9446
 1268TIP3    H225220   4.973   3.533   2.853 -0.2773  0.8823 -0.2964
 1269TIP3   OH225221   0.876   4.274  14.239  0.3338 -0.3681 -1.0086
 1269TIP3    H125222   0.811   4.325  14.287 -0.5896 -0.4101 -2.1626
 1269TIP3    H225223   0.923   4.224  14.306  0.8438  1.5047  0.0979
 1270TIP3   OH225224   5.371   3.986   5.149 -0.0634 -0.3228 -0.0401
 1270TIP3    H125225   5.379   4.043   5.225  0.0077  0.2683 -0.4796
 1270TIP3    H225226   5.339   3.903   5.184  1.0058 -0.4110  0.7808
 1271TIP3   OH225227   5.077   0.091   2.740  0.5281  0.0553 -0.0123
 1271TIP3    H125228   5.150   0.030   2.752  1.1072  0.4300 -1.3857
 1271TIP3    H225229   5.117   0.166   2.695 -0.9092 -0.2110 -1.8252
 1272TIP3   OH225230   5.431   5.817   0.229 -0.2717  0.1592 -0.5152
 1272TIP3    H125231   5.359   5.787   0.175 -0.4742  1.4860 -1.0081
 1272TIP3    H225232   5.483   5.738   0.245 -0.4793 -0.3727 -2.2210
 1273TIP3   OH225233   2.609   4.057  12.856  0.0747  0.1769 -0.1238
 1273TIP3    H125234   2.606   4.153  12.851  1.2982  0.3483  1.5829
 1273TIP3    H225235   2.528   4.033  12.901  0.0968  0.4549  0.0634
 1274TIP3   OH225236   4.810   0.881   2.559  0.2941  0.1824 -0.0327
 1274TIP3    H125237   4.878   0.818   2.535 -0.2129  0.0868 -1.2783
 1274TIP3    H225238   4.741   0.868   2.495  0.3554  2.3007 -0.6183
 1275TIP3   OH225239   0.097   3.002   4.953  0.4596 -0.3241 -0.1260
 1275TIP3    H125240   0.093   2.988   5.048 -0.9335  0.8931  0.0244
 1275TIP3    H225241   0.164   3.069   4.942  0.3724 -0.2106  0.0300
 1276TIP3   OH225242   2.549   6.112  11.505 -0.0664 -0.2499 -0.5858
 1276TIP3    H125243   2.477   6.051  11.492 -0.3975 -0.1865  0.8139
 1276TIP3    H225244   2.519   6.171  11.575  0.7325  0.7383 -1.0538
 1277TIP3   OH225245   0.252   6.233  12.183  0.0504  0.2001  0.3397
 1277TIP3    H125246   0.241   6.183  12.103 -0.1710 -0.8779  1.0240
 1277TIP3    H225247   0.315   6.183  12.235  2.0341  2.0747 -0.0983
 1278TIP3   OH225248   2.781   5.013   2.889  0.4671 -0.2855  0.2555
 1278TIP3    H125249   2.720   4.955   2.844 -0.9420  0.1239  1.5601
 1278TIP3    H225250   2.773   5.096   2.843  0.1932 -0.2884  0.2981
 1279TIP3   OH225251   3.980   6.549  16.001 -0.4507  0.7787 -0.5566
 1279TIP3    H125252   3.990   6.633  15.956 -4.2936  1.2143 -0.9219
 1279TIP3    H225253   4.001   6.567  16.092  0.1572  1.7339 -0.8748
 1280TIP3   OH225254   5.521   5.096  15.465  0.3448  0.3067  0.4873
 1280TIP3    H125255   5.580   5.035  15.509  0.0385  0.8601  1.7207
 1280TIP3    H225256   5.467   5.131  15.535 -0.3874  0.9939 -0.3969
 1281TIP3   OH225257   6.121   6.510  16.190 -0.4511  0.0945 -0.8773
 1281TIP3    H125258   6.128   6.541  16.281 -1.0978 -1.0590 -0.4247
 1281TIP3    H225259   6.029   6.524  16.167 -0.5994 -0.8432 -0.8914
 1282TIP3   OH225260   5.632   1.808  17.090 -0.1014 -0.1088  0.6856
 1282TIP3    H125261   5.661   1.871  17.156 -0.3676  1.8215 -0.9408
 1282TIP3    H225262   5.697   1.814  17.021 -0.7221 -0.8420  0.0208
 1283TIP3   OH225263   4.305   1.811  14.714 -0.3405  0.2696  0.0107
 1283TIP3    H125264   4.302   1.719  14.740  0.0421  0.4357  0.6412
 1283TIP3    H225265   4.229   1.821  14.656  1.1230 -1.1045 -2.2994
 1284TIP3   OH225266   5.723   2.941   2.020 -0.5644 -0.8166 -0.0492
 1284TIP3    H125267   5.719   2.901   2.106 -0.6723 -1.8114 -0.4986
 1284TIP3    H225268   5.636   2.980   2.007 -0.1845  0.3407  0.7370
 1285TIP3   OH225269   1.542   1.499   5.112  0.3387 -0.1914 -1.0210
 1285TIP3    H125270   1.569   1.590   5.122  0.1825 -0.1611 -0.8872
 1285TIP3    H225271   1.453   1.504   5.076 -0.0588 -0.2842 -0.0674
 1286TIP3   OH225272   0.162   4.288   0.779 -0.6455  0.0817  0.1698
 1286TIP3    H125273   0.222   4.249   0.843 -0.7220 -0.1563  0.0982
 1286TIP3    H225274   0.087   4.316   0.830  0.5504  2.6922  0.6798
 1287TIP3   OH225275   0.777   6.584  12.156  0.0383 -0.1413  0.0904
 1287TIP3    H125276   0.740   6.645  12.092 -0.5639 -1.4872 -0.8882
 1287TIP3    H225277   0.831   6.524  12.104  1.4895  0.1649  1.1668
 1288TIP3   OH225278   1.326   1.133  14.620 -0.3824  0.1820 -0.1793
 1288TIP3    H125279   1.250   1.153  14.675 -1.7107 -2.5740 -0.8543
 1288TIP3    H225280   1.331   1.038  14.619  1.3564  0.2100 -2.5018
 1289TIP3   OH225281   3.329   4.378   1.026  0.2684 -0.0854  0.5787
 1289TIP3    H125282   3.273   4.342   1.094 -0.3075 -0.6405 -0.1706
 1289TIP3    H225283   3.392   4.309   1.007  0.4401  0.0746  0.5616
 1290TIP3   OH225284   1.015   2.101   0.988 -0.2958 -0.7552  0.0845
 1290TIP3    H125285   1.010   2.183   1.037 -0.8189 -0.2755 -0.7359
 1290TIP3    H225286   0.986   2.125   0.900  2.3434 -1.1917 -0.9851
 1291TIP3   OH225287   2.048   3.424  11.964  0.1703 -0.5152 -0.3431
 1291TIP3    H125288   1.969   3.476  11.976 -0.7713 -1.3875 -2.3420
 1291TIP3    H225289   2.117   3.489  11.947 -0.2701  0.2142  0.6109
 1292TIP3   OH225290   5.742   3.659   2.973 -0.1566 -0.0278  0.1267
 1292TIP3    H125291   5.732   3.658   3.068  1.1015 -0.9374  0.2739
 1292TIP3    H225292   5.657   3.686   2.940 -0.5184  0.6267  1.5171
 1293TIP3   OH225293   1.202   6.555   2.735 -0.4434 -0.2387 -0.1810
 1293TIP3    H125294   1.188   6.506   2.816 -0.0292 -1.3548 -0.7604
 1293TIP3    H225295   1.279   6.610   2.753  1.0022 -2.0691 -0.4678
 1294TIP3   OH225296   5.221   6.473  12.175  0.2422  0.0220  0.2125
 1294TIP3    H125297   5.254   6.502  12.090 -1.4351  1.9667  0.1397
 1294TIP3    H225298   5.127   6.461  12.163 -0.0518  0.4294  1.7808
 1295TIP3   OH225299   3.007   1.900   3.192  0.2826 -0.0608  0.0477
 1295TIP3    H125300   3.007   1.865   3.103  1.6240 -0.0107  0.0129
 1295TIP3    H225301   3.041   1.828   3.246  0.3442  0.2230  0.3909
 1296TIP3   OH225302   1.302   6.312   4.517 -0.6491  0.7343  0.0837
 1296TIP3    H125303   1.254   6.229   4.519 -1.3451  1.1373  1.2214
 1296TIP3    H225304   1.370   6.303   4.585  0.7586  0.2688 -1.3312
 1297TIP3   OH225305   6.582   3.755  16.493  0.4068  0.5220  0.0025
 1297TIP3    H125306   6.577   3.709  16.409  2.2921  0.0201  0.1130
 1297TIP3    H225307   6.632   3.835  16.473 -0.7081  1.3223  0.3093
 1298TIP3   OH225308   2.186   4.254  16.861  0.3573  0.4522  0.2344
 1298TIP3    H125309   2.252   4.245  16.792 -0.8424  0.3431 -0.9164
 1298TIP3    H225310   2.145   4.168  16.867  0.0988  0.6092  0.7290
 1299TIP3   OH225311   5.042   5.019  13.304  0.1512  0.0709 -0.1464
 1299TIP3    H125312   4.983   5.093  13.291 -0.5480 -0.3975  0.3234
 1299TIP3    H225313   5.020   4.985  13.390 -1.4042 -2.3200 -1.3938
 1300TIP3   OH225314   0.436   2.826   4.882 -0.1531  0.2680  0.1424
 1300TIP3    H125315   0.494   2.873   4.822  0.6899 -0.7997  0.0812
 1300TIP3    H225316   0.461   2.856   4.969  0.1697  0.1701  0.0850
 1301TIP3   OH225317   0.336   0.707  14.677 -0.4263  0.0570 -0.3671
 1301TIP3    H125318   0.316   0.614  14.691  2.2594 -0.3112  2.2071
 1301TIP3    H225319   0.377   0.710  14.591 -2.0748 -0.8192 -1.2151
 1302TIP3   OH225320   5.087   5.247   6.260 -0.3906 -0.0228 -0.0287
 1302TIP3    H125321   5.156   5.249   6.193 -1.2533  0.7627 -0.9127
 1302TIP3    H225322   5.100   5.327   6.310  0.1262 -0.5105  0.6454
 1303TIP3   OH225323   5.949   2.130   0.532  0.1731  0.4013 -0.1818
 1303TIP3    H125324   5.954   2.138   0.627 -0.0201 -0.2607 -0.1094
 1303TIP3    H225325   6.039   2.138   0.502  0.6427 -2.0273  0.3046
 1304TIP3   OH225326   1.499   3.004  11.018 -0.3751  0.5037  0.3306
 1304TIP3    H125327   1.578   2.950  11.024 -0.8242 -0.3164 -0.7845
 1304TIP3    H225328   1.477   3.025  11.109  0.6737  0.0846  0.6920
 1305TIP3   OH225329   1.555   3.893   3.883  0.4923 -0.4666 -0.3143
 1305TIP3    H125330   1.551   3.988   3.878 -0.0422 -0.4963 -0.6014
 1305TIP3    H225331   1.494   3.863   3.815 -0.5377 -0.9991  0.7989
 1306TIP3   OH225332   0.553   5.260   3.275  0.2303 -0.2125  0.8150
 1306TIP3    H125333   0.608   5.209   3.216  0.2395  0.2446  0.4242
 1306TIP3    H225334   0.586   5.239   3.362  0.7728 -0.2441  0.6087
 1307TIP3   OH225335   6.205   6.642  15.887 -0.3752  0.5184 -0.3608
 1307TIP3    H125336   6.266   6.656  15.959 -0.1876  1.8887 -0.7648
 1307TIP3    H225337   6.185   6.548  15.890  1.1300  0.1985  0.2560
 1308TIP3   OH225338   0.966   1.794  10.313  0.0056 -0.5055 -0.1879
 1308TIP3    H125339   1.054   1.798  10.274 -0.7795  0.5842 -1.9664
 1308TIP3    H225340   0.972   1.723  10.377  2.3537 -0.0350  0.2266
 1309TIP3   OH225341   3.828   0.545   0.882 -0.5206 -0.1288  0.0147
 1309TIP3    H125342   3.865   0.501   0.958 -2.2921 -1.0287  0.3957
 1309TIP3    H225343   3.902   0.594   0.845  0.5323 -0.1980  1.8988
 1310TIP3   OH225344   1.418   5.073   1.621 -0.3819 -0.8568 -0.3291
 1310TIP3    H125345   1.425   5.136   1.692 -0.0596 -1.7701  0.4666
 1310TIP3    H225346   1.361   5.004   1.654 -1.2659 -0.6742 -1.4305
 1311TIP3   OH225347   6.321   1.504  12.910 -0.5763 -0.4285 -0.1482
 1311TIP3    H125348   6.385   1.462  12.852  0.0265  0.0658  0.1458
 1311TIP3    H225349   6.252   1.438  12.920  0.0676 -1.1296 -0.1618
 1312TIP3   OH225350   6.376   3.106  15.123 -0.0133 -0.6987  0.3473
 1312TIP3    H125351   6.382   3.010  15.116 -1.7390 -0.7744 -0.7688
 1312TIP3    H225352   6.431   3.138  15.050 -2.0514 -0.9845 -1.4132
 1313TIP3   OH225353   2.373   5.726   2.851 -0.2472 -0.1186 -0.4033
 1313TIP3    H125354   2.465   5.744   2.831  0.2053 -1.6067  0.2348
 1313TIP3    H225355   2.332   5.812   2.854  1.2003  0.5919 -0.3426
 1314TIP3   OH225356   0.587   3.899   1.653 -0.0723  0.1326  0.0198
 1314TIP3    H125357   0.592   3.903   1.748  2.2733  0.3090 -0.0582
 1314TIP3    H225358   0.605   3.989   1.624  0.0718 -0.0873 -0.5940
 1315TIP3   OH225359   2.256   5.094   2.943  0.2301  0.3065 -0.1532
 1315TIP3    H125360   2.270   5.005   2.976 -0.6381 -0.0219 -0.6282
 1315TIP3    H225361   2.162   5.109   2.953 -0.0843  0.2127 -2.3469
 1316TIP3   OH225362   2.937   4.992   6.505  0.3175 -0.7313 -0.2096
 1316TIP3    H125363   2.883   4.915   6.485 -0.6560 -0.9579  2.6825
 1316TIP3    H225364   3.004   4.959   6.565 -1.0371  0.7925  2.3347
 1317TIP3   OH225365   6.109   0.173  14.101 -0.5021 -0.2270  0.9244
 1317TIP3    H125366   6.125   0.115  14.027 -1.4022  0.6445  0.0208
 1317TIP3    H225367   6.033   0.135  14.145  0.2425 -0.9364  1.6141
 1318TIP3   OH225368   3.117   2.108   0.967  0.2530  0.2193 -0.2725
 1318TIP3    H125369   3.047   2.079   1.025 -0.0268  0.4936 -0.4667
 1318TIP3    H225370   3.193   2.118   1.024 -0.0763  0.6989  0.0934
 1319TIP3   OH225371   6.544   6.036   4.403 -0.1777  0.9017 -0.1250
 1319TIP3    H125372   6.562   5.983   4.480  1.4794  0.0762 -1.0206
 1319TIP3    H225373   6.453   6.018   4.382 -0.2571  0.0771  0.8625
 1320TIP3   OH225374   2.876   0.850   4.556  0.3828 -0.0588 -0.0402
 1320TIP3    H125375   2.917   0.812   4.478 -0.5790 -0.9555 -0.1267
 1320TIP3    H225376   2.812   0.912   4.522  0.4867  0.1022  0.0569
 1321TIP3   OH225377   5.342   5.685  10.739  0.6344 -0.6272 -0.1708
 1321TIP3    H125378   5.358   5.720  10.652 -0.8511 -0.2921 -0.3392
 1321TIP3    H225379   5.319   5.593  10.725 -1.0891 -0.2111 -0.3254
 1322TIP3   OH225380   0.218   5.462   5.816  0.1340  0.5880  0.0330
 1322TIP3    H125381   0.269   5.442   5.894  1.5420  1.7466 -0.5391
 1322TIP3    H225382   0.239   5.392   5.754  0.2311  0.5128  0.1531
 1323TIP3   OH225383   0.894   5.265  17.083 -1.0581 -0.2589 -0.3739
 1323TIP3    H125384   0.891   5.291  17.175  1.9748 -0.6241 -0.0533
 1323TIP3    H225385   0.895   5.347  17.034 -1.3289 -0.0354 -0.0014
 1324TIP3   OH225386   1.374   5.389   5.346 -0.7094 -0.1029  0.1889
 1324TIP3    H125387   1.330   5.471   5.324 -1.7098 -1.3037 -2.7568
 1324TIP3    H225388   1.314   5.346   5.407 -0.5191  0.9815  1.1905
 1325TIP3   OH225389   1.181   1.296   1.255 -0.2101 -0.2512 -0.2575
 1325TIP3    H125390   1.154   1.226   1.196  0.3873 -0.2123 -0.5860
 1325TIP3    H225391   1.111   1.362   1.247  0.7449  0.5803 -2.3513
 1326TIP3   OH225392   2.183   5.809   0.955  0.7022 -0.5224  0.0260
 1326TIP3    H125393   2.200   5.716   0.965  0.6337 -0.4589  0.8715
 1326TIP3    H225394   2.210   5.830   0.866  1.9638 -1.0824  0.2654
 1327TIP3   OH225395   6.358   2.920  14.475 -0.4051  0.7909 -0.2118
 1327TIP3    H125396   6.305   2.846  14.504 -0.3617  0.8053 -0.0974
 1327TIP3    H225397   6.309   2.957  14.401  0.0283  0.0830 -0.8766
 1328TIP3   OH225398   4.487   1.950  16.503  0.3532  0.6267 -0.0966
 1328TIP3    H125399   4.466   1.998  16.422  1.6406  1.7484  0.1954
 1328TIP3    H225400   4.536   2.013  16.556  2.3236 -1.0700  0.2305
 1329TIP3   OH225401   1.340   3.919   4.634  0.5187 -0.4415 -0.1061
 1329TIP3    H125402   1.306   3.973   4.704 -1.1899 -0.5433 -0.8188
 1329TIP3    H225403   1.412   3.970   4.597 -0.2044  0.7600  0.0862
 1330TIP3   OH225404   1.493   6.100  15.240 -0.1855 -0.5945 -0.0819
 1330TIP3    H125405   1.504   6.019  15.191 -1.8516 -0.8555 -0.0980
 1330TIP3    H225406   1.399   6.120  15.231  0.1658  1.2369  0.0694
 1331TIP3   OH225407   3.746   0.053  14.104  0.3870 -0.1588 -0.2588
 1331TIP3    H125408   3.716   0.136  14.142  2.5746 -0.0365  1.4129
 1331TIP3    H225409   3.693  -0.014  14.148  1.0237  0.1712  1.0638
 1332TIP3   OH225410   3.112   0.888   4.719  0.2615 -0.1142 -0.4184
 1332TIP3    H125411   3.039   0.876   4.659 -0.2285 -1.4048  0.3871
 1332TIP3    H225412   3.146   0.800   4.733  0.2018  0.1165  1.3815
 1333TIP3   OH225413   4.810   2.477   4.849 -0.0165  0.1792  0.1912
 1333TIP3    H125414   4.751   2.444   4.916  0.2674  0.1255  0.4192
 1333TIP3    H225415   4.875   2.528   4.897  0.7358 -0.6452  0.0752
 1334TIP3   OH225416   4.612   6.751  16.415  0.1281  0.5503  0.5424
 1334TIP3    H125417   4.688   6.709  16.455  2.4428  1.9455 -2.0353
 1334TIP3    H225418   4.583   6.815  16.480  0.2635 -0.9013  2.1050
 1335TIP3   OH225419   2.270   6.421  17.013  0.4557 -0.3367 -0.5440
 1335TIP3    H125420   2.356   6.389  17.040  0.2657 -0.2340  0.2044
 1335TIP3    H225421   2.266   6.511  17.046  0.4351 -0.0054 -1.4136
 1336TIP3   OH225422   4.402   1.302   2.270 -0.4117 -0.1412  0.5000
 1336TIP3    H125423   4.377   1.233   2.332  0.5065 -1.4732 -0.5562
 1336TIP3    H225424   4.497   1.296   2.265  0.0847  3.2483  2.6383
 1337TIP3   OH225425   3.953   3.334  10.622 -0.1441 -0.6801  0.0701
 1337TIP3    H125426   4.047   3.320  10.613  0.3818  1.9821  0.5489
 1337TIP3    H225427   3.945   3.397  10.693 -2.2840 -0.6500 -0.1460
 1338TIP3   OH225428   4.828   5.314   4.299 -0.1531 -0.4742  0.3775
 1338TIP3    H125429   4.787   5.345   4.219 -0.7946 -0.5641  0.6646
 1338TIP3    H225430   4.897   5.254   4.270  1.0536  1.1253 -0.1931
 1339TIP3   OH225431   5.645   2.319   2.412 -0.1081  0.0033 -0.5557
 1339TIP3    H125432   5.573   2.304   2.350 -2.5001 -0.2387  2.0842
 1339TIP3    H225433   5.661   2.234   2.451  0.6477  0.3465 -0.1033
 1340TIP3   OH225434   2.328   0.878  13.632  0.2795 -0.0113  0.1594
 1340TIP3    H125435   2.249   0.826  13.648 -1.5170  2.0915 -1.1376
 1340TIP3    H225436   2.376   0.876  13.714 -1.2573 -1.1748  1.0852
 1341TIP3   OH225437   3.039   0.541   1.102  0.1941  0.2279 -0.6404
 1341TIP3    H125438   3.033   0.446   1.090 -0.2911  0.0492  0.7859
 1341TIP3    H225439   3.105   0.553   1.170  0.0147  0.8929 -0.5715
 1342TIP3   OH225440   0.740   2.259   4.649 -0.3575 -0.0668 -0.1051
 1342TIP3    H125441   0.798   2.301   4.585  0.7279 -2.2771 -0.6756
 1342TIP3    H225442   0.657   2.247   4.602 -0.0591 -0.2603 -0.5998
 1343TIP3   OH225443   4.249   2.033  16.664  0.1011  0.0299 -0.1801
 1343TIP3    H125444   4.268   2.032  16.758  1.3877  1.1744 -0.4035
 1343TIP3    H225445   4.326   1.994  16.623 -0.2053  0.0631 -0.7995
 1344TIP3   OH225446   2.277   3.769  11.214  0.1310  0.1176  0.0793
 1344TIP3    H125447   2.293   3.817  11.133 -0.2262 -0.0362 -0.0817
 1344TIP3    H225448   2.212   3.703  11.191 -1.3224  1.2062  0.8848
 1345TIP3   OH225449   4.653   5.698  14.248  0.0320 -0.2461 -0.0371
 1345TIP3    H125450   4.645   5.757  14.172 -0.2321 -0.9424 -0.5558
 1345TIP3    H225451   4.568   5.655  14.254  0.0285 -0.1331  0.7128
 1346TIP3   OH225452   4.708   5.033   4.853 -0.6324  0.0215  0.0735
 1346TIP3    H125453   4.778   5.013   4.915 -1.3730 -1.9550  0.3362
 1346TIP3    H225454   4.634   4.980   4.882 -2.3055  2.0757 -0.1536
 1347TIP3   OH225455   0.339   2.113  15.547  0.2414  0.2477 -0.1309
 1347TIP3    H125456   0.278   2.081  15.481 -0.1871  1.8085 -0.5385
 1347TIP3    H225457   0.376   2.193  15.509  1.2805  0.2458  0.8101
 1348TIP3   OH225458   4.400   3.895  13.641 -0.1501  0.3368  0.1200
 1348TIP3    H125459   4.408   3.807  13.602  0.6411 -0.0035  1.0133
 1348TIP3    H225460   4.317   3.929  13.607  0.9443  0.4788 -2.7145
 1349TIP3   OH225461   6.249   3.176   1.403 -0.3954 -0.1048 -0.4068
 1349TIP3    H125462   6.219   3.091   1.372 -0.7642  0.5611 -1.9847
 1349TIP3    H225463   6.256   3.229   1.323 -1.7875  1.8388  0.6869
 1350TIP3   OH225464   6.097   1.396  13.887  0.0848 -0.3228  0.1770
 1350TIP3    H125465   6.172   1.426  13.938 -1.4270  1.3173  1.5756
 1350TIP3    H225466   6.106   1.441  13.803 -0.6090  1.9134  1.2349
 1351TIP3   OH225467   6.118   0.441  12.652 -0.3422 -0.1774  0.0676
 1351TIP3    H125468   6.214   0.433  12.645 -0.3215  0.2402 -0.1572
 1351TIP3    H225469   6.091   0.361  12.698  0.0770 -0.4723 -0.1834
 1352TIP3   OH225470   0.218   3.223  15.691 -0.2375  0.4919  0.4515
 1352TIP3    H125471   0.124   3.231  15.708 -0.5725 -1.7879 -0.0588
 1352TIP3    H225472   0.258   3.215  15.777 -0.9125 -1.7419  0.6181
 1353TIP3   OH225473   6.417   3.519  12.529  0.0899  0.7952  0.0941
 1353TIP3    H125474   6.398   3.438  12.577  1.3342  0.7022  0.4743
 1353TIP3    H225475   6.505   3.543  12.557  0.5061  1.2352 -1.4700
 1354TIP3   OH225476   2.969   3.739  14.232 -0.6152 -0.0861 -0.1113
 1354TIP3    H125477   2.929   3.698  14.155  0.5620 -0.6933 -0.4281
 1354TIP3    H225478   3.002   3.665  14.284  0.1881  0.3917  0.0785
 1355TIP3   OH225479   3.470   4.673   3.159 -0.1648 -0.0531 -0.2911
 1355TIP3    H125480   3.396   4.645   3.214  0.8791 -0.5861  0.8799
 1355TIP3    H225481   3.466   4.768   3.161 -0.9541 -0.0678 -0.4531
 1356TIP3   OH225482   1.129   6.457  11.663 -0.1414  0.0903  0.5767
 1356TIP3    H125483   1.059   6.521  11.676 -0.6855 -0.4410  0.3334
 1356TIP3    H225484   1.087   6.387  11.612  0.1508 -0.9561  1.7242
 1357TIP3   OH225485   4.464   3.873   3.830 -0.0659 -0.2101  0.0296
 1357TIP3    H125486   4.507   3.853   3.747 -0.8937  0.4217 -0.5689
 1357TIP3    H225487   4.509   3.817   3.894  2.6914  1.4755 -0.2420
 1358TIP3   OH225488   2.485   2.440   3.444 -0.3426  0.0148 -0.3002
 1358TIP3    H125489   2.440   2.366   3.403  0.3322 -1.2144  1.0807
 1358TIP3    H225490   2.421   2.477   3.505 -0.9266  1.0725 -1.5035
 1359TIP3   OH225491   4.052   3.894   1.074 -0.2771  0.5352  0.5552
 1359TIP3    H125492   4.120   3.829   1.054 -0.0237  0.8347  0.4231
 1359TIP3    H225493   4.029   3.877   1.165 -0.6601 -0.1394  0.3448
 1360TIP3   OH225494   1.574   6.379   0.125 -0.2343  0.6231  0.0313
 1360TIP3    H125495   1.557   6.394   0.218 -1.0363  0.8461 -0.1406
 1360TIP3    H225496   1.659   6.421   0.109  0.2117  0.0283  0.7910
 1361TIP3   OH225497   6.605   0.362  13.259 -0.5008  0.7439 -0.1670
 1361TIP3    H125498   6.531   0.421  13.271  0.6303  2.4110 -1.0513
 1361TIP3    H225499   6.594   0.326  13.171 -1.5167 -0.9036  0.5928
 1362TIP3   OH225500   4.283   0.664  11.547 -0.5298 -0.5052  0.4011
 1362TIP3    H125501   4.221   0.591  11.539  0.4685 -1.4073  0.7312
 1362TIP3    H225502   4.364   0.631  11.508  0.4229 -0.1825  2.0144
 1363TIP3   OH225503   6.270   3.427   3.132 -0.3489 -0.3701 -0.5653
 1363TIP3    H125504   6.235   3.447   3.045 -1.2327 -0.5624 -0.2666
 1363TIP3    H225505   6.217   3.353   3.162  1.1306 -1.4631 -0.5833
 1364TIP3   OH225506   2.516   4.539   3.121 -0.2331  0.4631  0.7321
 1364TIP3    H125507   2.470   4.609   3.075 -0.9723 -1.0850 -1.0320
 1364TIP3    H225508   2.447   4.490   3.165  0.2769  0.8357  1.9803
 1365TIP3   OH225509   1.334   4.782   5.108 -0.0428 -0.4130 -0.8461
 1365TIP3    H125510   1.394   4.708   5.115 -1.2753 -1.3498  0.3563
 1365TIP3    H225511   1.390   4.860   5.115  0.9065 -1.2407  2.1848
 1366TIP3   OH225512   2.105   5.307  12.068  0.1253 -0.1870 -0.0897
 1366TIP3    H125513   2.131   5.304  12.160 -0.7420 -0.8939  0.1444
 1366TIP3    H225514   2.034   5.243  12.061  0.5075 -0.4946 -1.3623
 1367TIP3   OH225515   4.146   0.259  14.367  0.0067 -0.0608 -0.5156
 1367TIP3    H125516   4.191   0.206  14.433 -0.4715  0.2554  0.0665
 1367TIP3    H225517   4.162   0.350  14.394 -0.7843  0.0584 -0.4439
 1368TIP3   OH225518   0.091   0.574   0.425  0.0937  0.1385 -0.5408
 1368TIP3    H125519   0.025   0.544   0.487 -1.3352  0.3625 -1.8951
 1368TIP3    H225520   0.107   0.498   0.369  1.0564  0.0644 -0.1818
 1369TIP3   OH225521   1.558   5.956  14.992 -0.0281 -0.0946  0.5859
 1369TIP3    H125522   1.478   5.902  14.997 -0.6567  0.2739 -2.6484
 1369TIP3    H225523   1.628   5.893  14.976 -0.5093 -0.1711 -1.5148
 1370TIP3   OH225524   0.179   1.387  12.693 -0.0287  0.0395  0.5489
 1370TIP3    H125525   0.191   1.476  12.724  0.6730  0.4302 -0.7476
 1370TIP3    H225526   0.085   1.375  12.686 -0.1364  0.4944  1.2362
 1371TIP3   OH225527   2.066   0.863  16.283  0.4161 -0.4032  0.0260
 1371TIP3    H125528   2.151   0.878  16.325 -0.4071 -1.2043  2.1210
 1371TIP3    H225529   2.002   0.904  16.343 -0.6314  1.6605 -2.3130
 1372TIP3   OH225530   2.743   0.935   3.364 -0.1057  0.2760 -0.8788
 1372TIP3    H125531   2.746   0.941   3.268 -2.1220 -1.9670 -1.1649
 1372TIP3    H225532   2.808   0.868   3.386 -2.1878 -1.9559 -1.1235
 1373TIP3   OH225533   4.573   0.715   0.810 -0.3918  0.1281 -0.3384
 1373TIP3    H125534   4.667   0.734   0.813 -0.1356 -0.8508 -1.3839
 1373TIP3    H225535   4.531   0.798   0.834  0.7071  1.5109 -2.8141
 1374TIP3   OH225536   2.309   1.541   1.484 -0.1528 -0.1490 -0.2996
 1374TIP3    H125537   2.353   1.490   1.551 -0.7245 -0.4005 -0.1142
 1374TIP3    H225538   2.286   1.477   1.416  0.9236  0.1883 -1.0114
 1375TIP3   OH225539   4.225   2.680  14.608 -0.0818 -0.2026 -0.6292
 1375TIP3    H125540   4.183   2.607  14.654  1.2063 -0.1595  0.7175
 1375TIP3    H225541   4.206   2.665  14.516 -2.0133 -0.8052 -0.1915
 1376TIP3   OH225542   3.965   5.365  17.156 -0.0820  0.9838  0.7159
 1376TIP3    H125543   4.018   5.389  17.232 -0.4153 -0.0789  1.3190
 1376TIP3    H225544   3.998   5.278  17.131 -1.9003  0.0036  1.5069
 1377TIP3   OH225545   2.793   1.701   4.194  0.1388  0.5844 -0.6787
 1377TIP3    H125546   2.744   1.712   4.113  0.4206  1.5403 -0.7349
 1377TIP3    H225547   2.851   1.777   4.197  1.7104 -0.5638 -0.6757
 1378TIP3   OH225548   4.343   4.087  10.824 -0.4195 -0.3354  0.3301
 1378TIP3    H125549   4.290   4.141  10.765 -0.7652 -0.4222  0.5624
 1378TIP3    H225550   4.294   4.085  10.906  0.4613  0.4951  0.9072
 1379TIP3   OH225551   0.108   0.814  15.479  0.3288  0.7360 -0.0702
 1379TIP3    H125552   0.052   0.760  15.534 -0.4817  1.2545 -0.3611
 1379TIP3    H225553   0.098   0.903  15.514  0.5398  0.9182 -0.4626
 1380TIP3   OH225554   3.115   0.788   0.666 -0.4544 -0.0877 -0.1053
 1380TIP3    H125555   3.156   0.707   0.698  0.8379  1.1300  1.4949
 1380TIP3    H225556   3.033   0.794   0.715  0.2910  0.4403  1.1231
 1381TIP3   OH225557   3.732   0.469   2.194 -0.6848  0.1685 -0.0697
 1381TIP3    H125558   3.684   0.444   2.273  1.2030  0.3490  1.2074
 1381TIP3    H225559   3.816   0.422   2.201  0.1712  1.4473 -1.1325
 1382TIP3   OH225560   3.754   3.719   4.732  0.0709  0.0611 -0.2659
 1382TIP3    H125561   3.778   3.699   4.642 -1.7058 -0.8864 -0.5937
 1382TIP3    H225562   3.804   3.657   4.785  3.1447  2.3357 -0.2974
 1383TIP3   OH225563   2.536   0.470   5.278  0.3595  0.0269  0.3011
 1383TIP3    H125564   2.558   0.470   5.372 -0.0984 -0.3100  0.4116
 1383TIP3    H225565   2.619   0.453   5.234  0.6886  0.7420  0.6139
 1384TIP3   OH225566   4.642   5.273   0.598 -0.1274 -0.3642 -0.0499
 1384TIP3    H125567   4.737   5.259   0.599 -0.1142 -0.3051  1.2683
 1384TIP3    H225568   4.632   5.368   0.590 -0.1155 -0.4460 -1.3189
 1385TIP3   OH225569   0.934   1.222  11.373 -0.6205 -0.4966 -0.0518
 1385TIP3    H125570   0.944   1.147  11.315 -1.2156 -1.8059  1.4997
 1385TIP3    H225571   0.845   1.216  11.407 -0.4609  0.5325  0.6179
 1386TIP3   OH225572   2.927   4.569  14.627  0.3620 -0.8229  0.8738
 1386TIP3    H125573   2.931   4.481  14.589 -1.9781 -1.3970  1.7936
 1386TIP3    H225574   2.953   4.557  14.718  0.9803 -0.3757  0.7591
 1387TIP3   OH225575   3.586   5.470   5.450 -0.1600 -0.0290  0.2666
 1387TIP3    H125576   3.627   5.477   5.364 -2.4910  0.2858 -0.8841
 1387TIP3    H225577   3.556   5.379   5.455 -2.5606  0.6483 -0.5470
 1388TIP3   OH225578   2.468   0.440  12.379 -0.3965  0.0020 -0.4471
 1388TIP3    H125579   2.547   0.471  12.335  0.7631 -2.1404  0.0181
 1388TIP3    H225580   2.492   0.437  12.472 -0.3934 -2.2983 -0.4832
 1389TIP3   OH225581   3.652   6.326  15.670  0.1841 -0.5779 -0.3771
 1389TIP3    H125582   3.655   6.419  15.646 -0.4238 -0.5657 -0.4323
 1389TIP3    H225583   3.701   6.321  15.753 -0.3335 -0.0925 -0.0323
 1390TIP3   OH225584   5.674   5.149  13.342 -0.1092 -0.0436 -0.1845
 1390TIP3    H125585   5.673   5.144  13.246 -0.8503  0.1057 -0.1888
 1390TIP3    H225586   5.712   5.066  13.370  1.0201  0.2957 -0.6229
 1391TIP3   OH225587   0.669   4.844  16.413 -0.3622 -0.1956 -0.2673
 1391TIP3    H125588   0.659   4.933  16.377 -2.2841  0.9223  2.6570
 1391TIP3    H225589   0.582   4.819  16.441  0.5045 -2.1697  0.8875
 1392TIP3   OH225590   0.030   3.950   4.062  0.4944 -0.0218 -0.0180
 1392TIP3    H125591   0.060   4.031   4.021 -1.9806 -0.9485 -4.2769
 1392TIP3    H225592  -0.031   3.979   4.130  1.2760  1.6862  0.0066
 1393TIP3   OH225593   6.044   5.988   2.184 -0.1123  0.2118 -0.3611
 1393TIP3    H125594   6.022   5.927   2.254  1.8196  1.0552  1.0787
 1393TIP3    H225595   6.038   5.936   2.104  3.2438 -2.5391  0.9324
 1394TIP3   OH225596   3.233   3.703   4.601 -0.4858  0.2018  0.2269
 1394TIP3    H125597   3.313   3.659   4.632 -1.3542 -0.3675  1.7727
 1394TIP3    H225598   3.252   3.797   4.611  0.1438  0.0919  0.1339
 1395TIP3   OH225599   3.774   4.036   5.593 -0.9994  1.0260  0.2335
 1395TIP3    H125600   3.743   4.005   5.678  0.8283 -0.1779  0.5083
 1395TIP3    H225601   3.829   3.966   5.560  0.3973  2.5313 -0.7839
 1396TIP3   OH225602   3.479   2.790  14.848  0.8366  0.3619  0.2006
 1396TIP3    H125603   3.406   2.751  14.896  1.1133  0.3797  0.6435
 1396TIP3    H225604   3.440   2.825  14.768  0.8474 -2.4683 -1.1750
 1397TIP3   OH225605   5.917   3.332   3.143  0.5535 -0.5677  0.2035
 1397TIP3    H125606   5.852   3.338   3.213  0.4297 -1.2554  0.1533
 1397TIP3    H225607   5.951   3.421   3.135  1.5762 -0.7290  2.1059
 1398TIP3   OH225608   4.938   4.099  14.471 -0.0739  0.5344  0.4281
 1398TIP3    H125609   5.027   4.128  14.492 -0.2222  0.6368  0.9119
 1398TIP3    H225610   4.924   4.129  14.381 -0.1985  1.9339  0.8830
 1399TIP3   OH225611   3.238   5.572   4.804  0.0467 -0.1670 -0.2966
 1399TIP3    H125612   3.210   5.542   4.718 -0.6611 -0.1948 -0.0629
 1399TIP3    H225613   3.305   5.638   4.787  0.1680 -0.4351 -0.8580
 1400TIP3   OH225614   1.036   2.255   3.778  0.4625  0.1857  0.0634
 1400TIP3    H125615   1.117   2.288   3.815 -0.4233  1.2505  1.1431
 1400TIP3    H225616   0.985   2.334   3.756  0.1467 -0.4350 -1.6271
 1401TIP3   OH225617   0.054   5.455  13.858  0.6789  0.4948 -0.5377
 1401TIP3    H125618  -0.018   5.494  13.810  0.8969  0.4716 -0.8894
 1401TIP3    H225619   0.123   5.442  13.792  0.8672  0.1751 -0.2844
 1402TIP3   OH225620   5.615   6.269  15.737  0.9902 -0.6674  0.1607
 1402TIP3    H125621   5.649   6.203  15.798  0.8895 -0.3073  0.6087
 1402TIP3    H225622   5.524   6.243  15.722  1.0046 -0.7363  0.1910
 1403TIP3   OH225623   2.244   3.243   2.476 -0.2146 -0.6131  0.4553
 1403TIP3    H125624   2.303   3.315   2.498  1.0036 -0.9916 -1.3509
 1403TIP3    H225625   2.239   3.191   2.557  0.2490  0.5641  1.2617
 1404TIP3   OH225626   2.173   3.452  10.627  0.3183  0.2027 -0.6606
 1404TIP3    H125627   2.256   3.484  10.660  0.3840 -2.1952  1.9126
 1404TIP3    H225628   2.191   3.361  10.602 -1.2382  0.0165 -1.1955
 1405TIP3   OH225629   5.321   5.744   5.177  0.2144  0.0692 -0.4645
 1405TIP3    H125630   5.245   5.717   5.125  0.2127 -0.0749 -0.3871
 1405TIP3    H225631   5.288   5.755   5.266  0.3980 -0.5483 -0.3136
 1406TIP3   OH225632   6.565   1.737  13.027  0.0057 -0.7395  0.4508
 1406TIP3    H125633   6.612   1.804  12.977 -0.2686 -1.0030 -0.1735
 1406TIP3    H225634   6.473   1.762  13.020  0.0130 -0.4409  1.3460
 1407TIP3   OH225635   5.092   0.264   1.044 -0.1425  0.0967 -0.5455
 1407TIP3    H125636   5.010   0.220   1.065  0.0174  0.4640  0.9312
 1407TIP3    H225637   5.066   0.349   1.010 -0.3802  0.3260  0.1914
 1408TIP3   OH225638   1.236   5.236  12.470  0.5496 -0.2156  0.2002
 1408TIP3    H125639   1.304   5.215  12.534 -0.6197 -1.5430  1.0723
 1408TIP3    H225640   1.187   5.154  12.460 -1.7470  1.0412  0.6441
 1409TIP3   OH225641   3.127   5.153  16.808  0.0541  0.3859 -0.3144
 1409TIP3    H125642   3.169   5.228  16.850 -1.4701  0.9173  0.3400
 1409TIP3    H225643   3.123   5.087  16.876 -0.6501  0.5465 -0.1876
 1410TIP3   OH225644   4.174   3.218  16.860 -0.0101  0.1128  0.5345
 1410TIP3    H125645   4.165   3.262  16.775  0.4778 -0.4399  0.1876
 1410TIP3    H225646   4.223   3.280  16.914  0.3076  0.1754  0.1800
 1411TIP3   OH225647   3.036   4.511   5.696 -0.0882  0.2085  0.1968
 1411TIP3    H125648   3.006   4.572   5.629  0.7812  1.1939  0.6888
 1411TIP3    H225649   3.131   4.511   5.689 -0.0718 -3.0635 -1.5016
 1412TIP3   OH225650   2.366   1.048  11.053  0.0418 -0.6469  0.0570
 1412TIP3    H125651   2.274   1.060  11.030 -0.1003 -0.7729  0.5580
 1412TIP3    H225652   2.369   0.964  11.099  0.5453 -1.0547 -0.6937
 1413TIP3   OH225653   2.468   0.983  15.135  0.3769 -0.2264  0.1432
 1413TIP3    H125654   2.429   1.004  15.050 -0.7479 -1.7411  0.2412
 1413TIP3    H225655   2.561   1.003  15.125  0.1167  0.4563 -1.1434
 1414TIP3   OH225656   5.520   0.916  16.515 -1.1385  0.1630 -0.2315
 1414TIP3    H125657   5.513   0.845  16.579 -0.9015 -0.7100 -1.1338
 1414TIP3    H225658   5.530   0.871  16.431  2.3749  1.2017 -0.5283
 1415TIP3   OH225659   4.266   5.285   4.551 -0.8962 -0.0630  0.4106
 1415TIP3    H125660   4.356   5.316   4.547 -1.0567  0.6306  1.6599
 1415TIP3    H225661   4.267   5.202   4.504  0.2727  0.2083 -0.0671
 1416TIP3   OH225662   2.382   1.989   4.257 -0.0318 -0.3061  0.4161
 1416TIP3    H125663   2.474   1.990   4.284  0.4791 -1.1875 -1.1271
 1416TIP3    H225664   2.380   2.043   4.178 -1.0738  0.6247  1.0650
 1417TIP3   OH225665   0.180   6.189  16.036 -0.2801  0.0620  0.5603
 1417TIP3    H125666   0.227   6.159  15.958  0.7262  0.5551  0.9586
 1417TIP3    H225667   0.094   6.149  16.028 -0.1622 -0.0012 -0.7443
 1418TIP3   OH225668   0.696   2.312  16.149  0.3669  0.3059  0.8224
 1418TIP3    H125669   0.675   2.247  16.082  2.3048  1.1741 -0.7399
 1418TIP3    H225670   0.613   2.356  16.168 -0.4635 -0.8492 -0.0428
 1419TIP3   OH225671   6.566   0.909   6.643 -0.0935  0.6449 -0.9036
 1419TIP3    H125672   6.634   0.977   6.641 -1.8682  2.4968 -1.2049
 1419TIP3    H225673   6.568   0.871   6.555  0.8805  0.3188 -0.7509
 1420TIP3   OH225674   4.131   2.005   4.330 -0.4726  0.2085 -0.3647
 1420TIP3    H125675   4.077   2.081   4.351 -2.4864 -1.0543 -0.7016
 1420TIP3    H225676   4.167   2.024   4.243 -0.8072  0.8476 -0.3667
 1421TIP3   OH225677   4.839   2.571   2.598 -0.1793  0.2348  0.0072
 1421TIP3    H125678   4.874   2.596   2.683 -0.2929 -0.2918  0.2132
 1421TIP3    H225679   4.905   2.601   2.535 -1.1860  2.8207  0.0568
 1422TIP3   OH225680   2.236   2.402  17.135 -0.4637 -0.1340  0.4071
 1422TIP3    H125681   2.240   2.492  17.104 -0.4299  0.7133  2.7118
 1422TIP3    H225682   2.146   2.374  17.118 -0.3422  0.1155 -0.7711
 1423TIP3   OH225683   3.983   6.606  16.848  0.1029  0.0893 -0.3787
 1423TIP3    H125684   3.943   6.520  16.861  1.7360 -0.5539  0.8698
 1423TIP3    H225685   3.916   6.658  16.805 -0.5003 -2.1962 -2.4477
 1424TIP3   OH225686   6.175   2.614   6.046  0.4594  0.3485  0.1163
 1424TIP3    H125687   6.104   2.637   6.106 -0.9410 -1.7235 -0.6107
 1424TIP3    H225688   6.255   2.633   6.095 -0.6155 -0.1364  2.1893
 1425TIP3   OH225689   2.955   4.214   1.026 -0.2470 -0.0764  0.4937
 1425TIP3    H125690   2.921   4.130   0.995  0.8691 -0.8544  1.3156
 1425TIP3    H225691   2.908   4.279   0.974  0.9293 -1.2720 -2.2284
 1426TIP3   OH225692   5.245   0.943   0.506 -0.2094  0.1096  0.2357
 1426TIP3    H125693   5.242   0.866   0.450 -0.6947 -1.9940  2.9527
 1426TIP3    H225694   5.337   0.950   0.532  0.0371  1.1497 -0.7881
 1427TIP3   OH225695   5.948   0.963  15.883 -0.0450 -0.2192 -0.3422
 1427TIP3    H125696   6.023   0.935  15.830 -0.6079 -0.0928 -1.2200
 1427TIP3    H225697   5.880   0.898  15.864 -0.3910  0.0700 -0.1008
 1428TIP3   OH225698   3.241   3.299   2.713  0.0087  0.0227 -0.1591
 1428TIP3    H125699   3.273   3.320   2.801 -2.6770 -2.4194  1.6302
 1428TIP3    H225700   3.285   3.217   2.691 -0.7383 -0.3746 -0.1998
 1429TIP3   OH225701   6.288   3.409   3.775  0.3671 -0.2722 -0.3312
 1429TIP3    H125702   6.208   3.356   3.766  0.6567 -0.8137  0.2212
 1429TIP3    H225703   6.297   3.453   3.690 -0.4063 -0.3625 -0.4663
 1430TIP3   OH225704   3.128   1.611  15.451 -0.5636  0.2158 -0.6479
 1430TIP3    H125705   3.143   1.677  15.519  1.7824 -0.0924 -0.7688
 1430TIP3    H225706   3.153   1.655  15.369 -0.7370 -0.2577 -0.9580
 1431TIP3   OH225707   0.515   4.452   6.247  0.1522 -0.1102  0.5764
 1431TIP3    H125708   0.507   4.477   6.155  2.1463 -0.9025  0.1297
 1431TIP3    H225709   0.442   4.497   6.291 -2.1835 -1.4431 -1.6858
 1432TIP3   OH225710   4.807   1.381  12.239  0.2559  0.2299  0.0556
 1432TIP3    H125711   4.724   1.333  12.230 -0.1756 -0.0622  3.9871
 1432TIP3    H225712   4.866   1.336  12.179 -1.9871 -0.5493 -1.7307
 1433TIP3   OH225713   2.239   4.769   3.214  0.0134  0.3052 -0.6282
 1433TIP3    H125714   2.210   4.791   3.303  1.4745  0.7076 -0.2166
 1433TIP3    H225715   2.160   4.739   3.170 -0.7068 -0.1463  0.8831
 1434TIP3   OH225716   2.792   5.787   4.790 -0.7057 -0.0279  0.6504
 1434TIP3    H125717   2.761   5.698   4.808 -1.3616 -0.1152 -0.7553
 1434TIP3    H225718   2.773   5.836   4.870 -0.3987 -1.1277  1.4185
 1435TIP3   OH225719   4.521   5.127   6.022  0.1136 -0.5988 -0.3123
 1435TIP3    H125720   4.459   5.168   6.082 -0.0605  0.3374 -1.0949
 1435TIP3    H225721   4.489   5.150   5.935  0.7152 -1.3842 -0.7577
 1436TIP3   OH225722   3.045   0.188  11.041 -0.3667  0.0852  0.1901
 1436TIP3    H125723   2.997   0.271  11.034 -0.1889  0.1075 -0.8570
 1436TIP3    H225724   3.023   0.141  10.961 -0.0533 -0.6652  0.5406
 1437TIP3   OH225725   2.737   5.203   2.676  0.2062  0.0791 -0.4215
 1437TIP3    H125726   2.645   5.231   2.674  0.5357  1.4141  1.3256
 1437TIP3    H225727   2.768   5.218   2.586 -1.1479  0.0024 -0.9349
 1438TIP3   OH225728   5.374   0.254  13.033  0.5599 -0.1918  0.2925
 1438TIP3    H125729   5.380   0.198  12.956 -0.2695  0.2397 -0.1022
 1438TIP3    H225730   5.282   0.280  13.036  0.4213 -0.7548  1.8257
 1439TIP3   OH225731   2.783   0.050   4.839  0.2007 -0.4199  0.2434
 1439TIP3    H125732   2.806   0.028   4.930  1.0368  2.0158  0.7039
 1439TIP3    H225733   2.862   0.028   4.789  1.0199  1.3152  0.6934
 1440TIP3   OH225734   1.107   1.491   5.155  0.6577 -0.8322  0.7761
 1440TIP3    H125735   1.140   1.530   5.236  0.1939  2.1010 -0.3409
 1440TIP3    H225736   1.012   1.503   5.159  0.5737 -1.2060  0.0602
 1441TIP3   OH225737   1.127   2.168   4.898  0.4448  0.2018  0.0811
 1441TIP3    H125738   1.121   2.263   4.909 -0.9493 -0.0254  1.8446
 1441TIP3    H225739   1.175   2.138   4.976  0.1800 -0.6090 -0.0560
 1442TIP3   OH225740   4.618   2.485   1.863 -0.2566  0.1321 -0.2652
 1442TIP3    H125741   4.534   2.484   1.817 -0.0860  0.3080 -0.5847
 1442TIP3    H225742   4.611   2.557   1.925 -1.1441 -1.1765  1.2423
 1443TIP3   OH225743   2.001   5.968  14.893  0.1065 -0.1364  0.0801
 1443TIP3    H125744   1.981   6.050  14.848 -0.0289 -0.4023 -0.3559
 1443TIP3    H225745   2.051   5.917  14.829  0.6712 -0.1729  0.5432
 1444TIP3   OH225746   3.746   5.506  12.669 -0.4497  0.5677 -0.0957
 1444TIP3    H125747   3.666   5.499  12.720 -0.4563 -2.6908 -0.3960
 1444TIP3    H225748   3.778   5.595  12.688 -3.5591  1.6393  0.7471
 1445TIP3   OH225749   5.909   4.786   5.125 -0.4209 -0.7016 -0.0026
 1445TIP3    H125750   5.915   4.880   5.144  0.1126 -0.6931 -0.2006
 1445TIP3    H225751   5.939   4.778   5.035  1.2258 -1.2663  0.5639
 1446TIP3   OH225752   4.502   0.766   5.712 -0.0140  0.1320 -0.2745
 1446TIP3    H125753   4.581   0.715   5.730  0.6278  1.0808 -0.2651
 1446TIP3    H225754   4.452   0.764   5.793  0.2675 -0.0410 -0.1042
 1447TIP3   OH225755   3.977   5.376  14.778  0.0233  0.1353  0.1273
 1447TIP3    H125756   4.021   5.341  14.700 -0.5468 -0.5087  0.0813
 1447TIP3    H225757   4.030   5.452  14.803  0.1378  0.4427 -0.9688
 1448TIP3   OH225758   6.627   1.584  13.241  0.4077 -0.4765  0.1515
 1448TIP3    H125759   6.614   1.650  13.173  1.1496  0.5514  0.9740
 1448TIP3    H225760   6.541   1.572  13.280  0.3969  0.4946  0.4271
 1449TIP3   OH225761   6.138   2.100  11.782 -0.0161  0.0460  0.3020
 1449TIP3    H125762   6.134   2.043  11.705 -0.3169 -0.3650  0.6142
 1449TIP3    H225763   6.133   2.189  11.748 -3.4653 -0.1531  0.0280
 1450TIP3   OH225764   2.131   4.372   4.228 -0.0098  0.5357  0.1828
 1450TIP3    H125765   2.055   4.330   4.187 -0.9580  1.2345  1.1735
 1450TIP3    H225766   2.200   4.306   4.222 -0.2707  0.3788 -1.9302
 1451TIP3   OH225767   2.822   5.920   6.447  0.1674 -0.3799 -0.3110
 1451TIP3    H125768   2.802   6.013   6.450  0.3182 -0.3005 -1.2625
 1451TIP3    H225769   2.749   5.881   6.398  0.5647 -0.6190 -0.7205
 1452TIP3   OH225770   0.787   0.457  16.570  0.1885 -0.2776  0.0061
 1452TIP3    H125771   0.697   0.425  16.571  0.7755 -2.1822 -1.1400
 1452TIP3    H225772   0.780   0.551  16.583 -2.0880 -0.1678 -1.4545
 1453TIP3   OH225773   0.635   1.498   5.075  0.4888 -0.0981 -0.2227
 1453TIP3    H125774   0.671   1.484   5.163 -1.2443  1.9629  0.9252
 1453TIP3    H225775   0.685   1.572   5.040 -1.6623  2.0789  0.9587
 1454TIP3   OH225776   1.809   1.448   5.134  0.0896 -0.1840 -0.1713
 1454TIP3    H125777   1.826   1.360   5.102  0.4273 -0.3660  0.4836
 1454TIP3    H225778   1.713   1.455   5.136  0.0648 -0.4945 -0.3357
 1455TIP3   OH225779   2.574   6.148   0.328 -0.0154 -0.0745 -0.1426
 1455TIP3    H125780   2.605   6.073   0.379  1.0210  1.3230  1.4071
 1455TIP3    H225781   2.638   6.157   0.258 -0.8960 -1.4112 -1.1670
 1456TIP3   OH225782   3.828   3.012  12.072  0.4004  0.0604 -0.2827
 1456TIP3    H125783   3.911   3.017  12.118  0.5362  0.1437 -0.5381
 1456TIP3    H225784   3.851   2.988  11.982  0.0905 -0.8182 -0.1386
 1457TIP3   OH225785   3.278   1.517   0.961  0.4803 -0.7418  0.3872
 1457TIP3    H125786   3.285   1.475   0.875  0.8096 -2.1591  1.0770
 1457TIP3    H225787   3.195   1.484   0.997  0.1130  0.2083  0.4411
 1458TIP3   OH225788   2.386   6.462   1.335 -0.1454 -0.3776 -0.3462
 1458TIP3    H125789   2.353   6.434   1.250  0.0697  1.5177 -1.1237
 1458TIP3    H225790   2.308   6.487   1.384 -0.2503 -1.2368 -0.0591
 1459TIP3   OH225791   0.982   5.828   1.573 -0.1692 -0.2565  0.7298
 1459TIP3    H125792   1.025   5.912   1.562 -1.3824  0.7649  3.0448
 1459TIP3    H225793   0.889   5.845   1.556 -0.1802 -1.6450 -0.8618
 1460TIP3   OH225794   0.799   4.995   2.556  0.2832 -0.1775 -0.6893
 1460TIP3    H125795   0.771   4.980   2.465  0.8959  2.1618 -1.3357
 1460TIP3    H225796   0.894   5.003   2.550  0.5340 -1.8218  0.4919
 1461TIP3   OH225797   6.163   4.002   3.289  0.1110  0.7590 -0.1856
 1461TIP3    H125798   6.081   3.966   3.255  0.6580  0.1585 -0.9100
 1461TIP3    H225799   6.161   4.094   3.263  0.1995  0.4733 -1.2602
 1462TIP3   OH225800   2.783   0.317   4.335  0.6977  0.2717 -0.1980
 1462TIP3    H125801   2.848   0.289   4.271  0.8808 -1.2894  0.6039
 1462TIP3    H225802   2.781   0.412   4.328  0.9356  0.1634 -2.2681
 1463TIP3   OH225803   3.446   4.190  16.861  0.7947  0.2902 -0.0317
 1463TIP3    H125804   3.428   4.267  16.915 -2.9022 -0.3422 -0.1231
 1463TIP3    H225805   3.526   4.213  16.814  1.3280  2.9480  1.8940
 1464TIP3   OH225806   3.015   0.039   3.955 -0.3261  0.9895  0.1113
 1464TIP3    H125807   3.109   0.019   3.958 -0.4350  0.5521  1.5277
 1464TIP3    H225808   2.975  -0.041   3.921 -0.0811  1.7492 -2.1218
 1465TIP3   OH225809   5.215   4.989  11.492  0.0562  0.8251  0.0251
 1465TIP3    H125810   5.228   5.046  11.416  1.4356 -0.1914 -0.5500
 1465TIP3    H225811   5.163   4.916  11.460 -0.0654  0.8048  0.2654
 1466TIP3   OH225812   3.236   1.539  11.350  0.3119  0.2822  1.1047
 1466TIP3    H125813   3.253   1.451  11.315 -1.5258  0.0108  0.8069
 1466TIP3    H225814   3.317   1.587  11.332  0.3484 -0.5293 -1.3507
 1467TIP3   OH225815   4.093   0.986   3.396 -0.2156  1.2556 -0.7750
 1467TIP3    H125816   4.100   1.001   3.490 -0.4117 -0.4541 -0.4664
 1467TIP3    H225817   4.160   0.920   3.377 -2.2392 -0.8111 -1.2239
 1468TIP3   OH225818   5.454   2.771  11.429  0.3887 -0.3587  0.3623
 1468TIP3    H125819   5.444   2.683  11.466 -0.4230 -0.1808  0.6008
 1468TIP3    H225820   5.540   2.770  11.387  0.5644 -1.1351  0.7135
 1469TIP3   OH225821   2.847   4.092  14.565 -0.1757 -0.1708 -0.0424
 1469TIP3    H125822   2.763   4.138  14.558 -1.1126 -1.8234 -0.4063
 1469TIP3    H225823   2.856   4.046  14.482 -0.3068 -2.1957  0.9881
 1470TIP3   OH225824   2.527   5.976  15.000  0.3594 -0.7204  0.7904
 1470TIP3    H125825   2.612   6.020  15.002 -0.6704  1.4103  0.8285
 1470TIP3    H225826   2.505   5.961  15.091  0.2512 -0.3409  0.8279
 1471TIP3   OH225827   6.682   0.535   0.615 -0.4446  0.5221  0.1610
 1471TIP3    H125828   6.631   0.615   0.621 -0.9267  0.5611 -2.7317
 1471TIP3    H225829   6.617   0.465   0.613 -0.0823  0.1192  1.5138
 1472TIP3   OH225830   6.791   1.073  16.088  0.1244 -0.6863 -0.3824
 1472TIP3    H125831   6.843   1.097  16.165  0.2881 -0.2344 -0.6280
 1472TIP3    H225832   6.707   1.044  16.124  0.0094  0.0207 -0.0539
 1473TIP3   OH225833   0.171   0.204  13.062  0.7592 -0.2009  0.1245
 1473TIP3    H125834   0.125   0.209  12.978 -0.4524 -2.5808  0.5610
 1473TIP3    H225835   0.263   0.210  13.038  0.6799 -3.9074 -1.8665
 1474TIP3   OH225836   0.008   3.577   4.644 -0.0711 -0.2389  0.2132
 1474TIP3    H125837  -0.023   3.498   4.599 -0.5272 -0.3899  0.7735
 1474TIP3    H225838   0.101   3.561   4.660  0.1204 -0.1331 -0.7673
 1475TIP3   OH225839   1.690   0.880   2.895 -0.1310  0.2566  0.0850
 1475TIP3    H125840   1.695   0.804   2.953 -0.6958  0.0507 -0.1377
 1475TIP3    H225841   1.644   0.849   2.818  1.6343  0.2171 -1.0024
 1476TIP3   OH225842   0.933   2.400   5.638  0.9000 -0.3320  0.0226
 1476TIP3    H125843   0.901   2.324   5.589  0.0341 -0.0679  0.1556
 1476TIP3    H225844   0.863   2.465   5.630  0.9544 -0.0957  1.1699
 1477TIP3   OH225845   1.660   4.967   4.259 -0.0900 -0.7632 -0.0768
 1477TIP3    H125846   1.632   5.057   4.276 -1.6964 -1.1760 -0.3360
 1477TIP3    H225847   1.646   4.954   4.166 -0.7245 -1.5399  0.1106
 1478TIP3   OH225848   4.433   3.318  11.603 -0.1506  0.7368  0.7677
 1478TIP3    H125849   4.349   3.271  11.600  0.9361 -1.3374 -2.1380
 1478TIP3    H225850   4.461   3.322  11.512  3.1270  0.9232  1.6567
 1479TIP3   OH225851   0.311   4.936   0.927 -0.6092  0.3908 -0.5840
 1479TIP3    H125852   0.366   4.990   0.984  0.0719 -0.0351 -0.8435
 1479TIP3    H225853   0.334   4.963   0.838 -1.1548  0.5359 -0.6907
 1480TIP3   OH225854   3.823   6.303   0.310 -0.2329 -0.0569 -0.0782
 1480TIP3    H125855   3.854   6.227   0.262 -1.0003 -0.6767  0.3908
 1480TIP3    H225856   3.740   6.326   0.269 -0.1394  0.3583 -0.0400
 1481TIP3   OH225857   6.437   6.690   3.602 -0.1415 -0.3101 -0.7226
 1481TIP3    H125858   6.388   6.771   3.610 -1.3785 -0.6322 -3.7541
 1481TIP3    H225859   6.521   6.715   3.563  0.4432 -0.2416  0.5539
 1482TIP3   OH225860   5.183   0.153  11.175 -0.1591 -0.0411 -0.1022
 1482TIP3    H125861   5.152   0.231  11.220 -0.3220 -0.4756  0.5428
 1482TIP3    H225862   5.217   0.186  11.092 -1.8619  0.5319 -0.6307
 1483TIP3   OH225863   6.688   5.031  14.391 -0.2332 -0.0253 -0.4308
 1483TIP3    H125864   6.720   4.945  14.418  3.0578  0.9066 -0.8400
 1483TIP3    H225865   6.727   5.092  14.455 -0.9891  1.2913 -1.1749
 1484TIP3   OH225866   1.710   5.070   0.738  0.7953  0.6856 -0.4204
 1484TIP3    H125867   1.734   5.101   0.825  0.5997  0.6206 -0.3420
 1484TIP3    H225868   1.792   5.039   0.699  0.7171 -0.2146  0.1186
 1485TIP3   OH225869   4.974   1.597   4.658 -0.3775 -0.2923  0.3225
 1485TIP3    H125870   5.050   1.591   4.601  0.4834 -0.7980  1.4850
 1485TIP3    H225871   5.006   1.638   4.738 -0.8497 -2.1605  1.5529
 1486TIP3   OH225872   1.078   5.009   2.462  0.3715  0.0892  0.2335
 1486TIP3    H125873   1.161   4.974   2.494  1.5242  0.5568 -2.0874
 1486TIP3    H225874   1.046   4.944   2.400 -0.3560  0.4969  0.1661
 1487TIP3   OH225875   3.819   5.723  14.879  0.4025  0.2294  0.0216
 1487TIP3    H125876   3.787   5.652  14.935  1.1538  0.8031  1.2089
 1487TIP3    H225877   3.790   5.803  14.923  1.6613  0.7062  0.0093
 1488TIP3   OH225878   6.473   5.557  13.253 -1.2025  0.6855 -0.2843
 1488TIP3    H125879   6.413   5.632  13.259 -2.7237 -0.5212  0.3633
 1488TIP3    H225880   6.434   5.502  13.185 -0.5788  0.0760 -0.1498
 1489TIP3   OH225881   5.966   3.105  12.746  0.2052  0.0108 -0.2502
 1489TIP3    H125882   5.963   3.154  12.828 -2.0633  0.2363 -0.4006
 1489TIP3    H225883   5.934   3.018  12.769  1.0031 -0.3954 -0.6331
 1490TIP3   OH225884   4.639   2.651   4.000  0.0937  0.2654 -0.0988
 1490TIP3    H125885   4.570   2.602   3.956  0.9598 -0.4322 -0.7308
 1490TIP3    H225886   4.624   2.743   3.976 -0.6424  0.1271 -0.1631
 1491TIP3   OH225887   4.011   0.542   1.587 -0.0698  0.2465  0.0701
 1491TIP3    H125888   3.979   0.579   1.669 -2.5463 -1.4101 -0.0623
 1491TIP3    H225889   4.020   0.618   1.529  1.0021  1.3371  1.5948
 1492TIP3   OH225890   0.962   1.948   2.766  0.5149 -0.5103  0.1993
 1492TIP3    H125891   1.029   2.008   2.734 -0.8362  1.2799  0.5808
 1492TIP3    H225892   0.888   2.004   2.790 -0.0806 -2.1256  2.5494
 1493TIP3   OH225893   1.834   6.192  13.362  0.0821  0.2564 -0.4208
 1493TIP3    H125894   1.901   6.247  13.321 -0.5701  1.6361  0.2907
 1493TIP3    H225895   1.783   6.159  13.289 -0.3504  1.7428 -0.8292
 1494TIP3   OH225896   0.750   2.524   1.632 -0.4322  0.4853 -0.2977
 1494TIP3    H125897   0.742   2.522   1.536 -0.4396  0.4671 -0.2967
 1494TIP3    H225898   0.776   2.434   1.655  0.8172  0.7962 -0.3938
 1495TIP3   OH225899   3.817   5.476  15.735 -0.0839 -0.0522 -0.4228
 1495TIP3    H125900   3.888   5.414  15.716 -0.0182 -0.3402  0.6895
 1495TIP3    H225901   3.751   5.423  15.780  0.2566  0.7922  1.1517
 1496TIP3   OH225902   5.519   0.824   3.050  0.2398 -0.0211 -0.5699
 1496TIP3    H125903   5.461   0.751   3.034 -0.1752  0.3361 -0.7111
 1496TIP3    H225904   5.461   0.898   3.068  0.6485  0.3116 -0.5920
 1497TIP3   OH225905   6.479   5.607   0.338 -0.1996 -0.0919  0.5220
 1497TIP3    H125906   6.433   5.598   0.421 -0.0803  0.4596  0.6488
 1497TIP3    H225907   6.503   5.699   0.333  4.8940 -0.9817  2.6198
 1498TIP3   OH225908   5.214   1.197   5.280 -0.0860 -0.3480  0.4954
 1498TIP3    H125909   5.227   1.286   5.312  1.6314  0.0485 -1.1448
 1498TIP3    H225910   5.252   1.141   5.347  0.1287  0.2291  0.8543
 1499TIP3   OH225911   1.109   5.785  15.008  0.3517  0.4190  0.0739
 1499TIP3    H125912   1.189   5.803  14.959  1.6450 -0.5739  1.6707
 1499TIP3    H225913   1.136   5.791  15.100 -0.9626 -1.6469  0.6645
 1500TIP3   OH225914   5.651   6.054   0.598 -0.0800 -0.2194  0.4054
 1500TIP3    H125915   5.564   6.069   0.636 -0.1794  0.8378 -0.1985
 1500TIP3    H225916   5.710   6.049   0.673 -0.4570  0.5269  0.7601
 1501TIP3   OH225917   3.538   2.643   1.161 -0.2620 -0.6805  0.3613
 1501TIP3    H125918   3.505   2.728   1.130 -0.5715 -1.1558 -0.6373
 1501TIP3    H225919   3.488   2.578   1.112 -0.5419 -1.4670  1.6281
 1502TIP3   OH225920   5.928   1.065  12.300  0.3444 -0.2763 -0.0642
 1502TIP3    H125921   5.932   0.976  12.266  0.7394 -0.1561 -0.3464
 1502TIP3    H225922   6.018   1.083  12.328  0.1920 -0.0895  0.3053
 1503TIP3   OH225923   4.983   1.291  12.043 -0.4734 -0.0118  0.1549
 1503TIP3    H125924   4.990   1.198  12.020  0.7002 -0.2653  1.3541
 1503TIP3    H225925   5.069   1.312  12.081 -0.0082  2.1098 -1.8548
 1504TIP3   OH225926   1.785   3.838  12.509 -0.2319 -0.4673 -0.1094
 1504TIP3    H125927   1.773   3.762  12.566  2.3584 -1.4993 -0.7978
 1504TIP3    H225928   1.860   3.884  12.546  0.2954 -0.1002 -1.5614
 1505TIP3   OH225929   5.796   1.263   3.463 -0.4074 -0.2481 -0.5415
 1505TIP3    H125930   5.789   1.332   3.529 -0.2346  0.0510 -0.8326
 1505TIP3    H225931   5.890   1.251   3.451 -0.3977  0.8514 -1.9158
 1506TIP3   OH225932   5.409   3.945  12.148  0.7483 -0.3588  0.2055
 1506TIP3    H125933   5.376   3.968  12.235 -1.9306  2.7091 -1.3732
 1506TIP3    H225934   5.369   3.861  12.128  0.6716 -0.6688  1.5574
 1507TIP3   OH225935   3.269   6.403  15.189  0.4266 -0.9367  0.4916
 1507TIP3    H125936   3.228   6.487  15.211  0.7802 -0.3108 -1.0773
 1507TIP3    H225937   3.354   6.427  15.152  0.1801 -1.9240 -0.7794
 1508TIP3   OH225938   1.028   2.941   4.446  0.6774  0.1501 -0.3531
 1508TIP3    H125939   1.063   2.887   4.517 -1.0066  0.9447  1.1411
 1508TIP3    H225940   0.976   3.008   4.490 -0.7582  0.4295 -2.3487
 1509TIP3   OH225941   6.584   1.025  16.274 -0.4218  0.0495  0.1160
 1509TIP3    H125942   6.626   1.044  16.358  0.5035  0.7291 -0.4871
 1509TIP3    H225943   6.503   1.077  16.276 -0.0806  0.5826  0.3173
 1510TIP3   OH225944   4.948   2.014  13.992  0.1784  0.1853 -0.1355
 1510TIP3    H125945   4.917   2.018  14.082  0.4552  0.0843 -0.0370
 1510TIP3    H225946   4.941   1.921  13.969  0.4274  0.1599 -0.1075
 1511TIP3   OH225947   0.712   1.164  15.884 -0.2241 -0.0540  0.5577
 1511TIP3    H125948   0.774   1.092  15.877 -1.2495 -0.9239  0.2086
 1511TIP3    H225949   0.716   1.207  15.798 -1.7076 -1.4857 -0.2856
 1512TIP3   OH225950   4.201   0.681   5.490  0.1527 -0.2706  0.0820
 1512TIP3    H125951   4.105   0.675   5.483 -0.0224  1.5715  0.5100
 1512TIP3    H225952   4.217   0.764   5.535  1.9808 -0.1764 -0.6572
 1513TIP3   OH225953   4.978   6.299   5.681 -0.4574  0.1613 -0.5267
 1513TIP3    H125954   5.063   6.335   5.705 -0.4242  1.5442 -2.4403
 1513TIP3    H225955   4.921   6.319   5.755  0.2492  1.7566 -0.3615
 1514TIP3   OH225956   4.775   2.369  15.902  0.3749 -0.1684  0.7805
 1514TIP3    H125957   4.749   2.280  15.880 -0.9287  0.4017 -0.1386
 1514TIP3    H225958   4.795   2.410  15.818  0.4356  0.5668  1.1394
 1515TIP3   OH225959   2.315   1.422  14.435  0.2982  0.0821 -0.2666
 1515TIP3    H125960   2.341   1.337  14.398  0.5662  0.9104 -2.0589
 1515TIP3    H225961   2.233   1.444  14.390 -0.0504  0.5572  0.5715
 1516TIP3   OH225962   1.949   5.326  13.446  0.2713 -0.0413  0.0366
 1516TIP3    H125963   1.939   5.251  13.504  0.0405 -0.5457 -0.6486
 1516TIP3    H225964   1.912   5.297  13.362 -0.1319  0.9438 -0.1423
 1517TIP3   OH225965   0.401   0.151   0.952 -0.0019  0.1659  0.0272
 1517TIP3    H125966   0.349   0.199   0.888 -2.2869 -1.9163  0.2051
 1517TIP3    H225967   0.443   0.220   1.004 -0.7327  1.9132 -1.5644
 1518TIP3   OH225968   0.302   6.528   5.370  0.0922  0.2311 -0.8492
 1518TIP3    H125969   0.385   6.491   5.401  0.5193  1.3621 -0.6045
 1518TIP3    H225970   0.251   6.452   5.342  0.8145 -0.5718 -0.0558
 1519TIP3   OH225971   0.973   4.329   0.641  0.8218  0.1325  0.7967
 1519TIP3    H125972   1.036   4.264   0.607  0.6070 -0.8648  2.2225
 1519TIP3    H225973   0.952   4.298   0.729  0.0880  1.7306  1.2131
 1520TIP3   OH225974   3.663   2.550   2.224  0.1493 -0.3879 -0.1532
 1520TIP3    H125975   3.586   2.505   2.189  0.4770 -1.3185  0.2708
 1520TIP3    H225976   3.645   2.643   2.212 -2.2144 -0.4092  2.2897
 1521TIP3   OH225977   4.797   6.480   2.437  0.7544  0.3291 -0.1125
 1521TIP3    H125978   4.807   6.408   2.499 -0.9432  1.3321  1.3828
 1521TIP3    H225979   4.790   6.436   2.352  0.1486 -1.2563  0.7096
 1522TIP3   OH225980   1.630   5.120  11.843 -0.3724 -0.5538  0.2042
 1522TIP3    H125981   1.566   5.118  11.915  0.3939  1.9903  1.0698
 1522TIP3    H225982   1.580   5.157  11.770 -0.1570  0.7490  0.6739
 1523TIP3   OH225983   5.256   4.041  14.804  1.0189  0.1139 -0.3462
 1523TIP3    H125984   5.330   4.055  14.745  1.4852  1.2136  0.4524
 1523TIP3    H225985   5.220   4.129  14.818 -0.0690 -0.3317 -0.2424
 1524TIP3   OH225986   4.040   3.384   5.875 -0.4727 -0.1517  0.3061
 1524TIP3    H125987   4.134   3.374   5.861 -1.0216 -3.0490 -2.7706
 1524TIP3    H225988   4.016   3.309   5.929 -1.2077 -0.4082 -0.3582
 1525TIP3   OH225989   3.485   4.639  13.788 -0.0438 -0.2619 -0.1877
 1525TIP3    H125990   3.569   4.607  13.758 -0.6987 -1.0751 -1.2176
 1525TIP3    H225991   3.439   4.665  13.709 -1.4062 -1.4461  0.1649
 1526TIP3   OH225992   5.443   2.579  15.077 -0.0016  0.5780 -0.4940
 1526TIP3    H125993   5.517   2.567  15.017  1.3906 -1.1047  1.4455
 1526TIP3    H225994   5.398   2.494  15.076 -1.1030  1.1495 -0.5787
 1527TIP3   OH225995   2.577   1.335  14.282  0.1470 -0.7160  0.2115
 1527TIP3    H125996   2.517   1.276  14.327 -0.1399 -1.2462 -0.8193
 1527TIP3    H225997   2.521   1.395  14.234  0.4411 -0.7525 -0.1841
 1528TIP3   OH225998   0.877   5.898  12.471 -0.1180 -0.0694 -0.2016
 1528TIP3    H125999   0.888   5.804  12.459 -1.4911 -0.3874  0.7541
 1528TIP3    H226000   0.784   5.908  12.494  0.1095  1.4716  0.1175
 1529TIP3   OH226001   3.738   0.672   0.645  0.5207 -0.1673 -0.1207
 1529TIP3    H126002   3.758   0.643   0.734  0.3784 -1.2037 -0.4050
 1529TIP3    H226003   3.643   0.686   0.646  0.4898 -0.3643 -0.1510
 1530TIP3   OH226004   0.765   3.991  13.523 -0.0596  0.6199 -0.5573
 1530TIP3    H126005   0.675   3.995  13.555 -0.5294  1.0474 -1.8538
 1530TIP3    H226006   0.757   4.005  13.429  1.3526  0.4452 -0.7211
 1531TIP3   OH226007   5.824   5.947   3.741  0.2978 -0.5147 -0.8937
 1531TIP3    H126008   5.782   5.877   3.790  0.2169 -1.0371 -1.6950
 1531TIP3    H226009   5.754   5.983   3.687  0.1799  0.6218 -0.0317
 1532TIP3   OH226010   5.861   1.223  10.693  0.4198 -0.5189 -0.2499
 1532TIP3    H126011   5.790   1.170  10.730 -1.4075  0.5576 -2.0162
 1532TIP3    H226012   5.941   1.177  10.718 -0.8970 -2.0796  1.3728
 1533TIP3   OH226013   5.300   2.137  13.839 -0.1105 -0.4720 -0.0631
 1533TIP3    H126014   5.282   2.180  13.755  0.0610  1.1328  0.6865
 1533TIP3    H226015   5.374   2.185  13.876  1.4947 -2.7295 -0.0748
 1534TIP3   OH226016   3.902   1.954   4.549  0.3203  0.0596 -0.1289
 1534TIP3    H126017   3.948   1.882   4.505 -0.1703 -0.2419 -0.1547
 1534TIP3    H226018   3.885   1.920   4.637 -0.3670 -0.0570 -0.3005
 1535TIP3   OH226019   2.714   2.292  11.594 -0.3573 -0.2771  0.1467
 1535TIP3    H126020   2.620   2.300  11.579 -0.3149  1.9619  0.7201
 1535TIP3    H226021   2.753   2.307  11.508 -0.4908  0.5771  0.2257
 1536TIP3   OH226022   3.535   3.040  14.110 -0.2455 -0.1136 -0.1112
 1536TIP3    H126023   3.515   3.022  14.202  1.3804  1.1219  0.5361
 1536TIP3    H226024   3.546   3.135  14.106 -1.0204 -0.0678 -1.7602
 1537TIP3   OH226025   1.914   6.448  14.320 -0.1803 -0.4233 -0.2825
 1537TIP3    H126026   1.835   6.501  14.327  0.2198  0.3914 -1.5005
 1537TIP3    H226027   1.892   6.365  14.362 -1.0407  0.4527  1.0935
 1538TIP3   OH226028   2.263   5.084   4.546  0.5575  0.1341  0.1684
 1538TIP3    H126029   2.312   5.022   4.492 -1.1791 -0.4622 -0.8177
 1538TIP3    H226030   2.180   5.039   4.564 -0.7304  2.0943 -0.5107
 1539TIP3   OH226031   3.587   3.497  14.326 -0.3303 -0.7482  0.0436
 1539TIP3    H126032   3.644   3.549  14.269 -1.5298  0.3383 -0.2136
 1539TIP3    H226033   3.607   3.528  14.414 -0.3797 -0.5168 -0.0269
 1540TIP3   OH226034   0.590   1.271   3.239 -0.2730 -0.5262  0.0328
 1540TIP3    H126035   0.573   1.300   3.329 -0.9444 -0.5469 -0.0770
 1540TIP3    H226036   0.586   1.351   3.187 -2.2770 -0.7654 -0.2915
 1541TIP3   OH226037   1.829   4.350   6.125  0.2957 -0.5481  0.7756
 1541TIP3    H126038   1.877   4.269   6.109 -0.3821 -0.8523  0.2609
 1541TIP3    H226039   1.800   4.343   6.216  0.8554 -0.5482  0.9608
 1542TIP3   OH226040   5.285   4.879   2.938  0.6324 -0.2229  0.3167
 1542TIP3    H126041   5.243   4.880   2.851 -0.6658  0.4580  0.9210
 1542TIP3    H226042   5.267   4.791   2.972 -0.9008  0.2523  0.8168
 1543TIP3   OH226043   1.518   1.920   0.366 -0.3162 -0.2713  0.2424
 1543TIP3    H126044   1.505   2.014   0.352 -2.1863 -0.1734  1.9857
 1543TIP3    H226045   1.479   1.904   0.452  2.1215 -2.2439  1.0818
 1544TIP3   OH226046   4.075   3.064  10.864 -0.7816 -0.2352 -0.5863
 1544TIP3    H126047   4.136   3.117  10.812 -0.7766  0.7593  0.3858
 1544TIP3    H226048   4.060   2.985  10.812  1.8147 -0.7985 -0.5786
 1545TIP3   OH226049   6.524   4.724   2.743 -0.1548  0.0895 -0.5199
 1545TIP3    H126050   6.606   4.677   2.762 -1.2679 -1.1031  1.7928
 1545TIP3    H226051   6.552   4.815   2.728  1.5821 -0.2226  0.4805
 1546TIP3   OH226052   0.465   3.333  12.539 -0.6941  0.0261 -0.1492
 1546TIP3    H126053   0.482   3.250  12.584  0.2085 -0.8454 -2.0003
 1546TIP3    H226054   0.517   3.328  12.459 -1.4475  1.9503 -0.8152
 1547TIP3   OH226055   2.844   5.584  14.745  0.5215  0.0065 -0.1903
 1547TIP3    H126056   2.760   5.626  14.766  1.6528  1.7652  1.1332
 1547TIP3    H226057   2.847   5.583  14.650 -1.0153 -0.1616 -0.2718
 1548TIP3   OH226058   2.856   3.165   5.243 -0.4847 -0.0033 -0.3238
 1548TIP3    H126059   2.908   3.219   5.184 -1.3953  0.1389 -1.0126
 1548TIP3    H226060   2.913   3.151   5.319  0.2254  0.8712 -0.6787
 1549TIP3   OH226061   4.896   3.402  13.413  0.3030 -0.4631  0.2775
 1549TIP3    H126062   4.945   3.322  13.432  2.5080  0.5792 -0.7436
 1549TIP3    H226063   4.835   3.376  13.343 -1.0236 -1.8751  1.8572
 1550TIP3   OH226064   5.190   1.915   0.552 -0.2039  0.0984 -0.2555
 1550TIP3    H126065   5.222   1.842   0.499  0.7795 -1.3986  2.2063
 1550TIP3    H226066   5.095   1.914   0.540 -0.1011 -0.9143 -1.0950
 1551TIP3   OH226067   1.351   2.950   1.669  0.6777  0.4309  0.0795
 1551TIP3    H126068   1.319   2.934   1.757  2.0210  2.6667  1.0367
 1551TIP3    H226069   1.277   2.929   1.612 -0.6960  0.3917  1.8261
 1552TIP3   OH226070   5.207   1.627   0.110  0.5720 -0.0053  0.5671
 1552TIP3    H126071   5.173   1.666   0.029  1.4516  0.2474  0.3160
 1552TIP3    H226072   5.154   1.548   0.122  1.1670 -0.6551 -0.8610
 1553TIP3   OH226073   2.963   0.185   5.562  0.2369 -0.1579  0.2218
 1553TIP3    H126074   3.050   0.215   5.533  1.2768 -1.1185  2.1633
 1553TIP3    H226075   2.969   0.090   5.560 -1.7462 -0.3155 -2.2031
 1554TIP3   OH226076   0.393   3.634  11.224 -0.3707  0.1492  0.2002
 1554TIP3    H126077   0.337   3.621  11.301 -1.1195  0.7942 -0.2294
 1554TIP3    H226078   0.391   3.728  11.209 -0.0664  0.0486 -0.4967
 1555TIP3   OH226079   4.565   1.614   5.415 -0.1255 -0.2042 -0.0728
 1555TIP3    H126080   4.510   1.692   5.409 -2.1303 -1.5766 -0.6439
 1555TIP3    H226081   4.653   1.647   5.432 -1.0921  2.1126  0.7739
 1556TIP3   OH226082   4.200   5.445   1.810  0.2252  0.1998  0.1831
 1556TIP3    H126083   4.162   5.396   1.737  1.7697  0.9586 -1.1894
 1556TIP3    H226084   4.192   5.386   1.885  1.7199 -2.0562 -1.3217
 1557TIP3   OH226085   1.899   0.935  11.999  0.2610  0.2846  0.5080
 1557TIP3    H126086   1.829   0.873  11.979  1.5449 -0.8007 -0.7492
 1557TIP3    H226087   1.872   1.016  11.955 -0.2191 -0.1231  0.0382
 1558TIP3   OH226088   2.233   0.284  14.661 -0.3376  0.3801 -0.5655
 1558TIP3    H126089   2.296   0.212  14.659  0.2656  0.9152 -1.4716
 1558TIP3    H226090   2.159   0.249  14.710 -1.3478 -1.9131 -3.4165
 1559TIP3   OH226091   2.446   1.306   5.481  0.2274 -0.7874  0.5344
 1559TIP3    H126092   2.367   1.253   5.475  0.6645 -1.3713 -0.2847
 1559TIP3    H226093   2.450   1.333   5.573 -0.7606 -0.9940  0.6418
 1560TIP3   OH226094   5.146   6.638   5.276 -0.5271  0.5278  0.3086
 1560TIP3    H126095   5.189   6.669   5.197  0.7445 -0.5678  0.5288
 1560TIP3    H226096   5.122   6.717   5.324  0.2641  1.1846 -0.3575
 1561TIP3   OH226097   5.419   0.566   2.049 -0.5646 -0.1829 -0.3436
 1561TIP3    H126098   5.495   0.608   2.089 -0.2395 -0.1355 -1.0066
 1561TIP3    H226099   5.454   0.488   2.007 -0.9011 -0.2177 -0.5638
 1562TIP3   OH226100   5.052   0.966   0.699 -0.1301  0.5434 -0.2513
 1562TIP3    H126101   5.121   0.955   0.634 -2.0941 -1.2525 -2.1786
 1562TIP3    H226102   5.051   1.060   0.717  1.8692  0.7986 -1.1760
 1563TIP3   OH226103   0.279   4.940  14.098 -0.8363 -0.0374 -0.3548
 1563TIP3    H126104   0.327   4.936  14.015 -2.7183  0.1085 -1.5008
 1563TIP3    H226105   0.216   5.011  14.087 -2.1861 -1.0205  0.5844
 1564TIP3   OH226106   0.288   2.995   3.185 -0.1477  0.1212  0.1448
 1564TIP3    H126107   0.326   3.041   3.111  0.5525  1.7348  1.4578
 1564TIP3    H226108   0.232   2.928   3.145 -0.7978  1.7554 -1.8404
 1565TIP3   OH226109   5.940   2.845   6.422  0.0057  0.0420  0.2706
 1565TIP3    H126110   5.973   2.930   6.391  2.1550 -0.5775  0.6651
 1565TIP3    H226111   5.933   2.856   6.517  2.4939 -0.8130  0.6360
 1566TIP3   OH226112   2.953   3.086  15.812 -0.3293  0.5330 -0.0217
 1566TIP3    H126113   2.891   3.138  15.762  1.2586  1.2826 -1.3237
 1566TIP3    H226114   3.033   3.087  15.759  0.8542 -0.2384  1.6566
 1567TIP3   OH226115   5.808   6.302   3.895  0.4862  0.3003 -0.2743
 1567TIP3    H126116   5.800   6.397   3.882 -2.4246  0.5700  2.2768
 1567TIP3    H226117   5.767   6.264   3.817 -0.3934  1.2404 -0.2936
 1568TIP3   OH226118   5.219   6.484  10.982  0.2852 -0.1937 -0.5249
 1568TIP3    H126119   5.290   6.524  10.932  1.2244 -0.3301  0.6567
 1568TIP3    H226120   5.177   6.557  11.027  1.1467 -0.3458  0.5701
 1569TIP3   OH226121   6.375   0.027  16.250  0.2586 -0.0311  0.2500
 1569TIP3    H126122   6.309  -0.012  16.308  0.0075 -0.1966 -0.1389
 1569TIP3    H226123   6.422   0.089  16.305  0.4763 -0.6830  0.8049
 1570TIP3   OH226124   3.862   6.593  13.071 -0.1309  0.3337  0.3677
 1570TIP3    H126125   3.845   6.644  12.992 -0.0495 -1.1953 -0.6872
 1570TIP3    H226126   3.957   6.584  13.074 -0.1305  0.4536  0.6806
 1571TIP3   OH226127   2.722   5.301  12.764 -0.1944  0.3176  0.4829
 1571TIP3    H126128   2.754   5.389  12.742 -0.4576  0.5817  1.1134
 1571TIP3    H226129   2.715   5.302  12.860 -2.1014  0.2714  0.3755
 1572TIP3   OH226130   5.638   5.799   2.102  0.1393 -0.3516 -0.0370
 1572TIP3    H126131   5.626   5.894   2.094  2.8517  0.0920  0.2719
 1572TIP3    H226132   5.656   5.769   2.013 -2.1481 -0.8899 -0.3832
 1573TIP3   OH226133   6.503   6.340  15.203  0.5755 -0.3069 -0.1267
 1573TIP3    H126134   6.461   6.404  15.146  1.6810  1.4859  0.9639
 1573TIP3    H226135   6.556   6.286  15.144  0.5952  0.6085 -0.9649
 1574TIP3   OH226136   6.304   0.504   1.396 -0.0718 -0.2887  0.3243
 1574TIP3    H126137   6.370   0.574   1.401  0.9074 -1.2610  1.9787
 1574TIP3    H226138   6.313   0.458   1.479 -1.4984 -1.6830 -0.2627
 1575TIP3   OH226139   0.688   4.993   5.719  0.1450 -0.6069  0.3554
 1575TIP3    H126140   0.697   4.988   5.814 -0.0401 -1.5757  0.3258
 1575TIP3    H226141   0.778   4.989   5.686  0.1209 -1.9302  0.4232
 1576TIP3   OH226142   1.246   0.521  13.541 -0.2628  0.4405  0.3476
 1576TIP3    H126143   1.330   0.489  13.506 -0.3478  0.9209 -0.3176
 1576TIP3    H226144   1.270   0.585  13.607 -0.0338 -2.2960  3.1414
 1577TIP3   OH226145   0.146   0.325  12.197  0.1955  0.1725 -0.3102
 1577TIP3    H126146   0.139   0.244  12.146  1.6767  0.3303 -0.8079
 1577TIP3    H226147   0.059   0.365  12.191 -0.0126 -0.4455 -1.6442
 1578TIP3   OH226148   3.656   1.255  11.256  0.1719  0.2762  0.2372
 1578TIP3    H126149   3.694   1.342  11.262  1.7056 -0.2649 -0.9083
 1578TIP3    H226150   3.718   1.205  11.202 -1.0096 -1.3266  0.2736
 1579TIP3   OH226151   4.449   6.305  14.957  0.0296 -0.6228  0.0927
 1579TIP3    H126152   4.383   6.371  14.979 -0.2180 -1.2451  1.3271
 1579TIP3    H226153   4.455   6.251  15.036  0.8657 -1.5375 -0.5820
 1580TIP3   OH226154   1.235   3.001   2.923  0.0665  0.4887  0.0623
 1580TIP3    H126155   1.190   2.954   2.994 -0.4180 -0.1578 -0.6605
 1580TIP3    H226156   1.247   3.090   2.957 -1.9263  0.7394  0.1964
 1581TIP3   OH226157   0.065   2.152  11.542  0.1383 -0.1443 -0.0942
 1581TIP3    H126158  -0.015   2.186  11.582  1.0929 -0.0088  1.8303
 1581TIP3    H226159   0.076   2.065  11.581  0.2623 -0.7170 -1.3456
 1582TIP3   OH226160   6.212   4.770  14.148  0.3338  0.4716 -0.0012
 1582TIP3    H126161   6.305   4.759  14.171  0.1854  0.2041  0.4869
 1582TIP3    H226162   6.171   4.800  14.229 -0.3891 -1.4843  0.3973
 1583TIP3   OH226163   1.742   4.470  11.016 -0.0289  0.0495  0.0131
 1583TIP3    H126164   1.670   4.408  11.023  0.5160 -0.4333  1.5406
 1583TIP3    H226165   1.741   4.496  10.924 -2.2576  0.2029  0.0171
 1584TIP3   OH226166   0.661   3.840   1.995 -0.2427  0.4754 -0.1587
 1584TIP3    H126167   0.624   3.805   2.076 -1.0289  3.4397  0.8955
 1584TIP3    H226168   0.611   3.920   1.979  2.6639  2.2468 -1.1949
 1585TIP3   OH226169   5.763   6.412   4.173 -0.7445  0.1526 -0.1962
 1585TIP3    H126170   5.761   6.345   4.105 -1.6872  0.0918 -0.1319
 1585TIP3    H226171   5.855   6.419   4.199 -0.5358 -0.5736 -0.7343
 1586TIP3   OH226172   2.083   2.206   5.188  0.1802 -0.2702  0.5300
 1586TIP3    H126173   2.173   2.176   5.173  0.3769 -0.4147  1.8756
 1586TIP3    H226174   2.091   2.299   5.209 -0.0340 -0.1780  0.2151
 1587TIP3   OH226175   6.620   3.708   3.659 -0.1162 -0.1535  0.3917
 1587TIP3    H126176   6.651   3.794   3.631  0.2137  0.1574  1.6778
 1587TIP3    H226177   6.525   3.712   3.644  0.1510 -0.4289 -1.7395
 1588TIP3   OH226178   5.188   4.315   4.054  0.7284 -0.0232  0.0292
 1588TIP3    H126179   5.240   4.235   4.058 -0.4332 -0.8719 -0.9657
 1588TIP3    H226180   5.196   4.344   3.963 -0.7305 -0.3212 -0.2123
 1589TIP3   OH226181   1.060   4.650  15.774 -0.7395  0.1363  0.1283
 1589TIP3    H126182   1.096   4.575  15.727 -1.2905  1.1448 -1.9999
 1589TIP3    H226183   0.971   4.624  15.797 -0.8247  0.0031 -0.3399
 1590TIP3   OH226184   1.340   0.394   4.464 -0.4288  0.0759  0.5157
 1590TIP3    H126185   1.257   0.347   4.457  0.9010 -2.2466 -0.7467
 1590TIP3    H226186   1.375   0.394   4.375  2.5431 -2.2199  1.5270
 1591TIP3   OH226187   2.524   6.205  11.794  0.4629 -0.2584  0.3815
 1591TIP3    H126188   2.611   6.225  11.760  0.1797  0.7603  0.2189
 1591TIP3    H226189   2.501   6.281  11.846 -1.6423  0.9957 -2.1604
 1592TIP3   OH226190   6.133   2.598  13.138  0.3689 -0.1679  0.2516
 1592TIP3    H126191   6.138   2.614  13.043  0.1323 -0.3586  0.2066
 1592TIP3    H226192   6.210   2.642  13.173  0.8535 -0.7091 -0.1112
 1593TIP3   OH226193   5.959   0.568  11.383  0.1901  0.1549 -0.7891
 1593TIP3    H126194   6.020   0.625  11.430  1.7354 -1.2174 -1.0257
 1593TIP3    H226195   5.960   0.602  11.294  0.7885  0.0153 -0.8416
 1594TIP3   OH226196   4.324   5.196   1.000  0.4634 -0.1873 -0.1280
 1594TIP3    H126197   4.244   5.185   1.051  1.0351  0.8419  1.0396
 1594TIP3    H226198   4.311   5.142   0.922 -2.0215  1.1903 -0.7582
 1595TIP3   OH226199   1.962   3.467  14.080 -0.4188  0.4515  0.1440
 1595TIP3    H126200   1.894   3.534  14.073 -0.0096  0.8554 -0.0623
 1595TIP3    H226201   1.919   3.392  14.121 -0.7044  1.0977  1.0456
 1596TIP3   OH226202   3.646   3.729   6.101  0.4024 -0.1048  0.0787
 1596TIP3    H126203   3.606   3.741   6.187  1.6786  0.9501  0.5548
 1596TIP3    H226204   3.740   3.724   6.119  0.6589 -0.2295 -1.2234
 1597TIP3   OH226205   2.664   2.120  13.708  0.0969  0.2367  0.1787
 1597TIP3    H126206   2.626   2.078  13.631  1.0589 -0.2604 -0.0490
 1597TIP3    H226207   2.610   2.197  13.724  0.7809  1.2179 -1.9292
 1598TIP3   OH226208   3.206   2.190  15.040 -0.2552 -0.0695 -0.0965
 1598TIP3    H126209   3.286   2.206  15.090 -0.1410 -0.2578 -0.2213
 1598TIP3    H226210   3.206   2.258  14.973  0.7031 -1.1364 -1.2066
 1599TIP3   OH226211   6.102   5.035  16.438  0.0388  0.6671 -0.3287
 1599TIP3    H126212   6.125   4.963  16.496 -0.4887  0.1904 -0.7065
 1599TIP3    H226213   6.044   4.996  16.373  1.6648  0.8573 -2.0005
 1600TIP3   OH226214   5.511   4.053  11.590 -0.4195  0.0096 -0.5324
 1600TIP3    H126215   5.533   3.993  11.661 -0.1034  0.5914 -0.1280
 1600TIP3    H226216   5.591   4.059  11.537 -0.1622  0.7183 -0.0883
 1601TIP3   OH226217   3.273   3.401  12.182  0.1809  0.3539 -0.4782
 1601TIP3    H126218   3.292   3.447  12.264 -1.6567 -0.8406  0.7149
 1601TIP3    H226219   3.179   3.413  12.169 -0.1811 -2.1161 -0.6522
 1602TIP3   OH226220   2.444   0.480  11.480 -0.5822 -0.4980  0.7715
 1602TIP3    H126221   2.417   0.430  11.404 -1.8339 -0.7643  1.3776
 1602TIP3    H226222   2.520   0.530  11.450 -1.1366 -0.4983 -0.6855
 1603TIP3   OH226223   2.483   0.870   3.315  0.2176  0.2158  0.6196
 1603TIP3    H126224   2.544   0.932   3.354 -0.2459  0.3333  1.1698
 1603TIP3    H226225   2.397   0.894   3.350 -0.0838 -0.2324  0.2155
 1604TIP3   OH226226   3.031   1.052   3.773 -0.0246 -0.2419 -0.8460
 1604TIP3    H126227   2.968   1.112   3.813  0.3270 -0.2971 -0.1942
 1604TIP3    H226228   3.103   1.047   3.836  0.2638 -0.8098 -1.2112
 1605TIP3   OH226229   2.124   1.871  15.791  0.4300  0.2756 -0.5154
 1605TIP3    H126230   2.172   1.797  15.829 -0.9643 -2.0407 -2.9129
 1605TIP3    H226231   2.191   1.921  15.744  1.3955  0.5812  1.1128
 1606TIP3   OH226232   4.785   0.621   5.047 -1.0491 -0.6830  0.0831
 1606TIP3    H126233   4.771   0.546   5.105 -1.8059  0.7061  1.8007
 1606TIP3    H226234   4.870   0.657   5.074 -0.6853 -0.9060 -0.7343
 1607TIP3   OH226235   0.882   3.012  16.669  0.4773 -1.2378 -0.1264
 1607TIP3    H126236   0.828   3.002  16.747  2.1965  0.3808  1.3950
 1607TIP3    H226237   0.867   3.102  16.640  1.9732 -0.8771  0.0985
 1608TIP3   OH226238   2.262   1.012  14.674  0.9554 -0.1040 -0.1438
 1608TIP3    H126239   2.311   0.949  14.621  1.4197  1.6005 -1.8756
 1608TIP3    H226240   2.286   0.991  14.764 -0.2303 -3.4133 -0.4870
 1609TIP3   OH226241   5.841   5.964   4.187 -0.3489 -0.5755  0.4988
 1609TIP3    H126242   5.805   5.910   4.257 -0.6718 -0.6683  0.2658
 1609TIP3    H226243   5.764   6.006   4.148 -0.0894  0.1370  0.7468
 1610TIP3   OH226244   5.117   5.140   5.141  0.2387 -0.5585  0.0222
 1610TIP3    H126245   5.180   5.076   5.176  0.2947 -0.2555  0.4845
 1610TIP3    H226246   5.037   5.125   5.191  0.0837 -0.6246 -0.2410
 1611TIP3   OH226247   3.621   1.768  17.157  0.9159 -0.2117 -0.0903
 1611TIP3    H126248   3.572   1.834  17.108  0.5424  1.1650  2.0099
 1611TIP3    H226249   3.665   1.717  17.090 -0.1043  1.1252 -1.8789
 1612TIP3   OH226250   5.469   3.023  17.162 -0.0342  0.2278 -0.1274
 1612TIP3    H126251   5.539   2.969  17.200  0.4875 -0.0420 -1.4190
 1612TIP3    H226252   5.516   3.091  17.113 -0.6297 -0.6300 -1.9789
 1613TIP3   OH226253   5.422   3.281  11.435  0.7701 -0.1352  0.0319
 1613TIP3    H126254   5.331   3.291  11.407  0.3213  0.7507  1.6798
 1613TIP3    H226255   5.467   3.245  11.358 -1.4240 -2.9963 -0.0878
 1614TIP3   OH226256   5.733   4.431   2.242 -0.7460  0.0386  0.1066
 1614TIP3    H126257   5.772   4.505   2.196 -1.3368  0.1938 -0.1657
 1614TIP3    H226258   5.774   4.354   2.203  0.0177  0.2234  0.5296
 1615TIP3   OH226259   0.425   3.020   2.471  0.1479 -0.7688 -0.4150
 1615TIP3    H126260   0.383   3.034   2.387  1.0529  1.1407 -0.5967
 1615TIP3    H226261   0.514   2.992   2.450  1.5805  3.1079 -0.3116
 1616TIP3   OH226262   4.379   6.456  11.830  0.7346  0.2170 -0.0828
 1616TIP3    H126263   4.297   6.407  11.826  0.5039  0.5780  0.1394
 1616TIP3    H226264   4.432   6.420  11.759  0.2258  0.2700 -0.4955
 1617TIP3   OH226265   1.438   6.552   4.032  0.4720 -0.0372  0.0376
 1617TIP3    H126266   1.379   6.477   4.029 -0.5973  0.6921  1.6378
 1617TIP3    H226267   1.522   6.518   4.000  0.1127 -1.9987  1.0505
 1618TIP3   OH226268   1.490   6.459  12.047  0.2874 -0.3008  0.1849
 1618TIP3    H126269   1.548   6.530  12.076 -0.3840 -0.2038  1.3423
 1618TIP3    H226270   1.416   6.504  12.006 -0.2711 -0.2849  1.1615
 1619TIP3   OH226271   2.202   4.327   3.910 -0.0391 -0.5441 -0.6107
 1619TIP3    H126272   2.208   4.266   3.984  0.7409  1.7129  1.3191
 1619TIP3    H226273   2.284   4.376   3.912 -1.3422  1.8037 -0.8755
 1620TIP3   OH226274   3.749   0.243   1.557  0.0318 -0.1062  0.7094
 1620TIP3    H126275   3.664   0.200   1.564 -0.0494 -0.9510 -3.0883
 1620TIP3    H226276   3.730   0.330   1.524  0.5939 -0.0773  0.4427
 1621TIP3   OH226277   3.799   4.240   0.676 -0.0461  0.0494  0.2188
 1621TIP3    H126278   3.769   4.170   0.734  0.0090 -0.7135 -0.6517
 1621TIP3    H226279   3.847   4.299   0.733 -1.2389  0.0891  1.2222
 1622TIP3   OH226280   1.632   4.280  14.909 -1.0922  0.5549  0.0397
 1622TIP3    H126281   1.627   4.375  14.918 -0.1150  0.7444 -1.2158
 1622TIP3    H226282   1.722   4.263  14.879 -0.8721 -0.8651  1.3313
 1623TIP3   OH226283   4.367   4.413  10.500  0.2096 -0.3703  0.2872
 1623TIP3    H126284   4.283   4.459  10.503  0.8754  1.0115 -0.8071
 1623TIP3    H226285   4.367   4.368  10.415  0.2150 -1.1282  0.6790
 1624TIP3   OH226286   3.503   5.584   0.280 -0.4034 -0.1866 -0.3281
 1624TIP3    H126287   3.496   5.591   0.185  0.0179  1.3101 -0.2790
 1624TIP3    H226288   3.433   5.639   0.314 -0.1706 -0.2149  0.2182
 1625TIP3   OH226289   2.496   1.762   5.372  0.0267  0.5041 -0.0360
 1625TIP3    H126290   2.501   1.666   5.370  0.6792  0.5251  0.5203
 1625TIP3    H226291   2.585   1.791   5.389  0.5911  1.3647 -3.5381
 1626TIP3   OH226292   2.666   5.351  14.789 -0.2818  0.1368 -0.4358
 1626TIP3    H126293   2.671   5.268  14.837 -1.6288  0.4115  0.2380
 1626TIP3    H226294   2.755   5.366  14.758  0.6532 -0.1227  1.8869
 1627TIP3   OH226295   2.107   5.036  15.112 -0.3063  0.6904  0.2166
 1627TIP3    H126296   2.154   5.073  15.038  0.8532 -1.9138 -0.4523
 1627TIP3    H226297   2.030   5.093  15.123 -0.1808  1.5173 -2.5691
 1628TIP3   OH226298   6.145   5.934  11.747  0.6665 -0.7783 -0.3649
 1628TIP3    H126299   6.127   5.906  11.657  1.9062  3.1577 -2.0454
 1628TIP3    H226300   6.202   5.866  11.782  1.0876 -1.8962 -2.9651
 1629TIP3   OH226301   0.063   1.728   1.398 -0.0761 -0.3258 -0.4773
 1629TIP3    H126302  -0.027   1.717   1.427  0.0402 -0.1634 -0.0566
 1629TIP3    H226303   0.099   1.797   1.454 -0.0356  0.4320 -1.4067
 1630TIP3   OH226304   2.546   0.962   1.809  0.0901  0.3050 -0.0725
 1630TIP3    H126305   2.471   0.954   1.751  0.8580 -0.2172 -1.0348
 1630TIP3    H226306   2.563   1.056   1.814 -1.1659  0.5086  0.9038
 1631TIP3   OH226307   2.307   6.029   3.493 -0.2779  0.1181 -0.1916
 1631TIP3    H126308   2.257   5.965   3.443 -0.0477 -0.6711  0.5649
 1631TIP3    H226309   2.261   6.112   3.478 -0.2777 -0.1113 -1.5961
 1632TIP3   OH226310   6.121   5.393   1.842 -0.2862  0.2052 -0.6424
 1632TIP3    H126311   6.110   5.459   1.773 -0.5863 -0.6352 -1.4144
 1632TIP3    H226312   6.133   5.311   1.795 -3.2773 -0.8726  0.2514
 1633TIP3   OH226313   3.752   5.365   1.968 -0.0609  0.1194 -0.0738
 1633TIP3    H126314   3.788   5.300   1.907  0.1324 -0.4885  0.6754
 1633TIP3    H226315   3.714   5.432   1.911  0.8508 -0.0146 -0.8680
 1634TIP3   OH226316   4.584   1.329  15.572  0.1837 -0.0676 -0.1778
 1634TIP3    H126317   4.629   1.389  15.513 -0.0521 -0.2735 -0.5708
 1634TIP3    H226318   4.626   1.344  15.657  0.1652  0.6134 -0.2794
 1635TIP3   OH226319   1.634   3.008  12.258 -0.4251 -0.0268  0.2333
 1635TIP3    H126320   1.648   2.951  12.334  0.5069 -1.5344 -1.0090
 1635TIP3    H226321   1.721   3.040  12.236 -0.8740  1.5049  0.5903
 1636TIP3   OH226322   0.400   6.119   0.138  0.1396  0.2672  0.1053
 1636TIP3    H126323   0.364   6.040   0.098 -0.7497  0.6230  0.1970
 1636TIP3    H226324   0.482   6.089   0.179 -0.0950 -0.5646 -0.0126
 1637TIP3   OH226325   3.335   4.062   1.653 -0.1572 -0.2190  0.5318
 1637TIP3    H126326   3.249   4.081   1.690 -0.4717 -0.8457  0.1429
 1637TIP3    H226327   3.337   4.111   1.571  0.8857  1.8896  1.7369
 1638TIP3   OH226328   5.569   4.027   2.311  0.1274  0.7582 -0.4011
 1638TIP3    H126329   5.485   4.044   2.354  0.1974 -0.3263  0.1864
 1638TIP3    H226330   5.593   3.939   2.339 -0.2497 -0.3892 -3.3804
 1639TIP3   OH226331   6.747   2.615   3.628 -0.0101  0.0712 -0.2831
 1639TIP3    H126332   6.662   2.651   3.655  0.8261  0.4011  2.1783
 1639TIP3    H226333   6.787   2.685   3.576  0.3758  1.6473  1.9838
 1640TIP3   OH226334   5.593   1.885   5.587 -0.2718 -0.3525 -0.3722
 1640TIP3    H126335   5.606   1.941   5.663 -0.4923 -1.9386  0.8661
 1640TIP3    H226336   5.507   1.910   5.553 -0.3072  0.1539  0.0834
 1641TIP3   OH226337   0.881   2.305   3.052 -0.1373  0.5478  0.0060
 1641TIP3    H126338   0.885   2.300   3.148 -1.2469 -2.0527  0.0305
 1641TIP3    H226339   0.825   2.231   3.027  2.3617 -0.6117 -2.8151
 1642TIP3   OH226340   5.643   2.400   6.229  0.0471  0.0765 -0.6634
 1642TIP3    H126341   5.580   2.334   6.258  0.9902  0.7584  3.5481
 1642TIP3    H226342   5.727   2.370   6.261  0.8110  2.2835 -0.3967
 1643TIP3   OH226343   6.393   2.377  11.863 -0.4535 -0.3994 -0.0200
 1643TIP3    H126344   6.314   2.389  11.915 -2.0149 -0.6613 -2.1858
 1643TIP3    H226345   6.424   2.466  11.844 -0.5292 -0.2856  0.3990
 1644TIP3   OH226346   1.594   6.333  11.396  0.6855 -0.2770  0.0725
 1644TIP3    H126347   1.544   6.415  11.401 -0.3922 -0.9760  1.4218
 1644TIP3    H226348   1.625   6.330  11.306 -0.3019  1.0154 -0.3483
 1645TIP3   OH226349   5.092   0.875  15.881 -0.0868 -0.5788 -0.1206
 1645TIP3    H126350   5.157   0.927  15.927 -1.6954 -0.2774  1.9708
 1645TIP3    H226351   5.022   0.937  15.860 -0.5644 -1.2624 -0.5974
 1646TIP3   OH226352   6.719   1.971   1.625 -0.3836 -0.2693  0.5040
 1646TIP3    H126353   6.687   1.897   1.573  0.2950  0.6843 -1.3777
 1646TIP3    H226354   6.814   1.965   1.619 -0.3055  1.4614 -0.8165
 1647TIP3   OH226355   1.348   0.785  14.713 -0.6346 -0.2920  0.5715
 1647TIP3    H126356   1.306   0.712  14.758 -0.3111 -0.5996  0.3813
 1647TIP3    H226357   1.385   0.745  14.634 -0.9189  0.1796  0.1951
 1648TIP3   OH226358   1.008   2.191  13.444 -0.3564 -0.3747  0.4042
 1648TIP3    H126359   1.072   2.238  13.497  0.4390 -2.1701  1.1288
 1648TIP3    H226360   0.936   2.173  13.504  0.0079 -1.3369  0.5849
 1649TIP3   OH226361   4.840   2.676  14.661  0.0712  0.1626  0.1589
 1649TIP3    H126362   4.773   2.725  14.709  1.4510  0.6234  1.7071
 1649TIP3    H226363   4.823   2.696  14.569 -1.1172  1.3092  0.6061
 1650TIP3   OH226364   4.999   5.997  10.061  0.5539  0.0727  0.4818
 1650TIP3    H126365   5.026   5.936   9.992 -0.3379  0.0018  0.1860
 1650TIP3    H226366   5.024   6.083  10.027 -1.1594  0.1830 -0.5997
 1651TIP3   OH226367   0.568   2.190   1.310 -0.2207 -0.5117 -0.0462
 1651TIP3    H126368   0.574   2.184   1.214  0.4491  3.8705 -0.4781
 1651TIP3    H226369   0.658   2.209   1.338 -0.9958  2.0773  0.9151
 1652TIP3   OH226370   2.290   0.531   2.555  0.2602  0.2631 -0.3196
 1652TIP3    H126371   2.313   0.557   2.466  1.4550 -0.2707 -0.1829
 1652TIP3    H226372   2.332   0.447   2.568 -1.3549 -0.5150  0.1687
 1653TIP3   OH226373   5.625   0.739  16.737  0.4396  0.9218 -0.6174
 1653TIP3    H126374   5.713   0.732  16.701  0.1767 -0.1715 -1.0709
 1653TIP3    H226375   5.635   0.798  16.812  1.3445  1.6697 -1.2979
 1654TIP3   OH226376   5.703   0.514   2.862 -0.0100 -0.5143  0.3521
 1654TIP3    H126377   5.726   0.580   2.928 -0.1167 -1.9248  1.8720
 1654TIP3    H226378   5.762   0.532   2.788 -0.5682  1.7299  0.4015
 1655TIP3   OH226379   4.020   3.728  16.412 -0.5425  0.3015 -0.4724
 1655TIP3    H126380   3.957   3.735  16.340 -0.7794  1.0791 -0.2052
 1655TIP3    H226381   4.106   3.724  16.369 -0.7866 -1.7659 -0.8853
 1656TIP3   OH226382   2.042   3.816  14.818  0.3389 -0.4093  0.7595
 1656TIP3    H126383   2.018   3.724  14.804  2.7990 -0.8798 -0.9267
 1656TIP3    H226384   2.116   3.812  14.879 -0.7119  0.6495  2.1751
 1657TIP3   OH226385   2.009   6.316  11.274 -0.3799 -0.4616  0.1597
 1657TIP3    H126386   2.033   6.290  11.364 -1.2344 -1.3962  0.1373
 1657TIP3    H226387   2.042   6.244  11.220 -2.3436 -1.3287  0.0400
 1658TIP3   OH226388   3.188   4.919   0.332  0.1709 -0.2325  0.1691
 1658TIP3    H126389   3.253   4.897   0.399 -1.3291 -0.0119  1.7794
 1658TIP3    H226390   3.106   4.883   0.367 -0.7789  0.4900 -1.2515
 1659TIP3   OH226391   3.467   3.253   4.057  0.2785  0.0025  0.6327
 1659TIP3    H126392   3.486   3.168   4.095 -0.9616 -2.0048 -2.7571
 1659TIP3    H226393   3.377   3.272   4.084  0.0515 -0.4899  0.2312
 1660TIP3   OH226394   0.337   6.648   1.116  0.2954  0.7424  0.1393
 1660TIP3    H126395   0.395   6.707   1.164  0.6142  1.0056 -0.5677
 1660TIP3    H226396   0.390   6.570   1.098  0.0830  0.5183  0.4776
 1661TIP3   OH226397   5.107   0.442   3.229  0.0899 -0.1081  0.0122
 1661TIP3    H126398   5.077   0.399   3.310 -0.6284 -0.0608 -0.2187
 1661TIP3    H226399   5.183   0.391   3.201 -0.3522 -0.8255  0.1042
 1662TIP3   OH226400   0.699   0.249   4.270  0.6414 -0.5383  0.1811
 1662TIP3    H126401   0.712   0.343   4.282 -2.6963 -0.1973  2.3969
 1662TIP3    H226402   0.787   0.214   4.254  2.2022  2.7054  0.9960
 1663TIP3   OH226403   1.225   4.050   3.441 -0.0706  0.0878  0.3008
 1663TIP3    H126404   1.218   4.073   3.533 -0.0070 -3.6300  1.4209
 1663TIP3    H226405   1.312   4.011   3.432 -0.0662  0.4087 -1.3378
 1664TIP3   OH226406   4.215   0.082   0.828 -0.0279  0.0052 -0.5497
 1664TIP3    H126407   4.279   0.079   0.757 -1.7045 -0.2665 -2.1052
 1664TIP3    H226408   4.232   0.166   0.872  1.1094  0.1174 -1.1716
 1665TIP3   OH226409   6.727   1.816  15.420 -0.0341 -0.1258 -0.0424
 1665TIP3    H126410   6.664   1.764  15.470  0.3652 -0.3614  0.2135
 1665TIP3    H226411   6.675   1.855  15.349 -0.5522  0.0111  0.4081
 1666TIP3   OH226412   6.495   3.179   3.484  0.1752 -0.3522 -0.0995
 1666TIP3    H126413   6.587   3.163   3.506  0.1995  2.1114  2.1289
 1666TIP3    H226414   6.499   3.241   3.411  0.2457 -1.1374 -0.7709
 1667TIP3   OH226415   3.346   5.360   0.150 -0.0261 -0.0923  0.5710
 1667TIP3    H126416   3.252   5.363   0.165 -0.2055  0.3073 -0.5234
 1667TIP3    H226417   3.363   5.269   0.127  0.3100 -0.7929  3.3305
 1668TIP3   OH226418   6.402   5.222   3.743  0.0971 -0.0225 -0.2051
 1668TIP3    H126419   6.463   5.293   3.766  2.3939 -0.6191 -3.5808
 1668TIP3    H226420   6.433   5.147   3.794 -0.5866  0.6795  1.2986
 1669TIP3   OH226421   4.607   1.522   2.111 -0.0802 -0.3431  0.5970
 1669TIP3    H126422   4.628   1.431   2.132  0.1760 -0.3113  0.4844
 1669TIP3    H226423   4.675   1.549   2.049  0.2469  0.1326  1.1492
 1670TIP3   OH226424   2.361   1.513   2.636 -0.1581  0.4579 -0.6881
 1670TIP3    H126425   2.455   1.515   2.656 -0.2870  2.2040 -0.0934
 1670TIP3    H226426   2.350   1.436   2.580  1.2542 -1.0560  0.9983
 1671TIP3   OH226427   5.992   4.933  10.517 -0.2088  0.5171 -0.1553
 1671TIP3    H126428   5.908   4.899  10.486  0.2118  0.0011 -0.7557
 1671TIP3    H226429   6.014   4.877  10.592  0.9145 -1.2037 -1.6825
 1672TIP3   OH226430   1.710   3.478   5.007  0.3468 -0.0581  0.3172
 1672TIP3    H126431   1.712   3.572   4.988  1.7262 -0.3216 -0.9834
 1672TIP3    H226432   1.618   3.461   5.030 -0.0441  1.4909  0.0711
 1673TIP3   OH226433   3.242   4.796  15.034 -0.3410  0.1841  0.6215
 1673TIP3    H126434   3.149   4.801  15.013 -1.1219 -2.0497  2.9936
 1673TIP3    H226435   3.263   4.703  15.027  2.4201  0.8691 -2.2077
 1674TIP3   OH226436   2.472   2.484   1.486  0.3184  1.0268  0.3551
 1674TIP3    H126437   2.557   2.513   1.519  0.8562 -0.0144 -0.0860
 1674TIP3    H226438   2.492   2.441   1.403 -0.1973 -2.2579  1.8052
 1675TIP3   OH226439   5.320   6.439  13.423  0.3888  0.2139 -0.2040
 1675TIP3    H126440   5.364   6.426  13.507 -0.4903 -0.0997  0.2236
 1675TIP3    H226441   5.374   6.392  13.360  1.8650  1.6514 -0.0806
 1676TIP3   OH226442   4.476   3.549   3.318 -0.0329  0.0421 -0.1885
 1676TIP3    H126443   4.474   3.465   3.364  0.9214  1.6312  3.0523
 1676TIP3    H226444   4.542   3.601   3.365  0.8895  1.9890 -3.3036
 1677TIP3   OH226445   5.985   1.783   4.515  0.1168  0.2059 -0.6794
 1677TIP3    H126446   5.933   1.863   4.513 -0.7265 -0.3437 -1.4044
 1677TIP3    H226447   5.974   1.749   4.604 -1.4471 -0.3237 -1.0434
 1678TIP3   OH226448   5.756   0.268  16.866  1.1078  0.2221 -0.5903
 1678TIP3    H126449   5.754   0.173  16.874 -0.4436  0.2990  0.4829
 1678TIP3    H226450   5.755   0.285  16.772  0.7343 -0.8302 -0.7844
 1679TIP3   OH226451   3.468   4.571   0.680 -0.0594 -0.4790 -0.1703
 1679TIP3    H126452   3.404   4.550   0.747 -0.5529 -1.0912 -0.8138
 1679TIP3    H226453   3.437   4.654   0.642  0.6694  0.3034  0.8808
 1680TIP3   OH226454   4.656   4.914   6.179 -0.0655 -0.1263  0.8338
 1680TIP3    H126455   4.740   4.950   6.209  1.4790 -1.8535 -1.1019
 1680TIP3    H226456   4.618   4.984   6.125  1.2173 -0.1000 -0.0736
 1681TIP3   OH226457   6.004   3.802  14.785 -0.3000  0.4393 -0.1299
 1681TIP3    H126458   6.025   3.850  14.705  0.3962 -0.9071 -0.7966
 1681TIP3    H226459   5.923   3.755  14.764  1.7874 -2.9266 -1.5364
 1682TIP3   OH226460   1.465   1.931  14.168  0.0408 -0.1672 -0.0182
 1682TIP3    H126461   1.460   1.909  14.261  1.8448  0.1278  0.1877
 1682TIP3    H226462   1.374   1.935  14.139 -0.5501 -0.3706  1.7077
 1683TIP3   OH226463   5.957   1.814  11.256 -0.2909  0.0083  0.0227
 1683TIP3    H126464   6.033   1.870  11.273 -0.3552  0.3195 -0.6951
 1683TIP3    H226465   5.963   1.793  11.163 -1.0240 -0.0505 -0.0180
 1684TIP3   OH226466   1.085   1.160   5.057 -0.0610  0.3136 -0.0909
 1684TIP3    H126467   1.026   1.108   5.002 -1.3961  0.3048  1.2859
 1684TIP3    H226468   1.096   1.242   5.009 -0.7586  0.1027 -0.6401
 1685TIP3   OH226469   0.885   3.397  11.202 -0.2965 -0.3365  0.5639
 1685TIP3    H126470   0.861   3.371  11.113  0.3473  0.6050  0.0933
 1685TIP3    H226471   0.807   3.443  11.235 -0.3868 -0.3228  0.3335
 1686TIP3   OH226472   6.192   2.340  16.477  0.0074  0.2408  0.1878
 1686TIP3    H126473   6.230   2.426  16.456  1.9518 -0.3881  0.9685
 1686TIP3    H226474   6.097   2.355  16.473  0.2598  1.8738 -1.8476
 1687TIP3   OH226475   0.411   5.937   3.000 -0.3878  0.7830 -0.0432
 1687TIP3    H126476   0.410   5.859   2.944  2.7328  0.2665  0.4335
 1687TIP3    H226477   0.402   5.903   3.088 -0.8339  1.1415  0.0488
 1688TIP3   OH226478   2.561   0.408  14.763 -0.7507  0.5942 -0.4784
 1688TIP3    H126479   2.630   0.474  14.762 -0.2975  0.3669  2.8147
 1688TIP3    H226480   2.486   0.451  14.722  0.1840  2.3578 -0.4280
 1689TIP3   OH226481   3.321   0.555  16.323 -0.7376  0.2634  0.1727
 1689TIP3    H126482   3.301   0.462  16.307  1.2620 -0.1114 -0.4818
 1689TIP3    H226483   3.326   0.562  16.418  0.1953 -0.5806  0.1986
 1690TIP3   OH226484   1.675   2.091  13.408 -0.0600 -0.2795  0.5855
 1690TIP3    H126485   1.619   2.029  13.361  0.8420 -0.7211  0.0632
 1690TIP3    H226486   1.729   2.035  13.465 -0.5352  0.1847  1.5170
 1691TIP3   OH226487   2.269   1.948  12.748  0.0358  0.7020  0.5222
 1691TIP3    H126488   2.233   1.906  12.827  0.6654 -1.0873 -0.1006
 1691TIP3    H226489   2.219   1.910  12.676  0.1480  1.5719 -0.0204
 1692TIP3   OH226490   2.624   3.402   5.404 -0.1043  0.3462  0.2170
 1692TIP3    H126491   2.598   3.412   5.496  2.3594 -0.1868  1.0398
 1692TIP3    H226492   2.675   3.481   5.385 -0.0486  0.1421 -0.4987
 1693TIP3   OH226493   5.730   4.688  13.154 -0.0817  0.0065 -0.2351
 1693TIP3    H126494   5.655   4.724  13.106 -0.1571 -0.6844 -0.6610
 1693TIP3    H226495   5.787   4.763  13.171 -0.6802  0.4700 -0.2676
 1694TIP3   OH226496   3.045   1.309  14.572  0.3804  0.6610 -0.5975
 1694TIP3    H126497   3.066   1.341  14.660  0.7257 -0.9880 -0.0393
 1694TIP3    H226498   2.949   1.309  14.569  0.3636  0.5813 -0.1600
 1695TIP3   OH226499   5.598   1.120  13.310  0.1823 -0.2606  0.1892
 1695TIP3    H126500   5.629   1.182  13.244 -0.7278 -1.3616 -1.3487
 1695TIP3    H226501   5.524   1.075  13.268 -0.7906 -0.6323  2.1821
 1696TIP3   OH226502   3.469   5.484  11.599  0.2425 -0.7666 -0.2514
 1696TIP3    H126503   3.436   5.459  11.513 -1.2680 -0.2530  0.1492
 1696TIP3    H226504   3.500   5.574  11.588 -1.2188 -0.1990  0.0261
 1697TIP3   OH226505   4.565   5.826  15.186 -0.2144  0.3267  0.0058
 1697TIP3    H126506   4.619   5.860  15.257 -1.5023  0.8599  0.7706
 1697TIP3    H226507   4.616   5.754  15.150  0.2858 -0.2926  1.8025
 1698TIP3   OH226508   4.893   1.618  13.670 -0.3837  0.3224  0.0856
 1698TIP3    H126509   4.902   1.562  13.747 -1.3978  1.8204  1.3627
 1698TIP3    H226510   4.800   1.613  13.648 -0.1752  0.2252 -0.7968
 1699TIP3   OH226511   0.472   5.624  12.603  0.2666  0.4988  0.7021
 1699TIP3    H126512   0.546   5.579  12.564 -0.6383 -1.5423  1.1915
 1699TIP3    H226513   0.509   5.677  12.673  1.4093  0.7684 -0.0907
 1700TIP3   OH226514   6.132   3.712  17.120  0.0401 -0.0114 -0.3546
 1700TIP3    H126515   6.217   3.755  17.134  0.5366 -1.4690  1.5910
 1700TIP3    H226516   6.077   3.780  17.082  0.8217  2.3739  2.3769
 1701TIP3   OH226517   2.013   6.568  16.024 -0.7579  0.3956 -0.1851
 1701TIP3    H126518   1.942   6.632  16.021 -0.2886  1.0577  1.3289
 1701TIP3    H226519   2.044   6.572  16.115  0.3299 -0.8478 -0.4716
 1702TIP3   OH226520   6.451   2.495   1.768  0.0697  0.6916 -0.5587
 1702TIP3    H126521   6.402   2.464   1.691  0.6763  0.2549 -0.7783
 1702TIP3    H226522   6.468   2.588   1.749 -3.3299  1.7681  0.9200
 1703TIP3   OH226523   3.242   1.393   0.711 -0.5403  0.1817  0.4212
 1703TIP3    H126524   3.224   1.338   0.635 -0.9804  1.1132 -0.1614
 1703TIP3    H226525   3.234   1.482   0.678  1.5912  0.6346  0.9986
 1704TIP3   OH226526   2.891   4.343   1.877  0.2653 -0.1914 -0.2838
 1704TIP3    H126527   2.947   4.346   1.800  0.7008 -0.4157  0.0210
 1704TIP3    H226528   2.802   4.351   1.842  0.4868  0.2233 -0.7634
 1705TIP3   OH226529   4.075   3.406  16.682  0.0689  0.1423  0.4449
 1705TIP3    H126530   4.145   3.415  16.617 -2.0603  1.0929 -1.9109
 1705TIP3    H226531   4.029   3.490  16.679 -1.1718 -0.4498  1.9085
 1706TIP3   OH226532   6.452   5.205  13.809 -0.4298 -0.5513  0.5457
 1706TIP3    H126533   6.391   5.264  13.765  0.7906  0.1635 -0.2601
 1706TIP3    H226534   6.409   5.182  13.891 -1.5314  0.3668  0.2509
 1707TIP3   OH226535   1.431   4.991  15.909 -0.2370 -0.4074 -0.0781
 1707TIP3    H126536   1.409   5.007  16.001  0.4571  1.9576 -0.2594
 1707TIP3    H226537   1.346   4.978  15.867 -0.7857  1.0851  0.4889
 1708TIP3   OH226538   3.441   0.581   3.675  0.2858 -0.1117 -0.0481
 1708TIP3    H126539   3.490   0.540   3.745  2.4603 -0.3518 -1.6184
 1708TIP3    H226540   3.459   0.527   3.598 -2.1539  0.0301 -0.8098
 1709TIP3   OH226541   1.001   2.649   0.896  0.3488  0.6794  0.2982
 1709TIP3    H126542   0.917   2.617   0.929 -0.0415  1.1351 -0.2367
 1709TIP3    H226543   0.977   2.711   0.827  1.1150  1.1725  0.4726
 1710TIP3   OH226544   6.555   1.201   1.009 -0.3614 -0.4129  0.4208
 1710TIP3    H126545   6.478   1.226   0.957  0.9748 -0.5123 -1.7064
 1710TIP3    H226546   6.528   1.119   1.053 -1.0678 -1.1670 -1.3309
 1711TIP3   OH226547   3.633   2.820  16.486 -0.2991 -0.6217 -0.5564
 1711TIP3    H126548   3.553   2.830  16.433 -1.0742 -1.8915  0.3281
 1711TIP3    H226549   3.688   2.760  16.435 -0.5542 -0.9280 -0.4771
 1712TIP3   OH226550   4.234   1.004  13.747  0.4957  0.1104 -0.4045
 1712TIP3    H126551   4.204   1.044  13.665 -0.2124 -0.2834 -0.3508
 1712TIP3    H226552   4.239   0.911  13.727  0.0741 -0.0174  0.0707
 1713TIP3   OH226553   3.766   1.290   1.519  0.0066 -0.2114 -0.4544
 1713TIP3    H126554   3.683   1.335   1.533  0.8034  0.8744  1.0516
 1713TIP3    H226555   3.824   1.357   1.484  1.1362 -0.0465  1.5613
 1714TIP3   OH226556   5.265   2.824  14.549 -0.0995 -0.2429 -0.0557
 1714TIP3    H126557   5.248   2.860  14.636 -1.3079 -1.6051  0.3151
 1714TIP3    H226558   5.207   2.748  14.543  0.1621 -0.3416 -1.9489
 1715TIP3   OH226559   5.078   6.433   6.012 -0.3762 -0.8688 -0.2192
 1715TIP3    H126560   5.130   6.378   6.070  0.0971 -0.1387  0.0616
 1715TIP3    H226561   5.132   6.446   5.934  1.0534  1.9506  1.0618
 1716TIP3   OH226562   4.726   3.933  11.490 -0.0809 -0.1592 -0.5443
 1716TIP3    H126563   4.684   3.924  11.576  0.2081 -0.3060 -0.4166
 1716TIP3    H226564   4.752   3.844  11.467  0.5626 -0.0080 -0.4141
 1717TIP3   OH226565   3.481   1.634   0.768  0.3731  0.0503 -0.1579
 1717TIP3    H126566   3.447   1.666   0.851  0.9230 -0.7917  0.4115
 1717TIP3    H226567   3.454   1.700   0.704  1.2210  1.5104  0.9122
 1718TIP3   OH226568   5.831   1.214  14.237  0.3063 -0.1196 -0.1141
 1718TIP3    H126569   5.848   1.271  14.161  0.8843  0.7192  0.6234
 1718TIP3    H226570   5.764   1.261  14.287 -3.1021 -2.5127 -2.0324
 1719TIP3   OH226571   1.041   2.175   2.520 -0.1151  0.4111  0.2443
 1719TIP3    H126572   1.033   2.219   2.605 -1.2114  1.2331 -0.2413
 1719TIP3    H226573   0.960   2.124   2.512  0.3119 -0.2258  0.0103
 1720TIP3   OH226574   1.140   6.035   1.464 -0.3758 -0.4922  0.3927
 1720TIP3    H126575   1.106   6.044   1.375 -0.1923 -1.1450  0.2558
 1720TIP3    H226576   1.182   6.120   1.483  3.0443 -1.5491 -1.6005
 1721TIP3   OH226577   0.357   4.886   0.261  0.1453  0.5373  0.0643
 1721TIP3    H126578   0.279   4.931   0.292 -1.3253 -1.2772 -0.8032
 1721TIP3    H226579   0.429   4.929   0.307 -1.5510  0.4821  3.0256
 1722TIP3   OH226580   3.384   6.180  14.018 -0.0841 -0.2622 -0.2389
 1722TIP3    H126581   3.446   6.135  14.075  1.6300  1.0460 -0.9651
 1722TIP3    H226582   3.353   6.113  13.958  0.4295 -1.0105  0.3130
 1723TIP3   OH226583   5.893   4.136  13.645 -0.4418 -0.1052  0.1571
 1723TIP3    H126584   5.972   4.087  13.667  1.0495  1.9557 -0.3654
 1723TIP3    H226585   5.908   4.168  13.556 -2.1688 -0.2294 -0.2139
 1724TIP3   OH226586   5.305   6.412   0.628  0.4860  0.9747  0.1300
 1724TIP3    H126587   5.352   6.484   0.585 -0.3533  1.7032  0.3818
 1724TIP3    H226588   5.363   6.337   0.620  0.9605  1.4341 -1.0448
 1725TIP3   OH226589   3.126   2.860  12.298 -0.0835 -0.3405  0.1009
 1725TIP3    H126590   3.062   2.790  12.286 -0.2313 -0.3099  0.6771
 1725TIP3    H226591   3.085   2.920  12.360 -0.3172  0.7217 -1.0629
 1726TIP3   OH226592   2.118   5.107  14.638  0.1704  0.1396 -0.2292
 1726TIP3    H126593   2.152   5.018  14.622 -0.7671 -0.7197  2.1600
 1726TIP3    H226594   2.029   5.104  14.604 -0.4353 -0.4023  1.3447
 1727TIP3   OH226595   5.007   5.706   3.973 -0.0717  0.0878  0.4584
 1727TIP3    H126596   5.066   5.632   3.989 -1.2367 -0.5711  1.9918
 1727TIP3    H226597   4.938   5.670   3.917 -0.5857  0.0239  1.1206
 1728TIP3   OH226598   2.645   5.736  14.876  0.1258 -0.0500 -0.1708
 1728TIP3    H126599   2.562   5.692  14.861 -0.7195  1.0592  1.0314
 1728TIP3    H226600   2.649   5.749  14.971  1.6192  0.0093 -0.2142
 1729TIP3   OH226601   6.669   5.986   3.077 -0.2659 -0.2823  0.1201
 1729TIP3    H126602   6.703   6.066   3.037 -0.5615 -0.1845  0.0605
 1729TIP3    H226603   6.747   5.937   3.104  0.1116 -1.7886 -3.2667
 1730TIP3   OH226604   1.942   3.099  14.132 -0.3021 -0.2051  0.4799
 1730TIP3    H126605   1.883   3.041  14.085  0.9652 -0.8703 -0.3271
 1730TIP3    H226606   1.917   3.089  14.224 -1.5689 -0.3026  0.1456
 1731TIP3   OH226607   0.927   1.490   4.794  0.0915 -0.1817  0.5123
 1731TIP3    H126608   0.944   1.395   4.799  0.2592 -0.2783 -1.4528
 1731TIP3    H226609   0.998   1.524   4.741 -0.6132  0.8862  0.2375
 1732TIP3   OH226610   2.257   3.919   0.072 -0.5410 -0.1346 -0.1153
 1732TIP3    H126611   2.237   4.013   0.071  0.4511  0.1204 -2.1366
 1732TIP3    H226612   2.316   3.907  -0.002  0.7970 -2.0763  1.1713
 1733TIP3   OH226613   1.126   1.858  13.447  0.3687 -0.2863  0.0460
 1733TIP3    H126614   1.198   1.798  13.429  0.1631 -0.7537  0.7273
 1733TIP3    H226615   1.110   1.903  13.364  1.2312 -0.4051 -0.1931
 1734TIP3   OH226616   4.895   1.640   1.157  0.4549 -0.0282  0.3188
 1734TIP3    H126617   4.940   1.562   1.189  2.2745  0.5049 -0.7731
 1734TIP3    H226618   4.824   1.607   1.102  0.5776 -0.9085  0.6850
 1735TIP3   OH226619   4.394   6.193  17.056 -0.3729 -0.5591 -0.4314
 1735TIP3    H126620   4.462   6.244  17.100 -2.5897  0.6617  1.7760
 1735TIP3    H226621   4.436   6.109  17.038  1.6300  0.0254  1.0961
 1736TIP3   OH226622   5.273   3.152  14.772  0.0762 -0.1017  0.3526
 1736TIP3    H126623   5.319   3.161  14.855  0.9136 -1.4267  0.0529
 1736TIP3    H226624   5.247   3.060  14.768 -0.8597  0.1776 -0.3897
 1737TIP3   OH226625   5.925   0.968   1.183 -0.1497  0.7140 -0.3030
 1737TIP3    H126626   5.963   1.016   1.256 -0.9282  3.1722 -1.4147
 1737TIP3    H226627   5.831   0.967   1.202 -0.2262  0.3287 -0.6884
 1738TIP3   OH226628   4.126   3.925   1.384 -0.9400  0.1562 -0.0575
 1738TIP3    H126629   4.105   4.015   1.362  0.9602  0.8590  0.7909
 1738TIP3    H226630   4.181   3.931   1.462  1.2577 -1.5584 -1.3679
 1739TIP3   OH226631   0.362   2.004  16.231  0.2465  0.1635 -0.0166
 1739TIP3    H126632   0.399   2.031  16.315 -0.1239 -1.0992  0.5741
 1739TIP3    H226633   0.289   1.947  16.254 -0.1625  0.1853 -1.2015
 1740TIP3   OH226634   1.135   4.095   5.862  0.2810 -0.4081  0.1391
 1740TIP3    H126635   1.148   4.096   5.956  0.2633 -0.9790  0.1465
 1740TIP3    H226636   1.090   4.178   5.843  1.4798  0.3272  0.4492
 1741TIP3   OH226637   0.785   4.902   2.238 -0.2063 -0.3414 -0.0788
 1741TIP3    H126638   0.699   4.882   2.273  0.3522 -1.0105  0.9867
 1741TIP3    H226639   0.769   4.935   2.150 -1.3962 -3.1473 -1.0202
 1742TIP3   OH226640   4.291   0.171  13.474 -0.3313 -0.0095 -0.1759
 1742TIP3    H126641   4.274   0.236  13.406 -0.2450 -0.7767 -0.9518
 1742TIP3    H226642   4.320   0.222  13.549 -1.9414  1.0109 -0.1832
 1743TIP3   OH226643   0.058   2.306  14.392 -0.0572  0.6033 -0.4121
 1743TIP3    H126644  -0.016   2.337  14.341  0.2688 -0.8739 -1.8880
 1743TIP3    H226645   0.021   2.242  14.453  0.0353 -0.5697 -1.5483
 1744TIP3   OH226646   5.903   2.414  13.119 -0.7698 -0.2175 -0.3440
 1744TIP3    H126647   5.973   2.464  13.161 -0.9090  0.1334 -0.5219
 1744TIP3    H226648   5.861   2.366  13.190 -0.0213 -0.8422 -0.3041
 1745TIP3   OH226649   5.280   0.063   1.127 -0.4532 -0.1636 -1.0397
 1745TIP3    H126650   5.346   0.130   1.142  0.0571 -0.3734 -2.2452
 1745TIP3    H226651   5.200   0.112   1.108 -0.6085  0.0899  0.2305
 1746TIP3   OH226652   5.556   0.279   2.221  0.1013  0.3523 -0.2168
 1746TIP3    H126653   5.465   0.248   2.222 -0.1645  1.0794  0.8031
 1746TIP3    H226654   5.585   0.267   2.131 -0.2469 -2.0096 -0.0707
 1747TIP3   OH226655   0.199   6.227   4.980 -0.5527  0.0689 -0.5709
 1747TIP3    H126656   0.111   6.262   4.967 -0.6762 -0.0928 -0.1766
 1747TIP3    H226657   0.254   6.304   4.991 -0.7211  0.1586 -0.3505
 1748TIP3   OH226658   5.506   3.111  14.171 -0.6493  0.2851  0.4284
 1748TIP3    H126659   5.574   3.172  14.143 -1.8220  1.0881 -0.7930
 1748TIP3    H226660   5.446   3.105  14.097 -2.7277  0.7960  1.9544
 1749TIP3   OH226661   3.412   6.050   5.049 -0.0144  0.1953  0.0311
 1749TIP3    H126662   3.503   6.021   5.055 -0.7321 -2.6999 -1.4118
 1749TIP3    H226663   3.374   5.993   4.982 -2.9845  1.1263  0.8169
 1750TIP3   OH226664   6.008   5.459  12.767  0.0543 -0.1962 -0.5198
 1750TIP3    H126665   5.968   5.409  12.696 -1.3585  0.8886 -0.5342
 1750TIP3    H226666   6.001   5.550  12.740 -0.8689  0.2785  1.1345
 1751TIP3   OH226667   1.811   6.290  10.694  0.2342 -0.2883 -0.0820
 1751TIP3    H126668   1.849   6.370  10.659  0.8483 -0.0045  1.1608
 1751TIP3    H226669   1.741   6.320  10.752  2.4995 -0.3587  2.9459
 1752TIP3   OH226670   2.161   6.408   3.622  0.4891 -0.6979  0.1490
 1752TIP3    H126671   2.229   6.382   3.561 -0.8231 -1.1662 -1.1895
 1752TIP3    H226672   2.145   6.501   3.603  1.0248 -0.4729  0.7577
 1753TIP3   OH226673   0.292   6.365   0.129  0.7585  0.0336  0.2299
 1753TIP3    H126674   0.345   6.290   0.104  0.7437  0.3096 -0.6628
 1753TIP3    H226675   0.208   6.352   0.084  0.2159 -0.1665  1.2608
 1754TIP3   OH226676   0.288   1.850   2.635 -0.4652  0.2986 -0.3534
 1754TIP3    H126677   0.299   1.810   2.549 -2.4559  0.0686 -0.5455
 1754TIP3    H226678   0.201   1.891   2.632 -0.6037  0.2585  1.5559
 1755TIP3   OH226679   5.613   1.312  13.126  0.2005  0.0891  0.3962
 1755TIP3    H126680   5.557   1.310  13.048 -0.6811 -1.0801  1.0221
 1755TIP3    H226681   5.573   1.378  13.182 -0.8946 -1.0697  1.0417
 1756TIP3   OH226682   2.187   0.102  11.326 -0.1244  0.3945 -0.5011
 1756TIP3    H126683   2.265   0.102  11.382 -1.2250  0.0762  1.1187
 1756TIP3    H226684   2.211   0.155  11.251  1.7508  0.0396 -0.2029
 1757TIP3   OH226685   4.065   3.729   4.548 -0.5450 -0.3417 -0.0154
 1757TIP3    H126686   3.991   3.789   4.560 -1.8807 -1.8769 -0.2965
 1757TIP3    H226687   4.107   3.760   4.468  0.2503  1.6489  1.1085
 1758TIP3   OH226688   0.620   6.598   3.036 -0.4242 -0.4298 -0.0769
 1758TIP3    H126689   0.566   6.575   3.112 -0.7004  2.6908  0.8131
 1758TIP3    H226690   0.706   6.618   3.073 -0.2043 -0.0946 -0.7481
 1759TIP3   OH226691   1.015   1.556  12.244  0.4307 -0.1509 -0.3507
 1759TIP3    H126692   0.923   1.569  12.219 -0.3680 -0.7403  1.9434
 1759TIP3    H226693   1.058   1.638  12.220 -0.1878 -0.5827 -3.3022
 1760TIP3   OH226694   0.974   2.484  11.126 -0.1484 -0.7297  0.2103
 1760TIP3    H126695   0.931   2.521  11.049  2.4834 -0.7672 -1.4132
 1760TIP3    H226696   0.984   2.391  11.106  1.4393 -0.5676  0.0596
 1761TIP3   OH226697   4.545   1.634  12.609 -0.6023  0.4111 -0.3804
 1761TIP3    H126698   4.476   1.697  12.589 -2.1148 -1.0923 -0.1036
 1761TIP3    H226699   4.528   1.607  12.699  0.2909 -0.0831 -0.3475
 1762TIP3   OH226700   0.608   5.704   5.516 -0.2374  0.4283  0.1179
 1762TIP3    H126701   0.633   5.705   5.423 -1.8605 -0.0864 -0.3524
 1762TIP3    H226702   0.580   5.614   5.532 -0.9580  0.7728  0.8369
 1763TIP3   OH226703   2.865   4.149  16.213  0.6101  0.5316 -0.5042
 1763TIP3    H126704   2.915   4.161  16.133 -0.0708  1.0492 -0.8653
 1763TIP3    H226705   2.775   4.134  16.183  0.5268 -0.3420  0.1273
 1764TIP3   OH226706   5.253   0.632   5.557 -0.2247 -0.0816 -0.1362
 1764TIP3    H126707   5.327   0.579   5.526 -1.3954 -3.2067  1.9104
 1764TIP3    H226708   5.272   0.648   5.650 -2.5887 -2.1089  0.8038
 1765TIP3   OH226709   4.183   1.883   1.754 -0.0681  0.0379 -0.1699
 1765TIP3    H126710   4.141   1.796   1.752  1.0407 -0.5453  0.7868
 1765TIP3    H226711   4.229   1.889   1.670  0.4622 -0.6199  0.0674
 1766TIP3   OH226712   0.705   6.501   5.260 -0.0125 -0.7107 -0.2213
 1766TIP3    H126713   0.671   6.482   5.172  0.5320 -1.8487 -0.2053
 1766TIP3    H226714   0.703   6.417   5.305  2.5022 -0.7991 -0.1170
 1767TIP3   OH226715   1.081   5.097   0.889 -1.1395 -0.1736 -0.3576
 1767TIP3    H126716   1.025   5.021   0.904 -4.0623  1.8037 -0.4279
 1767TIP3    H226717   1.022   5.164   0.855  0.9438  2.6106  1.0739
 1768TIP3   OH226718   0.718   0.309  15.796  0.1926 -0.3937 -0.3761
 1768TIP3    H126719   0.637   0.327  15.749 -0.9944  1.8383  2.2401
 1768TIP3    H226720   0.691   0.257  15.872  1.2247  0.1216  0.3714
 1769TIP3   OH226721   2.626   4.766  14.098  0.2131 -0.2967 -0.5454
 1769TIP3    H126722   2.642   4.840  14.157 -0.7988 -0.9605  0.6236
 1769TIP3    H226723   2.673   4.788  14.018 -0.3204  1.7517 -0.3469
 1770TIP3   OH226724   1.183   3.913   2.350 -0.2570  0.4138 -0.1316
 1770TIP3    H126725   1.274   3.899   2.377 -0.3263 -1.0734 -0.5347
 1770TIP3    H226726   1.174   3.862   2.270 -1.5737  0.1189  0.1697
 1771TIP3   OH226727   1.263   5.227  11.019  0.2046 -0.0599 -0.1075
 1771TIP3    H126728   1.209   5.257  11.092  1.7849  1.4601  0.5201
 1771TIP3    H226729   1.214   5.252  10.940 -0.5136  0.2802  0.4422
 1772TIP3   OH226730   1.265   3.103   0.592  0.5377 -0.5172 -0.3438
 1772TIP3    H126731   1.350   3.102   0.550  0.5791 -0.1098 -0.2782
 1772TIP3    H226732   1.209   3.050   0.535  0.9333 -1.1321 -0.1663
 1773TIP3   OH226733   5.716   2.411   0.576 -0.0726  0.6775  0.7367
 1773TIP3    H126734   5.783   2.477   0.556  2.4035 -1.5700  1.1404
 1773TIP3    H226735   5.679   2.389   0.490  2.1312 -0.3946 -0.0350
 1774TIP3   OH226736   4.332   3.759  16.672  0.0481 -0.3931 -0.2273
 1774TIP3    H126737   4.404   3.809  16.710  0.0500  0.6387 -1.5296
 1774TIP3    H226738   4.258   3.819  16.672 -0.6599 -1.2408  0.5214
 1775TIP3   OH226739   2.880   5.332   2.168 -0.2915  0.2782  0.2981
 1775TIP3    H126740   2.865   5.319   2.075  0.7679 -1.9095  0.3638
 1775TIP3    H226741   2.971   5.361   2.175  0.6015 -2.2749  0.6967
 1776TIP3   OH226742   1.612   3.828  11.395 -0.4372 -0.5885  0.5313
 1776TIP3    H126743   1.645   3.851  11.482  0.2902 -0.5340  0.2494
 1776TIP3    H226744   1.691   3.816  11.342 -0.8695 -0.8323 -0.0692
 1777TIP3   OH226745   2.802   1.208  11.190 -0.1466 -0.1773  0.1994
 1777TIP3    H126746   2.718   1.240  11.156 -1.0088 -1.2782  1.1875
 1777TIP3    H226747   2.834   1.148  11.123  0.6357  1.3880 -0.8799
 1778TIP3   OH226748   5.987   0.864  14.758 -0.0084  0.4326  0.4142
 1778TIP3    H126749   5.984   0.954  14.790 -2.3273 -0.3607  2.7824
 1778TIP3    H226750   6.031   0.870  14.673  0.0756  3.7399  0.5723
 1779TIP3   OH226751   5.604   1.194  11.421  0.1544  0.7364 -0.2206
 1779TIP3    H126752   5.610   1.203  11.516 -0.0274 -0.4968 -0.0724
 1779TIP3    H226753   5.521   1.149  11.406  0.0533  1.1552 -0.9860
 1780TIP3   OH226754   0.413   6.676  12.944 -0.0058  0.2509 -0.5277
 1780TIP3    H126755   0.372   6.608  12.891  0.6251 -0.6285  0.0862
 1780TIP3    H226756   0.467   6.628  13.007  1.4020  1.3482 -0.8506
 1781TIP3   OH226757   2.887   5.498   6.452  0.2109  0.2348 -0.7801
 1781TIP3    H126758   2.981   5.485   6.462  0.4672  1.5693 -1.3390
 1781TIP3    H226759   2.876   5.593   6.445 -1.3999  0.2999  1.4537
 1782TIP3   OH226760   3.228   3.722   4.282  0.6913 -0.2665 -0.4010
 1782TIP3    H126761   3.133   3.726   4.276  0.7247 -1.1375 -2.5591
 1782TIP3    H226762   3.246   3.687   4.370 -0.9133  0.7308  0.3528
 1783TIP3   OH226763   0.943   3.961  14.048  0.4063  0.1410 -0.9989
 1783TIP3    H126764   0.859   3.943  14.005 -0.4271  1.7670 -0.1285
 1783TIP3    H226765   0.928   3.940  14.140  1.3454 -0.7012 -1.0264
 1784TIP3   OH226766   1.141   2.705  16.212  0.0883  0.1141 -0.3272
 1784TIP3    H126767   1.231   2.682  16.188  0.3524  0.5550  0.2216
 1784TIP3    H226768   1.141   2.702  16.308 -0.7518 -0.9001 -0.3370
 1785TIP3   OH226769   4.529   2.944   0.070 -0.7790  0.5411 -0.0827
 1785TIP3    H126770   4.555   2.957  -0.022 -1.4111 -0.1813 -0.3777
 1785TIP3    H226771   4.612   2.944   0.118 -0.3409 -0.1918 -0.8032
 1786TIP3   OH226772   5.882   6.569   2.625  0.0914 -0.3412 -0.0032
 1786TIP3    H126773   5.824   6.645   2.628  1.9897  1.1743  0.8490
 1786TIP3    H226774   5.885   6.545   2.532 -1.2202  0.0750 -0.1726
 1787TIP3   OH226775   4.529   4.461   4.881  0.0696 -0.1936 -0.2158
 1787TIP3    H126776   4.610   4.410   4.872  1.6977  1.7799  2.1715
 1787TIP3    H226777   4.557   4.552   4.876 -2.4623  0.5976 -2.1885
 1788TIP3   OH226778   1.963   2.335  15.592 -0.1513 -0.1982 -0.0382
 1788TIP3    H126779   2.051   2.327  15.554 -0.5171 -1.0432 -0.7650
 1788TIP3    H226780   1.935   2.423  15.569  0.4287  0.0114  0.0314
 1789TIP3   OH226781   2.633   5.801   5.925 -0.3207  0.1086  0.3490
 1789TIP3    H126782   2.675   5.886   5.935  0.4186  0.2255 -2.7257
 1789TIP3    H226783   2.678   5.744   5.988  0.4251  1.5550  1.1653
 1790TIP3   OH226784   1.458   3.834  12.824  0.3389 -0.4853 -0.0559
 1790TIP3    H126785   1.533   3.818  12.881  0.6793  1.7127  0.1788
 1790TIP3    H226786   1.382   3.822  12.880  0.6383  0.5982  0.6007
 1791TIP3   OH226787   1.875   3.222   4.005 -0.1335 -0.0506  0.9109
 1791TIP3    H126788   1.877   3.130   3.982  1.5273 -0.2433  1.6409
 1791TIP3    H226789   1.862   3.223   4.100  1.1816  0.3800  1.1115
 1792TIP3   OH226790   1.583   4.691  12.012 -0.2024  0.3985  0.0147
 1792TIP3    H126791   1.657   4.701  11.952  0.4294 -0.7344  0.5669
 1792TIP3    H226792   1.507   4.685  11.955  0.1104  1.6764 -0.5627
 1793TIP3   OH226793   5.421   5.765   4.601 -0.4336 -0.2353  0.2285
 1793TIP3    H126794   5.354   5.742   4.665 -1.3229  0.2231 -0.5158
 1793TIP3    H226795   5.397   5.853   4.572 -0.4009 -0.6576 -1.1579
 1794TIP3   OH226796   3.832   2.219   3.407  0.0560 -0.0205 -0.1139
 1794TIP3    H126797   3.768   2.266   3.353 -0.0429 -0.0772 -0.0449
 1794TIP3    H226798   3.781   2.181   3.478  0.2990  0.6863  0.4420
 1795TIP3   OH226799   3.057   4.765  16.222  0.3339 -0.0250 -0.1093
 1795TIP3    H126800   3.070   4.851  16.184  0.3878 -0.2111 -0.5140
 1795TIP3    H226801   2.999   4.781  16.297 -0.4528  0.2285 -0.7572
 1796TIP3   OH226802   2.620   5.313  15.532  0.2539  0.0435 -0.0551
 1796TIP3    H126803   2.567   5.296  15.610 -1.9764  0.0563 -1.4520
 1796TIP3    H226804   2.651   5.403  15.542 -1.4207  0.6389  0.0996
 1797TIP3   OH226805   1.283   3.541   5.785  0.1458 -0.1283 -0.3381
 1797TIP3    H126806   1.343   3.490   5.730  0.1466  0.7866 -1.2108
 1797TIP3    H226807   1.270   3.486   5.863  1.0579 -0.9343 -0.7269
 1798TIP3   OH226808   0.698   4.241  13.777  0.0706  0.0045  0.2778
 1798TIP3    H126809   0.621   4.193  13.746 -0.3450  1.6644 -1.4321
 1798TIP3    H226810   0.772   4.198  13.733 -0.3408  1.1403 -1.6377
 1799TIP3   OH226811   5.882   1.295   3.172 -0.4819 -0.0464  0.1641
 1799TIP3    H126812   5.856   1.267   3.260 -0.9399  1.5491  0.5632
 1799TIP3    H226813   5.805   1.340   3.137 -1.0029 -2.3221 -1.8659
 1800TIP3   OH226814   1.144   0.764  12.109 -0.0112  0.1017  0.4051
 1800TIP3    H126815   1.163   0.850  12.071  0.2510 -0.1352 -0.0060
 1800TIP3    H226816   1.171   0.702  12.041  0.3272 -0.3204  0.9261
 1801TIP3   OH226817   3.769   2.277   0.539 -0.1284  0.0585 -0.7288
 1801TIP3    H126818   3.688   2.275   0.590  0.1105  1.3394 -0.2506
 1801TIP3    H226819   3.770   2.365   0.500  0.1768 -0.5554 -2.1670
 1802TIP3   OH226820   5.835   5.395  16.814  0.2509 -0.4142  0.1478
 1802TIP3    H126821   5.838   5.405  16.909 -1.4623  0.1886  0.1776
 1802TIP3    H226822   5.851   5.484  16.781  1.0470 -0.6591 -0.1570
 1803TIP3   OH226823   2.977   1.530   3.842  0.1504  0.7398  0.4044
 1803TIP3    H126824   3.018   1.605   3.885 -0.4760  0.7465  0.9913
 1803TIP3    H226825   3.020   1.454   3.881 -0.9847  0.7134  1.6729
 1804TIP3   OH226826   6.746   4.531  14.083  0.0081  0.7843  0.2903
 1804TIP3    H126827   6.837   4.523  14.112  0.3072  0.2454 -0.7240
 1804TIP3    H226828   6.752   4.533  13.987 -1.1444 -0.6313  0.1644
 1805TIP3   OH226829   1.041   1.599   0.956  0.6189 -0.0212 -0.0330
 1805TIP3    H126830   1.014   1.690   0.940 -1.2843 -0.4274  0.6528
 1805TIP3    H226831   1.039   1.558   0.870 -0.0714  0.1956 -0.1210
 1806TIP3   OH226832   4.421   3.669   4.386  0.1173  0.2273  0.8137
 1806TIP3    H126833   4.338   3.626   4.365  0.5262 -0.3751  0.3926
 1806TIP3    H226834   4.430   3.738   4.320 -0.0468  0.2993  0.8656
 1807TIP3   OH226835   2.243   3.649  11.896 -0.2731  0.0518 -0.2787
 1807TIP3    H126836   2.297   3.719  11.860 -0.3388  0.7618  0.9764
 1807TIP3    H226837   2.223   3.593  11.820  1.8458 -0.0034 -0.8509
 1808TIP3   OH226838   2.201   0.242  11.088  0.4104 -0.1292  0.1664
 1808TIP3    H126839   2.233   0.280  11.006 -1.6503  0.9186 -0.2244
 1808TIP3    H226840   2.123   0.193  11.063 -0.4900  0.5489  1.5439
 1809TIP3   OH226841   4.037   4.035  14.856  0.6572  0.3803  0.1537
 1809TIP3    H126842   4.119   4.079  14.830  0.8302 -0.5937 -1.0555
 1809TIP3    H226843   4.025   4.059  14.948  2.7747 -0.1616  0.6187
 1810TIP3   OH226844   3.617   2.287   5.540  0.6260  0.0143  0.0759
 1810TIP3    H126845   3.607   2.348   5.467 -0.5734  0.0685  0.2753
 1810TIP3    H226846   3.557   2.215   5.521  0.2474  0.0586  1.0322
 1811TIP3   OH226847   5.632   0.297   3.926  0.8179  0.4556  0.0603
 1811TIP3    H126848   5.714   0.249   3.917  0.0702 -0.9150  0.1958
 1811TIP3    H226849   5.656   0.389   3.918  2.1769  0.0207 -1.2329
 1812TIP3   OH226850   3.016   6.399  13.806  0.3214  0.1385 -0.1424
 1812TIP3    H126851   2.926   6.411  13.778  0.3124 -0.6671 -0.4781
 1812TIP3    H226852   3.030   6.305  13.804  2.1659  0.3635 -3.2811
 1813TIP3   OH226853   5.225   5.841   2.843  0.8684 -0.6987 -0.1644
 1813TIP3    H126854   5.155   5.878   2.897  0.8707 -0.2244 -0.4880
 1813TIP3    H226855   5.197   5.751   2.827  0.8833 -0.8529  0.6494
 1814TIP3   OH226856   1.225   4.395   0.810  0.1939  0.4788 -0.6704
 1814TIP3    H126857   1.157   4.441   0.761 -1.3872  0.6051  1.5213
 1814TIP3    H226858   1.284   4.464   0.842 -1.6506  1.0294  1.8207
 1815TIP3   OH226859   5.727   5.096  17.100  0.0001  0.1368 -0.8906
 1815TIP3    H126860   5.726   5.102  17.005 -1.3413  1.9897 -0.8081
 1815TIP3    H226861   5.650   5.146  17.129  0.3482 -0.4069  1.1601
 1816TIP3   OH226862   3.569   3.589   3.373 -0.4703  0.1452  0.5920
 1816TIP3    H126863   3.529   3.533   3.439  1.4891  0.6519  2.3190
 1816TIP3    H226864   3.610   3.660   3.423  0.8315  0.7251 -1.1802
 1817TIP3   OH226865   4.535   5.993  16.975 -0.0808  0.4180 -0.2335
 1817TIP3    H126866   4.477   5.923  16.946 -0.9440  1.5651 -1.3992
 1817TIP3    H226867   4.612   5.948  17.009 -0.9482 -1.0999 -0.2046
 1818TIP3   OH226868   0.838   1.889  15.431 -0.6756  0.4247 -0.0814
 1818TIP3    H126869   0.789   1.841  15.498 -0.2853 -1.3563 -0.9960
 1818TIP3    H226870   0.817   1.843  15.349  1.8351  0.1191 -0.6274
 1819TIP3   OH226871   6.019   4.014  16.359 -0.1904 -0.4292 -0.1816
 1819TIP3    H126872   5.926   4.009  16.339 -0.6608 -3.2118  2.1048
 1819TIP3    H226873   6.022   4.030  16.453  1.6335 -1.1044 -0.0891
 1820TIP3   OH226874   1.806   6.152   4.313  0.5684 -0.0344 -0.4858
 1820TIP3    H126875   1.786   6.066   4.276  2.4249 -0.9671  0.4893
 1820TIP3    H226876   1.768   6.150   4.401  2.3699 -0.7362  0.3286
 1821TIP3   OH226877   2.018   6.035   0.705 -0.2982  0.2852  0.0302
 1821TIP3    H126878   2.006   6.052   0.799  0.4024  1.7063 -0.1094
 1821TIP3    H226879   2.112   6.019   0.696 -0.3815  0.0298 -0.4167
 1822TIP3   OH226880   1.839   5.305   4.271  0.1829  0.1418 -0.1574
 1822TIP3    H126881   1.812   5.292   4.362  1.1312 -0.5289  0.0447
 1822TIP3    H226882   1.909   5.370   4.276  0.4524 -0.1300 -0.3669
 1823TIP3   OH226883   6.019   4.857   4.180 -0.0703  0.4555 -0.9586
 1823TIP3    H126884   5.942   4.802   4.191 -0.8416  1.9564  2.3512
 1823TIP3    H226885   6.004   4.904   4.098 -1.4423 -1.0708 -1.6326
 1824TIP3   OH226886   6.643   5.296  11.106 -0.5585 -0.0090  0.2569
 1824TIP3    H126887   6.567   5.323  11.157  0.0453  1.4092  0.4612
 1824TIP3    H226888   6.718   5.320  11.160  0.0571  0.2127 -0.6787
 1825TIP3   OH226889   4.979   0.624   0.863 -0.2101 -0.1680 -0.0673
 1825TIP3    H126890   5.048   0.590   0.920  1.5069  0.1105 -1.8646
 1825TIP3    H226891   4.950   0.547   0.813  0.7067  0.1972 -1.1836
 1826TIP3   OH226892   4.434   1.393   3.735  0.0994 -0.1788 -0.0681
 1826TIP3    H126893   4.509   1.334   3.732  0.5587  0.4094 -2.2140
 1826TIP3    H226894   4.463   1.467   3.787  0.7746 -0.2712 -0.3005
 1827TIP3   OH226895   2.853   5.982   1.467  0.2172  0.1856  0.0462
 1827TIP3    H126896   2.921   6.033   1.511  1.5338 -1.3136 -0.1454
 1827TIP3    H226897   2.795   5.954   1.537 -0.5467  1.8852  0.1537
 1828TIP3   OH226898   1.896   3.786   5.162  0.2369  0.4703 -0.2219
 1828TIP3    H126899   1.876   3.837   5.240 -0.3401  0.1167 -0.1395
 1828TIP3    H226900   1.987   3.808   5.142  0.2277  0.9516  0.2503
 1829TIP3   OH226901   3.922   1.111  14.556  0.1237  0.3091 -0.1833
 1829TIP3    H126902   3.985   1.140  14.621  1.3931  0.9509 -1.6378
 1829TIP3    H226903   3.868   1.188  14.539 -1.4428 -0.3609  1.3970
 1830TIP3   OH226904   2.030   5.122  16.377  0.6376  0.0718 -0.0356
 1830TIP3    H126905   2.090   5.066  16.327  0.3157 -0.3162  0.0019
 1830TIP3    H226906   1.976   5.164  16.311  1.0490  0.5360 -0.0756
 1831TIP3   OH226907   4.574   0.145  16.619 -0.1471 -0.2348 -0.3270
 1831TIP3    H126908   4.549   0.206  16.688  0.6883 -0.0232 -0.1963
 1831TIP3    H226909   4.670   0.144  16.622 -0.0758  0.0624 -1.7128
 1832TIP3   OH226910   1.010   2.837  15.947  0.5384  0.3857  0.4387
 1832TIP3    H126911   0.998   2.900  16.018 -2.9514  0.0287  0.3390
 1832TIP3    H226912   0.926   2.793  15.939  2.2466 -3.0280 -0.7674
 1833TIP3   OH226913   6.347   0.034  14.845 -0.0499 -0.4343 -0.6894
 1833TIP3    H126914   6.382   0.054  14.758 -0.6471 -0.5894 -0.9717
 1833TIP3    H226915   6.386   0.100  14.903  0.9830 -0.8259 -0.9258
 1834TIP3   OH226916   2.193   1.225  13.527  0.0625  0.0765 -0.7230
 1834TIP3    H126917   2.264   1.193  13.583 -0.5302  0.2576  0.1467
 1834TIP3    H226918   2.237   1.265  13.453  0.8854  0.6083  0.0391
 1835TIP3   OH226919   6.189   5.119  12.814 -0.4231 -0.5638  0.5604
 1835TIP3    H126920   6.117   5.086  12.761  1.8841 -0.1559 -3.2114
 1835TIP3    H226921   6.265   5.068  12.786  1.1289  0.0305  3.2434
 1836TIP3   OH226922   6.327   3.177   0.883  0.2896  0.0048  0.1184
 1836TIP3    H126923   6.376   3.202   0.962  2.3102 -1.7576 -0.4817
 1836TIP3    H226924   6.393   3.139   0.825 -1.0600  1.5199 -2.6025
 1837TIP3   OH226925   5.659   4.256  11.339 -0.6711  0.2283  0.7993
 1837TIP3    H126926   5.735   4.201  11.358 -0.1341  0.9406  0.7217
 1837TIP3    H226927   5.614   4.211  11.268  0.4705  0.5455 -0.1503
 1838TIP3   OH226928   3.266   0.020  16.699  0.1427 -0.1548 -0.1570
 1838TIP3    H126929   3.201   0.036  16.630 -2.5970 -0.7090  2.1120
 1838TIP3    H226930   3.269   0.101  16.749  2.8419  0.5908 -1.3539
 1839TIP3   OH226931   1.573   6.152   6.482  0.6348  0.1934 -0.3030
 1839TIP3    H126932   1.485   6.133   6.450  0.2721 -0.1732  0.8632
 1839TIP3    H226933   1.631   6.101   6.425 -0.0916 -1.5768  0.4559
 1840TIP3   OH226934   2.569   6.071   0.599 -0.2013 -0.3440 -0.7963
 1840TIP3    H126935   2.660   6.072   0.627 -0.4477  0.0195  0.0188
 1840TIP3    H226936   2.552   6.162   0.572  0.1329 -0.7607 -2.4867
 1841TIP3   OH226937   5.975   6.148  11.610 -0.1291 -0.1815 -0.0069
 1841TIP3    H126938   5.938   6.187  11.531  0.1272  1.3365  0.5875
 1841TIP3    H226939   6.022   6.071  11.579  0.6392  0.8180 -1.4519
 1842TIP3   OH226940   2.570   3.368   5.710  0.2025  0.4563  0.1599
 1842TIP3    H126941   2.578   3.452   5.756  1.4977 -0.0874  0.9596
 1842TIP3    H226942   2.509   3.317   5.765 -3.0967  1.8423 -1.8774
 1843TIP3   OH226943   3.169   1.708   1.779  0.0582 -0.5195 -0.4780
 1843TIP3    H126944   3.181   1.737   1.870  0.2377 -1.3553 -0.2321
 1843TIP3    H226945   3.253   1.670   1.755 -0.2233 -0.9714 -0.7503
 1844TIP3   OH226946   3.534   1.978   1.402  0.0625 -0.7939  0.0198
 1844TIP3    H126947   3.480   1.916   1.353 -0.0342 -0.7388  0.0564
 1844TIP3    H226948   3.511   1.962   1.493  0.0873 -0.7512  0.0334
 1845TIP3   OH226949   4.849   4.404   5.759  0.1536  0.5015 -0.6359
 1845TIP3    H126950   4.821   4.495   5.772  0.9502  0.8505 -1.2453
 1845TIP3    H226951   4.786   4.368   5.696 -1.2871  0.0357  1.0023
 1846TIP3   OH226952   4.352   0.193   2.695 -0.4568 -0.1957 -0.1693
 1846TIP3    H126953   4.429   0.137   2.708 -0.3609  0.5009  3.1653
 1846TIP3    H226954   4.322   0.172   2.606  1.6747 -2.8309 -0.4073
 1847TIP3   OH226955   2.469   4.705   5.381 -0.5279 -0.1445 -0.8544
 1847TIP3    H126956   2.520   4.785   5.392 -1.3325  0.3238 -0.3624
 1847TIP3    H226957   2.487   4.654   5.459  2.0687 -1.7037 -2.3568
 1848TIP3   OH226958   3.045   3.241   3.570 -0.1664  0.1799 -0.2778
 1848TIP3    H126959   3.083   3.193   3.496  0.0626  0.4515 -0.3381
 1848TIP3    H226960   2.981   3.300   3.530  1.1484  1.5620 -0.4698
 1849TIP3   OH226961   3.058   3.174   5.465 -0.2394  0.8409  0.0488
 1849TIP3    H126962   3.036   3.088   5.501  1.6616  1.1704  2.2230
 1849TIP3    H226963   3.154   3.178   5.470  0.1343  1.4528 -4.0859
 1850TIP3   OH226964   4.198   5.205   4.797  0.1911 -0.7096  0.2559
 1850TIP3    H126965   4.255   5.213   4.720 -0.1416  0.1914  0.0884
 1850TIP3    H226966   4.178   5.112   4.802  0.3706 -0.8130 -0.6487
 1851TIP3   OH226967   1.875   1.808   4.358  0.0078  0.1949  0.2478
 1851TIP3    H126968   1.852   1.843   4.272 -0.9491  0.5112  0.6206
 1851TIP3    H226969   1.964   1.839   4.373  0.6085 -0.7541 -1.0806
 1852TIP3   OH226970   1.303   1.811   2.678 -0.2772 -0.3285  0.3686
 1852TIP3    H126971   1.363   1.849   2.615 -0.0246 -0.8001  0.3173
 1852TIP3    H226972   1.236   1.767   2.624 -1.1872  0.9552  0.4107
 1853TIP3   OH226973   2.266   4.072   5.408 -0.3907  0.0323  0.4569
 1853TIP3    H126974   2.322   4.018   5.463 -0.5842  0.2305  0.8513
 1853TIP3    H226975   2.191   4.094   5.464  0.1997  1.6351  0.6761
 1854TIP3   OH226976   6.636   3.850   1.776  0.1992  0.2834 -0.1003
 1854TIP3    H126977   6.693   3.917   1.815  1.6970 -1.3164  0.6236
 1854TIP3    H226978   6.692   3.805   1.713 -0.5830 -0.6993 -0.1168
 1855TIP3   OH226979   1.430   3.489  16.253 -0.1384 -0.6333 -0.1190
 1855TIP3    H126980   1.475   3.547  16.192 -1.6930  1.6205  0.7487
 1855TIP3    H226981   1.500   3.455  16.310  1.0982 -1.5168 -2.0804
 1856TIP3   OH226982   0.877   3.664  15.836 -0.2530 -0.1968 -0.3370
 1856TIP3    H126983   0.873   3.638  15.928  0.6244  0.8755  0.0250
 1856TIP3    H226984   0.829   3.596  15.789 -0.5268 -0.8650  0.8908
 1857TIP3   OH226985   1.592   5.425   5.551 -0.8136  0.3657 -0.1122
 1857TIP3    H126986   1.596   5.335   5.582 -1.4394  0.6376  0.7955
 1857TIP3    H226987   1.524   5.424   5.483 -0.1190 -0.0333 -0.8199
 1858TIP3   OH226988   2.552   4.052  16.778  0.0337 -0.5872 -0.6985
 1858TIP3    H126989   2.617   4.040  16.710  1.7830  0.2330  0.7367
 1858TIP3    H226990   2.511   4.136  16.758  1.9488  0.6550  0.2723
 1859TIP3   OH226991   6.308   6.321  13.024 -0.2246 -0.2695 -0.0841
 1859TIP3    H126992   6.329   6.403  13.069 -0.4812 -0.3855  0.2532
 1859TIP3    H226993   6.391   6.275  13.016 -0.0385  0.1384 -0.5064
 1860TIP3   OH226994   5.222   4.324  13.135  0.0698  0.0090  0.5458
 1860TIP3    H126995   5.269   4.359  13.210 -2.0267 -0.9866  2.4689
 1860TIP3    H226996   5.251   4.233  13.129  0.1176  0.0433  0.2668
 1861TIP3   OH226997   5.135   0.337  13.518 -0.4629  0.4561 -0.4148
 1861TIP3    H126998   5.085   0.291  13.450  1.4687  1.0726 -2.3818
 1861TIP3    H226999   5.172   0.267  13.572  0.7216 -0.2908 -2.0934
 1862TIP3   OH227000   2.076   6.748   5.985  0.2087 -0.5272 -0.5789
 1862TIP3    H127001   2.155   6.766   6.036 -1.0746 -0.3878  1.4836
 1862TIP3    H227002   2.051   6.659   6.011 -0.5037 -0.4370 -0.9552
 1863TIP3   OH227003   1.366   4.783   1.448 -0.0899 -0.1916 -0.0017
 1863TIP3    H127004   1.371   4.877   1.434  3.7816  0.0556  1.7014
 1863TIP3    H227005   1.319   4.774   1.531  0.7159  0.3920  0.5337
 1864TIP3   OH227006   3.706   4.789   1.948 -0.5382 -0.5539  0.1319
 1864TIP3    H127007   3.712   4.761   2.039  1.7696  0.0424  0.2312
 1864TIP3    H227008   3.632   4.849   1.945  0.2525  0.5778  1.9753
 1865TIP3   OH227009   5.977   0.904   5.097  0.2607 -0.3511  0.0647
 1865TIP3    H127010   5.950   0.932   5.184  1.0048 -1.0543  0.5471
 1865TIP3    H227011   5.978   0.808   5.102  2.0984 -0.3787 -0.1267
 1866TIP3   OH227012   0.701   5.758  17.205 -0.1430 -0.7801 -0.4740
 1866TIP3    H127013   0.718   5.843  17.165 -1.2391 -0.8323 -1.1148
 1866TIP3    H227014   0.786   5.728  17.237  0.2315  0.5965 -0.1494
 1867TIP3   OH227015   6.714   0.311   1.278  0.1798  0.5927  0.1799
 1867TIP3    H127016   6.688   0.334   1.367 -0.3545 -0.3373  0.2802
 1867TIP3    H227017   6.809   0.299   1.282  0.0439 -0.3650  0.8520
 1868TIP3   OH227018   5.452   2.697  12.904 -0.0865  0.7571 -0.5474
 1868TIP3    H127019   5.392   2.709  12.978 -1.9021 -1.8465 -1.4665
 1868TIP3    H227020   5.530   2.659  12.943 -0.0749  1.6389  0.3233
 1869TIP3   OH227021   5.509   3.253   3.997  0.2077  0.4310  0.1719
 1869TIP3    H127022   5.483   3.260   4.089  1.0489 -0.3006  0.4738
 1869TIP3    H227023   5.433   3.212   3.954  0.3687 -0.5750  0.8178
 1870TIP3   OH227024   5.181   6.591  17.007  0.1292 -0.4524 -0.1537
 1870TIP3    H127025   5.249   6.655  17.030  1.3262 -1.5252 -0.5759
 1870TIP3    H227026   5.167   6.542  17.088  0.0801 -0.4360 -0.1513
 1871TIP3   OH227027   2.997   5.063  14.376  0.4005 -0.1816 -0.1610
 1871TIP3    H127028   2.906   5.089  14.364  0.6105  0.5756 -0.1316
 1871TIP3    H227029   2.993   4.988  14.436 -0.0984  0.8016  1.0708
 1872TIP3   OH227030   3.217   1.229   4.304  0.1933 -0.1268  0.2849
 1872TIP3    H127031   3.304   1.238   4.267 -0.2147  0.5985 -0.5455
 1872TIP3    H227032   3.215   1.290   4.378 -0.1295  1.0923 -0.7074
 1873TIP3   OH227033   3.403   2.324   3.157 -0.0951  0.8120  0.0207
 1873TIP3    H127034   3.466   2.276   3.102 -0.7859 -0.1994  0.0835
 1873TIP3    H227035   3.339   2.358   3.094  0.5573  1.9790 -0.0609
 1874TIP3   OH227036   2.455   0.365  11.743 -0.0072 -0.7554 -0.6689
 1874TIP3    H127037   2.469   0.384  11.650 -0.2987  0.1000 -0.5490
 1874TIP3    H227038   2.454   0.270  11.748 -2.5574 -0.8937 -1.9667
 1875TIP3   OH227039   0.984   4.468   3.412  0.5097  0.2444 -0.3589
 1875TIP3    H127040   0.926   4.448   3.486  0.5267 -0.5973 -0.5701
 1875TIP3    H227041   0.982   4.564   3.407  1.8766  0.4671  1.8168
 1876TIP3   OH227042   0.162   0.698   4.060 -0.6622 -0.3459  0.1699
 1876TIP3    H127043   0.119   0.712   3.976 -1.2121 -2.3818  0.0534
 1876TIP3    H227044   0.156   0.604   4.075 -1.4305  0.0358  2.9417
 1877TIP3   OH227045   5.590   4.982   1.106 -0.0345  0.2436  0.0373
 1877TIP3    H127046   5.679   5.018   1.102  0.2239 -0.4357 -0.9846
 1877TIP3    H227047   5.571   4.956   1.016 -0.3926 -1.6699  0.6151
 1878TIP3   OH227048   6.455   4.851  15.388 -0.3718  0.0383  0.0138
 1878TIP3    H127049   6.463   4.882  15.479  0.9897 -0.2488  0.0165
 1878TIP3    H227050   6.496   4.765  15.388 -0.4665 -0.0164 -0.8603
 1879TIP3   OH227051   0.586   6.362   3.532 -0.1409 -0.0873 -0.0392
 1879TIP3    H127052   0.520   6.380   3.600 -1.0637 -1.7494 -0.4208
 1879TIP3    H227053   0.606   6.447   3.495 -1.4236  0.5800  0.7064
 1880TIP3   OH227054   3.291   0.907  16.286  0.4680 -0.1746  0.3052
 1880TIP3    H127055   3.307   0.886  16.378 -1.8746  0.4768  0.9232
 1880TIP3    H227056   3.354   0.976  16.266 -1.2342  2.2008  2.5194
 1881TIP3   OH227057   3.455   6.609  14.529  0.3448  0.3313  0.4628
 1881TIP3    H127058   3.427   6.695  14.498 -0.3617  0.3749  1.1794
 1881TIP3    H227059   3.380   6.552  14.514  1.2374 -0.4833 -1.1829
 1882TIP3   OH227060   1.407   5.780  12.569  0.3350  0.2183 -0.6459
 1882TIP3    H127061   1.390   5.688  12.590  2.2882  0.0414  0.4640
 1882TIP3    H227062   1.409   5.824  12.654  1.7025  0.8237 -0.9557
 1883TIP3   OH227063   0.232   5.898  17.196 -0.0438 -0.2936  0.3775
 1883TIP3    H127064   0.142   5.931  17.198 -0.5198 -1.2073 -1.9360
 1883TIP3    H227065   0.239   5.840  17.271 -1.3208 -0.0353  0.7090
 1884TIP3   OH227066   6.493   4.196  15.312 -0.1597  0.6407  0.0390
 1884TIP3    H127067   6.441   4.218  15.390 -0.2068  0.4559  0.0609
 1884TIP3    H227068   6.441   4.229  15.239 -1.3692 -1.3983 -0.1023
 1885TIP3   OH227069   2.438   3.582   6.350 -0.0698  0.2078 -0.4688
 1885TIP3    H127070   2.399   3.633   6.279 -0.9409  0.1296 -0.0688
 1885TIP3    H227071   2.383   3.503   6.355  1.2829 -0.8136 -1.1066
 1886TIP3   OH227072   1.277   6.603   6.170 -0.3916  0.0659  0.0281
 1886TIP3    H127073   1.296   6.512   6.194 -1.4564  0.0100  0.7256
 1886TIP3    H227074   1.208   6.596   6.103 -0.1679  0.3534 -0.2365
 1887TIP3   OH227075   3.452   3.161   3.517 -0.0881  0.4777  0.0170
 1887TIP3    H127076   3.477   3.079   3.559 -4.3115 -2.1808 -1.9752
 1887TIP3    H227077   3.379   3.193   3.571 -0.4439  1.2787 -0.9206
 1888TIP3   OH227078   1.275   1.814  12.958  0.1821  0.4424  0.4804
 1888TIP3    H127079   1.327   1.741  12.923 -2.1736 -0.5991 -1.0985
 1888TIP3    H227080   1.337   1.887  12.962  1.7435 -0.6729 -1.4452
 1889TIP3   OH227081   4.845   1.016   3.498 -0.0254 -0.1587  0.0124
 1889TIP3    H127082   4.794   1.096   3.496 -0.3004 -0.2821  1.2524
 1889TIP3    H227083   4.933   1.042   3.472 -0.4681  0.2246 -1.2002
 1890TIP3   OH227084   4.859   0.791   4.712  0.2345 -0.1750 -0.2802
 1890TIP3    H127085   4.844   0.819   4.621  0.8041  0.3177 -0.2314
 1890TIP3    H227086   4.798   0.719   4.726  1.2549 -1.3367 -1.5622
 1891TIP3   OH227087   3.237   6.473  10.639  0.3344 -0.2115 -0.6041
 1891TIP3    H127088   3.273   6.416  10.571 -1.0747  0.1521 -1.6940
 1891TIP3    H227089   3.194   6.544  10.591 -0.3905  0.2508  0.6771
 1892TIP3   OH227090   0.654   5.562   0.342 -0.5540 -0.5103 -0.0870
 1892TIP3    H127091   0.585   5.625   0.364  0.3809 -0.1435  2.0574
 1892TIP3    H227092   0.729   5.590   0.394  0.7271 -1.8404 -1.1463
 1893TIP3   OH227093   2.865   0.731  10.849  0.1742  0.4886  0.2147
 1893TIP3    H127094   2.832   0.689  10.770 -0.1861  2.3008 -0.6683
 1893TIP3    H227095   2.958   0.747  10.830  0.3938 -0.2009  0.6858
 1894TIP3   OH227096   1.153   6.682   0.091  0.6751 -0.7294  0.6592
 1894TIP3    H127097   1.222   6.639   0.041 -0.4689 -1.9063  0.0563
 1894TIP3    H227098   1.173   6.661   0.183  2.3886  0.8719  0.7093
 1895TIP3   OH227099   0.268   0.655   1.705  0.4204 -0.0853  0.1908
 1895TIP3    H127100   0.332   0.726   1.715  0.2329  0.1451 -0.2306
 1895TIP3    H227101   0.252   0.649   1.611  0.2777 -0.5515  0.2422
 1896TIP3   OH227102   0.131   3.611  10.530  0.4986  0.0693 -0.7650
 1896TIP3    H127103   0.060   3.561  10.490  0.4975  0.3792 -1.1538
 1896TIP3    H227104   0.174   3.654  10.457  1.0797 -0.1048 -0.5274
 1897TIP3   OH227105   0.413   5.036   5.688 -0.5026  0.0243  0.3631
 1897TIP3    H127106   0.500   5.033   5.727 -0.5926 -0.2263  0.5470
 1897TIP3    H227107   0.376   4.949   5.704  0.0371 -0.6170 -1.5906
 1898TIP3   OH227108   3.847   6.441  10.965  0.0041 -0.1724 -0.6665
 1898TIP3    H127109   3.796   6.501  10.911 -1.3549 -1.5661 -1.0194
 1898TIP3    H227110   3.801   6.357  10.957 -0.4396 -0.4102  2.9119
 1899TIP3   OH227111   3.521   2.801  14.325  0.0292 -0.0531  0.1200
 1899TIP3    H127112   3.428   2.784  14.341 -0.5443  0.1260 -2.6127
 1899TIP3    H227113   3.537   2.770  14.236  1.7759  2.8755 -0.7429
 1900TIP3   OH227114   3.570   1.116  16.884  0.1954 -0.1347 -0.3547
 1900TIP3    H127115   3.618   1.114  16.967  0.5665 -1.6229 -0.5754
 1900TIP3    H227116   3.635   1.092  16.818 -0.5997 -1.1212 -0.8021
 1901TIP3   OH227117   1.703   2.992   2.493  0.0465 -0.2304  0.0360
 1901TIP3    H127118   1.611   2.972   2.478  0.2835 -0.8818 -0.6103
 1901TIP3    H227119   1.709   3.006   2.588 -0.6514 -0.5178  0.1324
 1902TIP3   OH227120   2.389   6.592   4.683 -0.1612  0.6621  0.6316
 1902TIP3    H127121   2.360   6.511   4.642 -1.6279  1.3959  0.1323
 1902TIP3    H227122   2.316   6.617   4.741  1.4869  0.1042  3.0939
 1903TIP3   OH227123   2.549   0.062  11.034  0.2907  0.3047  0.2532
 1903TIP3    H127124   2.623   0.001  11.024  0.1866  0.2809 -0.4822
 1903TIP3    H227125   2.553   0.116  10.955  0.0592  0.9017  0.6462
 1904TIP3   OH227126   1.376   3.826   6.657 -0.0570  0.2049 -0.5651
 1904TIP3    H127127   1.354   3.747   6.706 -1.1086  1.6104  1.3334
 1904TIP3    H227128   1.296   3.847   6.609 -1.5834  2.6923  2.6917
 1905TIP3   OH227129   2.778   5.232  16.798  0.3489  0.3389 -0.2102
 1905TIP3    H127130   2.737   5.227  16.712  3.2342 -0.5248 -1.6840
 1905TIP3    H227131   2.713   5.194  16.857 -1.2383 -0.2785 -2.2082
 1906TIP3   OH227132   3.380   0.224  12.045 -0.4602 -0.6479  0.3223
 1906TIP3    H127133   3.388   0.146  11.990  0.7212 -0.2974 -0.0229
 1906TIP3    H227134   3.470   0.246  12.070 -0.5906  1.4613 -0.8245
 1907TIP3   OH227135   5.540   4.766   2.783 -0.0508  0.4925 -0.1997
 1907TIP3    H127136   5.547   4.847   2.732  1.9772  0.4272 -0.1341
 1907TIP3    H227137   5.455   4.772   2.827  0.7645  3.4769  1.2394
 1908TIP3   OH227138   4.334   1.745   4.046 -0.3981  0.2286  0.6229
 1908TIP3    H127139   4.247   1.734   4.009  0.6683 -1.3246 -1.7111
 1908TIP3    H227140   4.372   1.819   3.999  0.2461 -0.4183  0.1036
 1909TIP3   OH227141   1.956   5.322   5.783 -0.0002  1.0137  0.2194
 1909TIP3    H127142   2.042   5.340   5.818  0.2449  0.0780  0.1439
 1909TIP3    H227143   1.895   5.362   5.845  0.4462  0.2314  1.1881
 1910TIP3   OH227144   2.436   1.554  16.273 -0.1527  0.2860 -0.3639
 1910TIP3    H127145   2.444   1.641  16.233 -0.4067  0.8923  0.8648
 1910TIP3    H227146   2.357   1.517  16.233 -0.9228  1.2491  0.2190
 1911TIP3   OH227147   1.766   3.893  11.644 -0.7341 -0.1295 -0.3093
 1911TIP3    H127148   1.814   3.810  11.641  2.8251  1.5838  2.2418
 1911TIP3    H227149   1.721   3.892  11.728  0.3899  0.9499  0.3431
 1912TIP3   OH227150   5.897   4.877  15.834 -0.4825 -0.4064  0.0435
 1912TIP3    H127151   5.925   4.792  15.801 -1.3740  0.1295 -2.3041
 1912TIP3    H227152   5.969   4.937  15.810 -0.1720 -0.3506  1.0614
 1913TIP3   OH227153   1.468   2.012  12.119  0.1454  0.3862 -0.2015
 1913TIP3    H127154   1.446   1.953  12.191 -1.3390 -0.9047 -1.6374
 1913TIP3    H227155   1.421   1.976  12.044  0.8034  2.2957 -1.5838
 1914TIP3   OH227156   4.294   6.029  11.882  0.5324  0.5417 -0.1130
 1914TIP3    H127157   4.299   6.035  11.977 -0.3884  1.0091 -0.0821
 1914TIP3    H227158   4.385   6.028  11.853  0.8164  0.6129  0.7596
 1915TIP3   OH227159   5.076   0.310  17.196  0.2167 -0.1166 -0.2336
 1915TIP3    H127160   5.094   0.230  17.246 -0.2769  0.2525  0.5458
 1915TIP3    H227161   5.153   0.365  17.211  0.5494 -0.4275 -0.7561
 1916TIP3   OH227162   6.137   6.165  15.658  1.0416  0.0408 -0.2349
 1916TIP3    H127163   6.112   6.225  15.729  1.6950  0.9989 -0.7925
 1916TIP3    H227164   6.191   6.098  15.701 -0.8665 -1.0244  0.6552
 1917TIP3   OH227165   2.417   2.909   5.675  0.1810 -0.7823 -0.0144
 1917TIP3    H127166   2.385   2.967   5.605  1.8566  0.2929  0.0587
 1917TIP3    H227167   2.426   2.966   5.751 -0.8576 -1.7776  0.8971
 1918TIP3   OH227168   1.825   0.149   0.697 -0.2279  0.0157 -0.2626
 1918TIP3    H127169   1.786   0.076   0.745  0.1383  0.8175  1.3368
 1918TIP3    H227170   1.793   0.228   0.742  1.5612  0.7470 -0.1559
 1919TIP3   OH227171   5.295   3.875   3.859  0.0274 -0.6212 -0.4389
 1919TIP3    H127172   5.357   3.822   3.809 -1.9295 -1.7997 -1.7578
 1919TIP3    H227173   5.219   3.818   3.872 -1.1397  1.0157  0.3685
 1920TIP3   OH227174   1.357   3.224   2.403 -0.3601 -0.4394 -0.2323
 1920TIP3    H127175   1.450   3.226   2.427 -0.5138 -0.7966  0.4240
 1920TIP3    H227176   1.335   3.315   2.386  0.2614 -0.4219 -1.0030
 1921TIP3   OH227177   5.558   6.553   5.838  0.4157  0.2405  0.7075
 1921TIP3    H127178   5.642   6.540   5.794  1.1525  1.2946  1.7588
 1921TIP3    H227179   5.540   6.647   5.829 -0.9471 -0.0564  0.0118
 1922TIP3   OH227180   2.994   5.624  15.642 -0.0091 -0.0713  0.0156
 1922TIP3    H127181   2.990   5.651  15.734  0.1532 -0.1527  0.0462
 1922TIP3    H227182   3.052   5.687  15.601  0.2188 -0.2620  0.0472
 1923TIP3   OH227183   6.334   6.000   3.764 -0.0768  0.1686 -0.2939
 1923TIP3    H127184   6.241   5.986   3.746 -0.7279  2.0596  1.2848
 1923TIP3    H227185   6.356   5.933   3.828 -0.7864  0.6718  0.4960
 1924TIP3   OH227186   0.994   5.861   4.204  0.1894  0.5604 -0.0963
 1924TIP3    H127187   0.996   5.922   4.130  3.0469  1.3342  0.4941
 1924TIP3    H227188   0.907   5.820   4.199 -0.6081  2.3018 -2.4303
 1925TIP3   OH227189   1.661   5.101  10.194  0.1986  0.4017 -0.0856
 1925TIP3    H127190   1.751   5.133  10.189  1.6426 -2.4986  3.0669
 1925TIP3    H227191   1.614   5.168  10.243  2.1253 -0.2851  2.9568
 1926TIP3   OH227192   3.582   4.180  12.404  0.8954 -0.0318 -0.0399
 1926TIP3    H127193   3.552   4.267  12.430 -0.6130 -0.4483 -0.3176
 1926TIP3    H227194   3.593   4.133  12.486  2.8246  0.7316  0.1881
 1927TIP3   OH227195   1.770   1.488   4.204 -0.4699 -0.2899  0.3030
 1927TIP3    H127196   1.818   1.547   4.146 -0.9517  1.7277  1.8530
 1927TIP3    H227197   1.836   1.456   4.266 -0.5950  0.3483  0.7760
 1928TIP3   OH227198   5.078   0.657  15.692 -0.1243 -0.3612  0.8200
 1928TIP3    H127199   5.098   0.724  15.757 -3.1363  0.9456  0.5854
 1928TIP3    H227200   5.050   0.706  15.615 -2.5024 -1.8104  0.6545
 1929TIP3   OH227201   4.311   6.409   3.460  0.2545  0.2694 -0.2075
 1929TIP3    H127202   4.325   6.485   3.403  0.3292  1.0670  0.8401
 1929TIP3    H227203   4.232   6.368   3.426  1.4037 -0.4638 -2.1280
 1930TIP3   OH227204   2.289   0.497  15.768  0.5679 -0.4448 -0.1294
 1930TIP3    H127205   2.209   0.524  15.722  0.7464  0.2015 -0.0580
 1930TIP3    H227206   2.335   0.442  15.704  0.3205 -0.3925 -0.3554
 1931TIP3   OH227207   1.400   2.816  10.616  0.2285 -0.1762  0.0335
 1931TIP3    H127208   1.376   2.788  10.527 -3.8537  1.3071  0.4682
 1931TIP3    H227209   1.415   2.734  10.663  0.9105 -1.0540 -1.5981
 1932TIP3   OH227210   3.122   6.224  15.802  0.1939 -0.3837  0.6688
 1932TIP3    H127211   3.152   6.286  15.736 -1.8145 -0.3833 -0.3059
 1932TIP3    H227212   3.053   6.269  15.849  0.3958 -1.0227  1.6157
 1933TIP3   OH227213   4.233   4.022  12.336 -0.6416 -0.4065  0.2622
 1933TIP3    H127214   4.139   4.010  12.348 -0.7314  1.3323  1.6799
 1933TIP3    H227215   4.273   3.975  12.409 -0.5057  0.0261  0.4723
 1934TIP3   OH227216   1.494   2.673  14.489  0.1653  0.2951  0.4744
 1934TIP3    H127217   1.548   2.661  14.568  0.9344 -2.4656 -0.3826
 1934TIP3    H227218   1.405   2.685  14.523  0.5641 -0.2885  1.7882
 1935TIP3   OH227219   4.023   0.489   5.267 -0.3069 -0.1922 -0.1939
 1935TIP3    H127220   4.003   0.527   5.352  1.8605 -2.1016  1.2956
 1935TIP3    H227221   4.020   0.562   5.206 -2.3538  1.1545  1.4124
 1936TIP3   OH227222   4.116   2.410   0.675  0.4776 -0.2159 -0.2164
 1936TIP3    H127223   4.076   2.347   0.615 -0.1981 -1.2935  1.3003
 1936TIP3    H227224   4.205   2.377   0.688  0.6255  0.0209 -0.6265
 1937TIP3   OH227225   2.604   5.063  12.192 -0.3530  0.1298 -0.6439
 1937TIP3    H127226   2.605   4.977  12.151  0.6056 -0.5213  0.6995
 1937TIP3    H227227   2.512   5.080  12.210 -0.5209 -0.7140 -0.6892
 1938TIP3   OH227228   1.043   0.811  13.609  0.0344 -0.1118  0.1502
 1938TIP3    H127229   1.092   0.812  13.527 -1.1983  0.7992 -0.6030
 1938TIP3    H227230   0.961   0.766  13.588 -0.3801  0.3147  0.8160
 1939TIP3   OH227231   3.136   1.790  17.036 -0.2538  0.2339 -0.0260
 1939TIP3    H127232   3.061   1.745  16.996 -0.3532 -0.3788  0.8152
 1939TIP3    H227233   3.210   1.767  16.979 -0.3914 -0.6185  0.1182
 1940TIP3   OH227234   4.879   6.362   1.313  0.1929 -0.0648  0.5227
 1940TIP3    H127235   4.876   6.266   1.307 -1.5181 -0.0933  1.3681
 1940TIP3    H227236   4.918   6.379   1.398 -3.0809 -0.1564  2.2179
 1941TIP3   OH227237   6.379   5.475  13.585  0.0825  0.4690 -0.4153
 1941TIP3    H127238   6.462   5.427  13.581 -0.1344 -0.5672  3.2761
 1941TIP3    H227239   6.396   5.547  13.645 -2.0729 -1.0641  2.3199
 1942TIP3   OH227240   2.027   3.700   3.667  0.1851 -0.3088 -0.4452
 1942TIP3    H127241   1.965   3.708   3.739  1.1414 -1.7321  0.5937
 1942TIP3    H227242   2.056   3.789   3.650 -2.5676  0.5145 -1.4254
 1943TIP3   OH227243   5.615   3.297  17.141 -0.5169 -0.0651 -0.1284
 1943TIP3    H127244   5.547   3.360  17.165  0.6972  0.9293  0.8159
 1943TIP3    H227245   5.692   3.350  17.123  0.0217 -1.1672 -1.2828
 1944TIP3   OH227246   0.557   0.601   3.730 -0.0131  0.3324 -0.7880
 1944TIP3    H127247   0.530   0.665   3.795  0.9209  1.3889 -1.4066
 1944TIP3    H227248   0.618   0.543   3.777 -0.4386  0.2181 -0.3701
 1945TIP3   OH227249   4.220   5.157  11.830 -0.0779 -0.9093  0.4336
 1945TIP3    H127250   4.125   5.152  11.816  0.1717 -0.0875 -2.0297
 1945TIP3    H227251   4.243   5.248  11.812  1.2970 -1.3109 -0.0039
 1946TIP3   OH227252   1.380   2.609  12.392 -0.7756  0.0648 -0.1558
 1946TIP3    H127253   1.376   2.699  12.360  0.1001 -0.3146 -1.4058
 1946TIP3    H227254   1.298   2.569  12.362 -0.7237  0.1790 -0.4490
 1947TIP3   OH227255   2.104   5.580   1.258 -0.3122 -0.0910 -0.2530
 1947TIP3    H127256   2.011   5.596   1.272 -0.0900  1.0199  0.1062
 1947TIP3    H227257   2.110   5.543   1.170 -1.1111 -0.4945 -0.1461
 1948TIP3   OH227258   2.605   4.831  13.171  0.1667 -0.5352 -0.0081
 1948TIP3    H127259   2.617   4.896  13.102 -0.5120  0.1920  0.5339
 1948TIP3    H227260   2.674   4.766  13.155 -0.2648 -0.6465 -1.6426
 1949TIP3   OH227261   6.785   0.250   5.684  0.4014 -0.0201  0.3065
 1949TIP3    H127262   6.879   0.251   5.698  0.6000 -2.0582 -0.5057
 1949TIP3    H227263   6.771   0.300   5.604  0.6732  0.9558  0.8523
 1950TIP3   OH227264   0.877   6.193  15.280 -0.0999  0.1526 -0.2776
 1950TIP3    H127265   0.829   6.144  15.212 -0.2295 -1.0935  0.6766
 1950TIP3    H227266   0.965   6.203  15.245 -0.0621 -0.8187 -0.4748
 1951TIP3   OH227267   4.619   2.571   5.800 -0.7228 -0.0459  0.1351
 1951TIP3    H127268   4.530   2.545   5.824 -0.9716  0.6534 -0.0193
 1951TIP3    H227269   4.675   2.524   5.862 -1.2656  0.3725  0.9616
 1952TIP3   OH227270   0.156   1.757  12.144 -0.0798  0.0197 -0.5078
 1952TIP3    H127271   0.160   1.852  12.134  0.4695 -0.0416 -0.9305
 1952TIP3    H227272   0.217   1.738  12.216 -1.1482  0.0981  0.4452
 1953TIP3   OH227273   5.133   4.145   3.761  0.7983  0.6132 -0.5606
 1953TIP3    H127274   5.151   4.094   3.840  0.4602 -0.4735 -1.1734
 1953TIP3    H227275   5.216   4.187   3.740  1.1064  0.2475 -0.0865
 1954TIP3   OH227276   2.037   2.563  12.988  0.0166 -0.6019 -0.1347
 1954TIP3    H127277   1.995   2.485  12.953  0.4247 -0.2714 -1.3947
 1954TIP3    H227278   2.018   2.560  13.082 -1.7114 -1.1236 -0.4690
 1955TIP3   OH227279   0.290   6.492  10.593  0.1554  0.0763  0.4927
 1955TIP3    H127280   0.310   6.457  10.507 -1.5033  0.7453 -0.2099
 1955TIP3    H227281   0.375   6.517  10.630  0.9939 -1.2628 -0.4635
 1956TIP3   OH227282   3.214   3.678   1.300 -0.0340 -0.3696 -0.1865
 1956TIP3    H127283   3.223   3.583   1.293  1.5080 -0.2573 -0.0657
 1956TIP3    H227284   3.141   3.691   1.360 -0.3009 -1.4719 -0.2534
 1957TIP3   OH227285   2.927   5.689  16.719  0.1187  0.0783  0.5458
 1957TIP3    H127286   2.944   5.614  16.776 -0.2126 -0.5249 -0.1275
 1957TIP3    H227287   2.847   5.728  16.753  0.6151  0.5008  1.2647
 1958TIP3   OH227288   3.106   4.155   2.287 -0.5543 -0.0304  0.6025
 1958TIP3    H127289   3.155   4.084   2.244 -1.1052 -1.3549  2.0739
 1958TIP3    H227290   3.068   4.205   2.214 -0.3332 -1.3884 -0.4882
 1959TIP3   OH227291   6.728   5.858   0.077 -0.3577  0.1099 -0.0726
 1959TIP3    H127292   6.755   5.773   0.042  1.3860 -0.3352  2.1938
 1959TIP3    H227293   6.691   5.838   0.163 -0.5645  1.5779  0.2048
 1960TIP3   OH227294   2.799   1.197   0.459  0.7602  0.0407  0.4558
 1960TIP3    H127295   2.784   1.157   0.373  0.1346 -0.8703  0.9705
 1960TIP3    H227296   2.808   1.290   0.441 -1.2556  0.1218 -0.4181
 1961TIP3   OH227297   6.255   0.702  14.692  0.2331  0.0828 -0.2116
 1961TIP3    H127298   6.264   0.798  14.690  0.5613  0.0626  0.2188
 1961TIP3    H227299   6.322   0.670  14.632  0.7976  0.0826  0.4078
 1962TIP3   OH227300   0.005   6.050   2.744 -0.1909  0.5460 -0.8053
 1962TIP3    H127301  -0.063   6.069   2.809  0.0529  1.3838 -0.7958
 1962TIP3    H227302   0.085   6.088   2.781  0.4427 -0.9924 -0.5048
 1963TIP3   OH227303   3.577   1.881   5.179 -0.0277 -0.2374 -0.2494
 1963TIP3    H127304   3.663   1.840   5.169  0.0029  0.0462 -1.2354
 1963TIP3    H227305   3.534   1.830   5.247  1.1190 -0.0538  0.6418
 1964TIP3   OH227306   1.490   4.367  14.249 -0.1821  0.2770  0.1001
 1964TIP3    H127307   1.463   4.294  14.305  0.6095 -0.1401 -0.0379
 1964TIP3    H227308   1.414   4.386  14.195  0.2105 -1.8761 -1.3596
 1965TIP3   OH227309   0.522   2.746   2.173  0.8003 -0.2703  0.5051
 1965TIP3    H127310   0.498   2.699   2.253  1.6075  0.9795  1.5410
 1965TIP3    H227311   0.609   2.781   2.192 -0.6215  3.6063  0.7913
 1966TIP3   OH227312   6.001   3.680  12.790 -0.4186  0.1164 -0.0632
 1966TIP3    H127313   5.916   3.722  12.782 -0.1880  0.4018 -1.1461
 1966TIP3    H227314   6.042   3.691  12.704  0.7963  0.1690  0.4974
 1967TIP3   OH227315   5.068   3.475  16.275  0.4131  0.0869 -0.0602
 1967TIP3    H127316   5.127   3.400  16.282 -0.6833 -1.0277 -1.9933
 1967TIP3    H227317   4.983   3.437  16.252 -0.1139  1.9178 -1.3435
 1968TIP3   OH227318   5.040   3.589   6.359 -0.3160 -0.3331  0.3801
 1968TIP3    H127319   5.094   3.527   6.408  1.7341 -0.3427 -1.6954
 1968TIP3    H227320   5.017   3.542   6.279 -2.3589  0.1664  0.6099
 1969TIP3   OH227321   4.521   4.206  14.192 -0.4146 -0.0822 -1.0234
 1969TIP3    H127322   4.593   4.190  14.254 -0.6689 -2.0130 -1.1869
 1969TIP3    H227323   4.473   4.280  14.231 -0.3192 -0.9430  0.8695
 1970TIP3   OH227324   3.748   6.127   5.651  0.5223 -0.7710  0.0058
 1970TIP3    H127325   3.802   6.174   5.588  1.1919  0.9960  1.7921
 1970TIP3    H227326   3.713   6.052   5.602  2.1584 -0.2949 -2.0148
 1971TIP3   OH227327   1.322   4.195   4.757 -0.2222  0.0784 -0.3202
 1971TIP3    H127328   1.399   4.202   4.814  0.5053 -1.2135 -1.0707
 1971TIP3    H227329   1.250   4.172   4.816  0.2555  0.0010  0.2428
 1972TIP3   OH227330   4.930   0.052   4.378 -0.2661  0.0670 -0.1396
 1972TIP3    H127331   4.898  -0.014   4.317 -1.8273 -0.9379  1.6721
 1972TIP3    H227332   4.856   0.112   4.390  0.0090  0.2487  0.7422
 1973TIP3   OH227333   3.152   3.134  16.598 -0.2428 -0.2040  0.4961
 1973TIP3    H127334   3.057   3.143  16.600 -0.2346  0.1885 -0.3714
 1973TIP3    H227335   3.181   3.176  16.679 -0.7536  0.5576  0.2959
 1974TIP3   OH227336   6.029   2.991   5.744  0.3078  0.1262  0.2517
 1974TIP3    H127337   5.989   2.943   5.816  1.1199 -0.9319  0.0142
 1974TIP3    H227338   6.108   3.030   5.781  1.5366 -1.6496 -0.3799
 1975TIP3   OH227339   3.705   1.399   0.018 -0.2479 -0.0997  0.6815
 1975TIP3    H127340   3.700   1.469   0.083  0.5043  0.7083 -0.1101
 1975TIP3    H227341   3.799   1.386   0.003 -0.4000 -0.5398  0.0414
 1976TIP3   OH227342   4.381   2.177   1.800 -0.2960  0.3031 -0.0829
 1976TIP3    H127343   4.315   2.168   1.869 -2.0991 -1.1808 -1.8836
 1976TIP3    H227344   4.434   2.097   1.808  0.5537  0.9077  0.5688
 1977TIP3   OH227345   3.644   6.189   3.217  0.7216 -0.2301  0.2913
 1977TIP3    H127346   3.618   6.168   3.307  0.6598 -0.4080  0.2320
 1977TIP3    H227347   3.575   6.152   3.162  0.6639  0.0437  0.1816
 1978TIP3   OH227348   2.283   5.729   5.578 -0.1789  0.3682  0.4033
 1978TIP3    H127349   2.374   5.724   5.608 -0.0208 -0.2921 -0.1870
 1978TIP3    H227350   2.281   5.680   5.496 -1.8327 -2.8324  2.1992
 1979TIP3   OH227351   1.208   0.069   5.901 -0.2460 -0.1484 -0.1556
 1979TIP3    H127352   1.229  -0.013   5.856  0.3386  0.3127 -0.7462
 1979TIP3    H227353   1.113   0.076   5.892 -0.2853 -0.6812 -0.2397
 1980TIP3   OH227354   4.543   3.170   5.919 -0.5264  0.5126  0.4295
 1980TIP3    H127355   4.627   3.157   5.962 -0.7614  1.6751  1.2676
 1980TIP3    H227356   4.528   3.264   5.922 -3.4163  0.1101  3.3556
 1981TIP3   OH227357   6.286   0.270   6.119 -0.0162  0.1513  0.1817
 1981TIP3    H127358   6.374   0.288   6.088  0.2280  0.1688  0.8568
 1981TIP3    H227359   6.299   0.216   6.198 -0.6139 -0.0458  0.1518
 1982TIP3   OH227360   4.545   3.718  17.006  0.4222  0.5628  0.3283
 1982TIP3    H127361   4.586   3.675  17.081  0.9542  1.5081  0.5934
 1982TIP3    H227362   4.579   3.808  17.007 -2.0245  1.5827  0.8872
 1983TIP3   OH227363   1.716   5.901  14.339 -0.7735  0.0937  0.5727
 1983TIP3    H127364   1.773   5.869  14.408 -0.1915  2.2837  1.1676
 1983TIP3    H227365   1.770   5.963  14.289 -1.4054 -0.8584 -1.4012
 1984TIP3   OH227366   3.957   1.194   4.524  0.5516 -0.7606  0.2753
 1984TIP3    H127367   3.867   1.224   4.510  0.5159 -0.9683  0.0605
 1984TIP3    H227368   3.949   1.099   4.535  0.9315 -1.0223 -1.4605
 1985TIP3   OH227369   1.087   0.148   4.000  0.2961 -0.0088 -0.3497
 1985TIP3    H127370   1.112   0.062   3.965 -1.0612 -0.5382 -0.0958
 1985TIP3    H227371   1.146   0.162   4.074 -1.2344 -2.0661  1.4059
 1986TIP3   OH227372   4.158   6.522   1.269  0.4985 -0.0987 -0.7629
 1986TIP3    H127373   4.154   6.602   1.218 -1.4037  0.0523 -0.4535
 1986TIP3    H227374   4.232   6.536   1.329  0.1692  1.4407 -0.6711
 1987TIP3   OH227375   5.524   1.272  14.272  0.3339  0.0921 -0.1830
 1987TIP3    H127376   5.492   1.248  14.185 -0.1370  0.3122 -0.0681
 1987TIP3    H227377   5.571   1.355  14.258 -0.2134  0.4117 -0.1293
 1988TIP3   OH227378   3.830   0.193  12.700 -0.4562  0.1859 -0.3911
 1988TIP3    H127379   3.886   0.180  12.776 -0.0411 -0.4665 -0.8061
 1988TIP3    H227380   3.880   0.251  12.643 -0.3042 -0.2127 -0.6603
 1989TIP3   OH227381   1.102   2.495   6.054  0.4365  0.2749  0.2685
 1989TIP3    H127382   1.040   2.430   6.021 -0.6855 -0.4503  3.4275
 1989TIP3    H227383   1.076   2.577   6.013  0.5761 -0.8504 -2.2342
 1990TIP3   OH227384   6.766   0.319  13.785  0.1114  0.0628 -0.1575
 1990TIP3    H127385   6.819   0.264  13.727 -0.2259 -0.8439  0.3775
 1990TIP3    H227386   6.699   0.261  13.819  0.4000  0.5347  1.2825
 1991TIP3   OH227387   1.785   4.572  15.986 -0.7677 -0.5137 -0.3687
 1991TIP3    H127388   1.805   4.589  16.078 -2.7494  0.1931 -0.0229
 1991TIP3    H227389   1.814   4.482  15.972  1.1855 -0.0588  0.4238
 1992TIP3   OH227390   4.211   1.924  17.083  0.1870  0.0102  0.1811
 1992TIP3    H127391   4.139   1.982  17.059 -0.5388 -1.3781 -1.1881
 1992TIP3    H227392   4.276   1.934  17.014  0.4885 -0.1048  0.4411
 1993TIP3   OH227393   4.070   4.521   2.081  0.4967  0.2633  0.1346
 1993TIP3    H127394   3.977   4.496   2.083 -0.5608  3.6580  0.7707
 1993TIP3    H227395   4.092   4.525   1.988 -0.0571 -0.3881 -0.0312
 1994TIP3   OH227396   1.433   2.017   1.300  0.0687  0.0635  0.1238
 1994TIP3    H127397   1.422   2.111   1.283  0.1367  0.1232  0.4097
 1994TIP3    H227398   1.524   1.999   1.279  0.0776  0.0781  0.1500
 1995TIP3   OH227399   6.224   5.413   5.902  0.1918 -0.3685  0.2586
 1995TIP3    H127400   6.206   5.338   5.958 -0.3970 -1.3025 -1.1319
 1995TIP3    H227401   6.314   5.438   5.923  0.0252 -0.7599  1.5168
 1996TIP3   OH227402   5.130   5.060   1.817 -0.0980 -0.0685 -0.0064
 1996TIP3    H127403   5.215   5.089   1.783  1.4160 -0.2131  3.2409
 1996TIP3    H227404   5.134   4.964   1.812 -0.5034 -0.0444 -0.7907
 1997TIP3   OH227405   0.176   6.505  11.384 -0.3658 -0.1718 -0.3936
 1997TIP3    H127406   0.149   6.533  11.471 -1.0600 -2.0091  0.0255
 1997TIP3    H227407   0.095   6.475  11.342 -0.2879  1.8468 -2.2031
 1998TIP3   OH227408   1.412   2.984   2.577 -0.2886  0.0564 -0.1387
 1998TIP3    H127409   1.457   2.980   2.661  1.7255  1.4167 -1.0644
 1998TIP3    H227410   1.321   2.963   2.597  0.0188  0.8819  2.4599
 1999TIP3   OH227411   0.969   5.919  16.190  0.5508 -0.0646 -0.0339
 1999TIP3    H127412   0.875   5.905  16.200  0.3039  1.1216 -0.5812
 1999TIP3    H227413   1.008   5.876  16.267 -0.4107 -0.7349  0.0941
 2000TIP3   OH227414   4.561   1.499   4.811 -0.6268  0.0270  0.1127
 2000TIP3    H127415   4.471   1.528   4.795 -1.3045 -1.1146  1.5934
 2000TIP3    H227416   4.612   1.538   4.740 -2.4559 -0.1365 -1.3791
 2001TIP3   OH227417   3.758   6.321  14.529  0.4383  0.0631 -0.4513
 2001TIP3    H127418   3.709   6.347  14.451  1.8584 -0.6878 -1.6593
 2001TIP3    H227419   3.743   6.227  14.537  1.8498 -0.2489 -1.0351
 2002TIP3   OH227420   2.307   5.893  14.268  0.1368 -0.5585  0.0771
 2002TIP3    H127421   2.243   5.952  14.307 -0.7912 -0.7217 -1.1241
 2002TIP3    H227422   2.369   5.950  14.223 -0.3239 -0.4526 -0.4368
 2003TIP3   OH227423   0.044   4.872   4.293 -0.1660 -0.1523  0.3077
 2003TIP3    H127424   0.029   4.828   4.377  1.6338  2.0593  1.9021
 2003TIP3    H227425   0.134   4.850   4.270 -0.0480  0.7151 -0.1043
 2004TIP3   OH227426   4.283   5.966   5.635  0.2878  0.0361 -0.0589
 2004TIP3    H127427   4.271   5.923   5.720  0.6588 -0.3337 -0.1845
 2004TIP3    H227428   4.203   5.947   5.587  0.1473  0.1011  0.1465
 2005TIP3   OH227429   2.784   2.208  16.997  0.3792 -0.2052 -0.2712
 2005TIP3    H127430   2.782   2.281  16.934  1.6423  0.8215  0.8240
 2005TIP3    H227431   2.871   2.212  17.035  1.1516 -3.3999 -1.3774
 2006TIP3   OH227432   2.648   3.586  13.415 -0.4372  0.1113 -0.5781
 2006TIP3    H127433   2.708   3.660  13.417 -0.4024  0.0766 -0.3484
 2006TIP3    H227434   2.667   3.542  13.331  0.3896 -0.3379 -0.1736
 2007TIP3   OH227435   6.472   5.901   0.002  0.4848  0.1701 -0.0407
 2007TIP3    H127436   6.567   5.900   0.018  0.5085  1.4630 -0.0553
 2007TIP3    H227437   6.433   5.890   0.089  0.6369 -0.9464 -0.0997
 2008TIP3   OH227438   0.940   3.540  16.416 -0.8873 -0.2181 -0.6503
 2008TIP3    H127439   0.931   3.567  16.324  0.1645 -0.3496 -0.8101
 2008TIP3    H227440   1.034   3.549  16.433 -1.2498  1.1567  0.8335
 2009TIP3   OH227441   1.251   2.918   3.943 -0.1198 -0.0808 -0.2709
 2009TIP3    H127442   1.223   2.968   4.020  1.6053  1.0543 -0.3099
 2009TIP3    H227443   1.259   2.828   3.973 -4.7622 -0.8403 -0.5453
 2010TIP3   OH227444   3.897   2.538   1.891  0.0508 -1.0332 -0.6335
 2010TIP3    H127445   3.940   2.572   1.812  0.6633 -3.6362 -1.5015
 2010TIP3    H227446   3.968   2.526   1.954 -0.2076 -0.4761 -0.2266
 2011TIP3   OH227447   3.424   2.650  11.162  0.2402 -0.5244 -0.0568
 2011TIP3    H127448   3.372   2.695  11.228 -1.7673 -0.6194 -1.4555
 2011TIP3    H227449   3.490   2.714  11.135  2.0923 -0.9896  2.9768
 2012TIP3   OH227450   0.234   4.927  16.357 -0.1816 -0.1840  0.2267
 2012TIP3    H127451   0.249   5.014  16.319 -0.4832  0.0873  0.7261
 2012TIP3    H227452   0.310   4.913  16.414 -0.9577  0.4873  1.4679
 2013TIP3   OH227453   5.541   0.005   5.686  0.2182  0.1944 -0.1490
 2013TIP3    H127454   5.557   0.099   5.699 -1.6597  0.5822 -0.2638
 2013TIP3    H227455   5.558  -0.009   5.593  0.4391  0.4442 -0.1471
 2014TIP3   OH227456   0.128   5.169  14.473 -0.3535  0.2427  0.6193
 2014TIP3    H127457   0.146   5.077  14.453 -2.0497  0.1349 -0.6875
 2014TIP3    H227458   0.176   5.218  14.407 -1.7063  0.1170 -0.5193
 2015TIP3   OH227459   0.073   2.564  13.761 -0.4808  0.4456 -0.0334
 2015TIP3    H127460   0.155   2.591  13.802  0.1949 -0.0102 -1.0416
 2015TIP3    H227461   0.033   2.645  13.731  0.5525  0.5469 -1.2380
 2016TIP3   OH227462   5.840   4.725   2.765 -0.4739 -0.1782 -0.2948
 2016TIP3    H127463   5.747   4.747   2.776 -0.1833  0.7645  0.4819
 2016TIP3    H227464   5.883   4.811   2.761  0.2521 -0.5778 -1.8442
 2017TIP3   OH227465   6.114   5.675  13.678  0.0541  0.1129 -0.2495
 2017TIP3    H127466   6.171   5.741  13.638  1.3176  0.2558  1.6769
 2017TIP3    H227467   6.142   5.671  13.769 -1.0478 -1.9971  0.0522
 2018TIP3   OH227468   0.101   0.077  14.860  0.5718  0.0335 -0.1281
 2018TIP3    H127469   0.132   0.037  14.942  0.7407  2.2360  0.9534
 2018TIP3    H227470   0.035   0.140  14.887  0.5376  0.7334 -1.7049
 2019TIP3   OH227471   6.321   1.797  12.884 -0.1517 -0.6104 -0.6380
 2019TIP3    H127472   6.326   1.703  12.873 -2.4399 -1.1141  1.6168
 2019TIP3    H227473   6.240   1.823  12.839  0.4166  0.2677 -1.1832
 2020TIP3   OH227474   2.649   6.601   3.501  0.0085  0.0649  0.4789
 2020TIP3    H127475   2.565   6.570   3.466 -0.0492 -0.0050  0.6781
 2020TIP3    H227476   2.671   6.677   3.447 -1.0747  1.1988  1.5747
 2021TIP3   OH227477   4.907   1.498  13.201  0.3308 -0.7303  0.1526
 2021TIP3    H127478   4.939   1.510  13.291  0.8082 -0.3057 -0.0672
 2021TIP3    H227479   4.865   1.582  13.180  0.0602 -0.8925  0.0385
 2022TIP3   OH227480   3.612   1.670  12.464 -0.6020 -0.3466  0.3925
 2022TIP3    H127481   3.565   1.737  12.515 -0.5295  2.0062 -2.3675
 2022TIP3    H227482   3.549   1.643  12.397  0.8522  0.6184 -1.4879
 2023TIP3   OH227483   3.588   6.095   0.874 -0.0855  0.0675 -0.0428
 2023TIP3    H127484   3.499   6.074   0.846 -0.1593 -0.2696  0.4378
 2023TIP3    H227485   3.640   6.092   0.794 -0.2844 -0.9458 -0.1461
 2024TIP3   OH227486   4.292   0.383  13.269  0.5108 -0.4631  0.1001
 2024TIP3    H127487   4.353   0.369  13.197  3.3632  0.5675  2.1068
 2024TIP3    H227488   4.305   0.475  13.294 -0.8483 -0.6183  1.5254
 2025TIP3   OH227489   5.413   6.268   5.808 -0.3341 -0.4400  0.3832
 2025TIP3    H127490   5.508   6.271   5.804 -0.2661  1.0617  2.1159
 2025TIP3    H227491   5.390   6.318   5.886 -2.6806  1.9478 -1.6320
 2026TIP3   OH227492   6.545   6.403   2.383  0.3306 -0.1609 -0.1177
 2026TIP3    H127493   6.571   6.335   2.445  4.0819  1.6825  0.6169
 2026TIP3    H227494   6.542   6.358   2.298 -1.9808 -2.0918  0.8723
 2027TIP3   OH227495   5.454   4.117  16.321 -0.2768  0.2575  0.3788
 2027TIP3    H127496   5.520   4.176  16.355  0.8996 -0.6952 -0.1821
 2027TIP3    H227497   5.453   4.133  16.227  0.2705 -0.7852  0.1742
 2028TIP3   OH227498   1.760   1.354   5.669 -0.1465 -0.0505  0.4365
 2028TIP3    H127499   1.668   1.374   5.651  0.1782  1.2358  0.1141
 2028TIP3    H227500   1.804   1.360   5.584  0.4935  0.9106  0.8142
 2029TIP3   OH227501   0.873   4.500  17.118 -0.0210  0.2452  0.5976
 2029TIP3    H127502   0.790   4.452  17.122 -0.2502  0.4847 -0.8622
 2029TIP3    H227503   0.938   4.438  17.150 -0.3730 -0.8761 -0.7877
 2030TIP3   OH227504   3.882   0.481  13.218 -0.6518 -0.0229 -0.6650
 2030TIP3    H127505   3.849   0.569  13.239 -0.1134  0.2521 -0.9661
 2030TIP3    H227506   3.976   0.486  13.234 -0.7288 -0.7615  0.0278
 2031TIP3   OH227507   3.021   2.669   1.163  0.3467  0.2799  0.0369
 2031TIP3    H127508   3.024   2.657   1.068  0.8244  0.4908  0.0184
 2031TIP3    H227509   3.050   2.585   1.199 -1.4372 -0.3668  0.0483
 2032TIP3   OH227510   5.492   1.070   1.385 -0.0098  0.4829 -0.3865
 2032TIP3    H127511   5.522   1.097   1.471 -1.5986  1.0089  0.0425
 2032TIP3    H227512   5.570   1.039   1.340  1.1773  1.9744  0.5684
 2033TIP3   OH227513   3.825   3.513  13.637 -0.2030 -0.0038 -0.1821
 2033TIP3    H127514   3.768   3.545  13.566 -0.2577 -0.2211 -0.2373
 2033TIP3    H227515   3.847   3.423  13.611  1.1259  0.4626 -0.7603
 2034TIP3   OH227516   5.439   3.220   4.681  0.2366  0.1827  0.5185
 2034TIP3    H127517   5.365   3.279   4.694 -0.9376 -1.0902 -0.0611
 2034TIP3    H227518   5.485   3.255   4.605 -0.4106  0.4158  0.2193
 2035TIP3   OH227519   0.456   4.965   4.799  0.2074 -0.7417  0.4839
 2035TIP3    H127520   0.430   4.873   4.790 -1.2272 -0.6002  2.3850
 2035TIP3    H227521   0.375   5.014   4.783  0.8017  0.1477  0.1711
 2036TIP3   OH227522   2.950   0.648   2.450  0.4953  0.2198 -0.5357
 2036TIP3    H127523   2.960   0.619   2.540  0.2734  0.4806 -0.4240
 2036TIP3    H227524   2.944   0.568   2.399  0.0639  0.0659 -0.2530
 2037TIP3   OH227525   3.299   2.534   5.160  0.0743  0.0095 -0.2809
 2037TIP3    H127526   3.348   2.483   5.225  0.1327 -1.0862 -1.1418
 2037TIP3    H227527   3.349   2.522   5.078 -0.0245  1.3146 -0.5497
 2038TIP3   OH227528   2.527   4.990   2.061 -0.3060  0.0481  0.5012
 2038TIP3    H127529   2.578   4.933   2.118  1.0220  0.5017 -0.2019
 2038TIP3    H227530   2.476   4.930   2.007  1.8561 -0.5812 -0.9648
 2039TIP3   OH227531   4.264   1.945  15.069 -0.1498 -0.6366 -0.8125
 2039TIP3    H127532   4.179   1.924  15.030  0.2281  0.0588 -2.0480
 2039TIP3    H227533   4.317   1.977  14.996  0.1162  2.1609  0.4943
 2040TIP3   OH227534   1.004   6.479  14.795  0.2125 -0.5667  0.0277
 2040TIP3    H127535   1.036   6.539  14.727  1.9565 -0.3035  1.0171
 2040TIP3    H227536   1.084   6.441  14.832 -0.7000 -0.7345  1.9089
 2041TIP3   OH227537   0.332   4.507  12.686  0.0438 -0.4329 -0.2147
 2041TIP3    H127538   0.376   4.421  12.685 -0.8142 -0.8823 -1.2908
 2041TIP3    H227539   0.242   4.488  12.661  0.1118  0.9271 -1.6221
 2042TIP3   OH227540   3.328   1.789  16.325 -0.1515  0.4118 -0.5862
 2042TIP3    H127541   3.350   1.712  16.273 -2.8154 -1.1052  0.3762
 2042TIP3    H227542   3.237   1.808  16.303 -0.7581  0.9039  2.0014
 2043TIP3   OH227543   1.420   4.871  13.278 -0.3158  0.2276 -0.2538
 2043TIP3    H127544   1.484   4.800  13.284 -0.8151 -0.3185 -1.1932
 2043TIP3    H227545   1.473   4.951  13.283  0.9664 -0.1206 -4.3568
 2044TIP3   OH227546   0.361   6.437   1.831  0.0739 -0.1695 -0.0514
 2044TIP3    H127547   0.309   6.356   1.836  0.1185 -0.2814 -1.0734
 2044TIP3    H227548   0.446   6.413   1.869  0.2560 -0.7739 -0.7915
 2045TIP3   OH227549   1.214   5.598   1.861 -0.5992  0.2216  0.0582
 2045TIP3    H127550   1.243   5.516   1.821 -0.7774 -0.8336  1.9430
 2045TIP3    H227551   1.281   5.617   1.927  0.7729  2.9802 -1.9443
 2046TIP3   OH227552   0.309   3.595   0.771 -0.5849 -0.0233 -0.0463
 2046TIP3    H127553   0.283   3.664   0.832  0.3523  0.2212  0.0894
 2046TIP3    H227554   0.372   3.638   0.712  2.1054 -1.3366  1.6507
 2047TIP3   OH227555   6.595   2.233  16.746  0.2531  0.0567  0.2732
 2047TIP3    H127556   6.528   2.298  16.725 -0.8702 -0.1506  2.7977
 2047TIP3    H227557   6.678   2.280  16.735 -0.4383  1.2655  0.0172
 2048TIP3   OH227558   0.452   4.180   5.782  0.3685 -0.2627 -0.0389
 2048TIP3    H127559   0.539   4.182   5.822  0.8776 -0.3202 -1.1045
 2048TIP3    H227560   0.428   4.273   5.773  1.1975 -0.1619 -1.5376
 2049TIP3   OH227561   2.034   2.409  11.861 -0.2413  0.2189  0.9200
 2049TIP3    H127562   2.055   2.394  11.954 -0.1418  0.1019  0.8807
 2049TIP3    H227563   2.060   2.328  11.818  0.7975  0.6886  0.6212
 2050TIP3   OH227564   3.931   2.298  13.157 -0.1726  0.4107 -0.1009
 2050TIP3    H127565   3.980   2.373  13.122  0.9125  0.2014  0.9058
 2050TIP3    H227566   3.846   2.334  13.181  0.3207  1.3384  0.3412
 2051TIP3   OH227567   0.739   1.101   5.571 -0.6225  0.0268  0.1649
 2051TIP3    H127568   0.814   1.085   5.515 -1.4851 -0.7000 -0.8216
 2051TIP3    H227569   0.705   1.186   5.542 -0.3638  0.2190  0.4164
 2052TIP3   OH227570   1.236   2.378   6.281 -0.1573 -0.2885 -0.4085
 2052TIP3    H127571   1.310   2.350   6.227 -0.7323  0.8938 -1.8832
 2052TIP3    H227572   1.166   2.396   6.218 -1.0296  0.6314  0.7797
 2053TIP3   OH227573   1.837   1.623  16.727 -0.1364 -0.5032 -0.3478
 2053TIP3    H127574   1.887   1.546  16.700  3.0213  0.3029  2.4320
 2053TIP3    H227575   1.896   1.696  16.710 -1.8021  0.9853 -0.0135
 2054TIP3   OH227576   5.741   4.005  15.055  0.2343 -0.2831  0.6573
 2054TIP3    H127577   5.799   4.073  15.087 -1.2835  1.3284  0.1290
 2054TIP3    H227578   5.799   3.930  15.038  2.1442  1.2307  0.1354
 2055TIP3   OH227579   5.955   4.169   3.098 -0.2678 -0.5842  0.2470
 2055TIP3    H127580   5.920   4.201   3.015 -0.5960  0.0307  0.6176
 2055TIP3    H227581   5.914   4.083   3.110  0.8746 -1.3220 -0.9127
 2056TIP3   OH227582   3.232   2.414  16.360 -0.2052  0.7842 -0.2392
 2056TIP3    H127583   3.143   2.415  16.326 -0.2472  0.6043 -0.1306
 2056TIP3    H227584   3.249   2.505  16.385 -0.3407  0.8264 -0.3041
 2057TIP3   OH227585   5.522   5.304  17.113 -0.7960  0.8088 -0.3066
 2057TIP3    H127586   5.540   5.398  17.113 -1.2225  0.8915  0.1327
 2057TIP3    H227587   5.530   5.279  17.021  1.0402  0.9300 -0.2156
 2058TIP3   OH227588   2.532   2.142   1.422  0.0445  0.0568 -0.3328
 2058TIP3    H127589   2.591   2.186   1.484  1.4714 -1.3467 -0.6375
 2058TIP3    H227590   2.495   2.214   1.370  2.6463  0.9568 -1.1252
 2059TIP3   OH227591   4.588   5.196  15.649  0.7014  0.1680 -0.8551
 2059TIP3    H127592   4.597   5.235  15.736  0.2953 -0.2672 -0.6167
 2059TIP3    H227593   4.614   5.266  15.589 -1.0681  1.1979 -0.4965
 2060TIP3   OH227594   6.277   3.715   0.303  0.8304  0.3404  0.0774
 2060TIP3    H127595   6.327   3.780   0.352  0.8197  0.8056 -0.5209
 2060TIP3    H227596   6.211   3.684   0.364  3.1404 -1.9012  1.6826
 2061TIP3   OH227597   4.517   3.651  15.076  0.2472 -0.1804 -0.4345
 2061TIP3    H127598   4.557   3.615  14.997 -2.1819  0.3296 -2.0060
 2061TIP3    H227599   4.432   3.607  15.082  0.1715  0.1621  1.6467
 2062TIP3   OH227600   6.230   1.117   1.167 -0.3165  0.0669 -0.4230
 2062TIP3    H127601   6.176   1.112   1.246 -1.2307  1.5663 -0.9215
 2062TIP3    H227602   6.320   1.109   1.200 -0.7286 -0.4902  0.6325
 2063TIP3   OH227603   4.975   4.646   1.962 -0.0900 -0.1507 -0.4297
 2063TIP3    H127604   4.925   4.568   1.987  0.6583 -1.3834 -2.4816
 2063TIP3    H227605   5.065   4.626   1.988  0.0619  0.1202 -0.7360
 2064TIP3   OH227606   3.556   5.674   1.637 -0.1967  0.2100 -0.4992
 2064TIP3    H127607   3.607   5.744   1.596  0.5954  0.1332  0.2910
 2064TIP3    H227608   3.475   5.670   1.588 -0.7778  2.4909  0.1375
 2065TIP3   OH227609   4.294   4.799  12.401 -0.3430  0.3565 -0.1442
 2065TIP3    H127610   4.372   4.751  12.431 -0.9151  0.9742  2.6585
 2065TIP3    H227611   4.321   4.891  12.402 -1.3147  0.6931  1.9684
 2066TIP3   OH227612   1.502   2.887   2.823  0.2397  0.1427  0.1177
 2066TIP3    H127613   1.425   2.924   2.867 -0.6010  0.5962 -1.6713
 2066TIP3    H227614   1.572   2.948   2.843 -0.6148  1.4950 -0.8930
 2067TIP3   OH227615   5.780   4.430  11.837  0.6220 -1.1611  0.2330
 2067TIP3    H127616   5.829   4.351  11.858  0.0204 -1.4759  0.4694
 2067TIP3    H227617   5.691   4.399  11.818  0.2280 -0.4867  0.9139
 2068TIP3   OH227618   6.659   3.855   4.933  0.6216  0.6106 -0.5550
 2068TIP3    H127619   6.720   3.892   4.997  0.7716 -1.5939  0.6794
 2068TIP3    H227620   6.583   3.913   4.936  1.7600  2.1510 -0.5001
 2069TIP3   OH227621   3.643   4.838  13.921  0.0960 -0.0834  0.4054
 2069TIP3    H127622   3.593   4.869  13.845  1.4956 -0.8304 -0.8693
 2069TIP3    H227623   3.655   4.745  13.905 -1.0800 -0.6472  2.4582
 2070TIP3   OH227624   2.840   5.816  14.378 -0.2153 -0.0203 -0.1472
 2070TIP3    H127625   2.848   5.724  14.402  0.8365  0.2040  0.4150
 2070TIP3    H227626   2.822   5.815  14.284 -0.0411 -0.7952 -0.1751
 2071TIP3   OH227627   6.399   4.969   1.378  0.1455  0.3091  0.0628
 2071TIP3    H127628   6.313   4.982   1.339  1.4036  0.8599 -2.8209
 2071TIP3    H227629   6.439   5.056   1.378  0.8190  0.0241  1.0986
 2072TIP3   OH227630   0.501   5.928   4.176 -0.0774 -0.3411  0.9911
 2072TIP3    H127631   0.455   6.012   4.180 -2.3752 -1.5635  2.9693
 2072TIP3    H227632   0.461   5.882   4.102  1.7839  0.5413 -0.6457
 2073TIP3   OH227633   3.129   0.202   3.651 -0.1774  0.0292 -0.3692
 2073TIP3    H127634   3.110   0.112   3.676  0.7022 -0.3244 -0.9120
 2073TIP3    H227635   3.224   0.211   3.665  0.3499 -0.1305 -3.2738
 2074TIP3   OH227636   0.410   0.417  13.347  0.1458 -0.2692  0.4104
 2074TIP3    H127637   0.436   0.484  13.285  1.9643 -2.1413 -0.9853
 2074TIP3    H227638   0.360   0.464  13.414  0.3769  2.2394 -1.0629
 2075TIP3   OH227639   0.379   5.605   5.342  0.3165 -0.1520 -0.5642
 2075TIP3    H127640   0.338   5.519   5.343  0.3812 -0.1811 -0.2221
 2075TIP3    H227641   0.307   5.666   5.331  0.2450 -0.2397 -0.5826
 2076TIP3   OH227642   6.524   2.094   1.326  0.5661  0.4584  0.1804
 2076TIP3    H127643   6.481   2.011   1.347  0.9177 -0.4215 -2.2962
 2076TIP3    H227644   6.617   2.073   1.321  0.6213  0.8592 -0.8935
 2077TIP3   OH227645   4.092   6.725  12.691  0.2771 -0.4876  0.5325
 2077TIP3    H127646   4.098   6.800  12.749 -1.4482 -1.0114  1.4709
 2077TIP3    H227647   4.149   6.746  12.617  1.7211  0.6501  1.9067
 2078TIP3   OH227648   1.747   5.011  14.968  0.5670 -0.1789  0.3417
 2078TIP3    H127649   1.671   5.013  15.027  0.6194 -0.6586  0.4336
 2078TIP3    H227650   1.741   5.092  14.918 -1.8470 -1.5952 -1.9277
 2079TIP3   OH227651   4.223   2.221  14.344 -0.3260 -0.4337 -0.2634
 2079TIP3    H127652   4.240   2.229  14.250  0.2155  0.7976 -0.0720
 2079TIP3    H227653   4.167   2.144  14.351 -0.0735 -0.7637 -1.5575
 2080TIP3   OH227654   0.604   1.382  16.065  0.2708 -0.5930  0.5789
 2080TIP3    H127655   0.643   1.314  16.010  0.7560 -0.4338  0.7215
 2080TIP3    H227656   0.628   1.357  16.155 -0.5884 -0.8991  0.7358
 2081TIP3   OH227657   5.667   0.535  11.905 -0.0479 -0.3589 -0.2911
 2081TIP3    H127658   5.633   0.557  11.818  0.2040  1.3803  0.0249
 2081TIP3    H227659   5.613   0.586  11.965  1.8033  0.9607  0.3506
 2082TIP3   OH227660   3.174   5.723   1.849 -1.1263  0.1397  0.5216
 2082TIP3    H127661   3.202   5.811   1.826 -0.5067 -0.0345  0.6014
 2082TIP3    H227662   3.115   5.735   1.924 -1.3864  0.5156  0.2583
 2083TIP3   OH227663   6.076   3.716   3.978 -0.2569 -0.1120  0.1068
 2083TIP3    H127664   5.989   3.685   4.002 -0.6578  1.2179  0.4232
 2083TIP3    H227665   6.134   3.676   4.043 -0.4366 -1.9838 -0.8223
 2084TIP3   OH227666   0.384   1.213  13.841 -0.7592 -0.1034  0.3393
 2084TIP3    H127667   0.432   1.181  13.765 -2.0365  1.2189 -1.0782
 2084TIP3    H227668   0.377   1.307  13.828 -2.4700 -0.0588  1.2286
 2085TIP3   OH227669   1.595   2.616  14.749  0.0632 -0.1397  0.0797
 2085TIP3    H127670   1.517   2.567  14.776  0.7764 -1.7822 -0.6893
 2085TIP3    H227671   1.613   2.674  14.822 -0.8947 -0.9511  1.0018
 2086TIP3   OH227672   3.375   0.390   4.076  0.4108  0.1791 -0.6243
 2086TIP3    H127673   3.325   0.423   4.002 -0.5124  1.3670  0.4878
 2086TIP3    H227674   3.392   0.467   4.130 -1.7073 -1.0414  2.0116
 2087TIP3   OH227675   0.055   5.897  12.900  0.0633  0.1266  0.3725
 2087TIP3    H127676   0.049   5.981  12.854 -0.6312  1.3131  2.5006
 2087TIP3    H227677  -0.019   5.847  12.867  1.8103 -0.7091 -2.7178
 2088TIP3   OH227678   2.045   4.161   0.460 -0.9149  0.0279  0.5932
 2088TIP3    H127679   1.994   4.237   0.488 -1.1179  0.1440 -0.0748
 2088TIP3    H227680   2.015   4.144   0.370  0.8438  0.6597 -0.1708
 2089TIP3   OH227681   4.846   4.491   4.645 -0.0129  0.1400 -0.1471
 2089TIP3    H127682   4.830   4.531   4.731 -0.8721  1.1430 -0.7498
 2089TIP3    H227683   4.828   4.398   4.658  0.4731  0.1783  0.8995
 2090TIP3   OH227684   1.146   3.351   0.663  0.4656  0.1654 -0.3013
 2090TIP3    H127685   1.073   3.393   0.617 -0.5184 -0.4128  0.6737
 2090TIP3    H227686   1.159   3.268   0.619 -0.3240 -0.2872  0.2943
 2091TIP3   OH227687   6.342   5.133  13.519 -0.0467  0.2511  0.2811
 2091TIP3    H127688   6.349   5.040  13.542  0.8290  0.0723 -0.6322
 2091TIP3    H227689   6.428   5.170  13.539 -0.2858  0.7945  0.3213
 2092TIP3   OH227690   4.877   5.352  12.609 -0.1634 -0.3721 -0.3205
 2092TIP3    H127691   4.942   5.418  12.585 -1.3750  0.3844 -1.7350
 2092TIP3    H227692   4.924   5.269  12.607  1.8209  0.4663  3.0949
 2093TIP3   OH227693   6.363   6.426   1.375  0.7109 -0.6706 -0.3543
 2093TIP3    H127694   6.445   6.439   1.423  0.5883  0.3639 -0.3896
 2093TIP3    H227695   6.352   6.507   1.325 -0.6639 -0.5065  0.1607
 2094TIP3   OH227696   5.512   0.727  14.076 -0.3848  0.0873 -0.4889
 2094TIP3    H127697   5.519   0.799  14.140  2.6007 -0.9023  0.4427
 2094TIP3    H227698   5.425   0.738  14.038 -1.3950  2.1252  2.0806
 2095TIP3   OH227699   6.386   4.332  16.350 -0.3944 -0.1158 -0.2428
 2095TIP3    H127700   6.441   4.403  16.316 -1.2477  0.1518 -1.1477
 2095TIP3    H227701   6.447   4.264  16.376  0.4175  0.6907  0.0231
 2096TIP3   OH227702   5.010   3.102  17.116 -0.2839 -0.4562 -0.0991
 2096TIP3    H127703   5.103   3.081  17.111  0.3638  1.9839  0.0590
 2096TIP3    H227704   4.986   3.127  17.027 -0.7616 -0.9215 -0.1074
 2097TIP3   OH227705   1.711   1.967   1.298  0.3259  0.3700  0.0665
 2097TIP3    H127706   1.766   2.035   1.336  2.0352 -0.8842 -0.0249
 2097TIP3    H227707   1.767   1.925   1.233 -1.0344 -0.4439 -0.6281
 2098TIP3   OH227708   6.120   1.786  12.523 -0.1853  0.3272  0.2542
 2098TIP3    H127709   6.040   1.762  12.476  0.1854 -1.8224  0.6089
 2098TIP3    H227710   6.125   1.881  12.515 -0.0277  0.1305 -4.2295
 2099TIP3   OH227711   6.255   3.059   2.604  0.0853  0.7716 -0.4552
 2099TIP3    H127712   6.195   2.998   2.561  1.0074 -1.1427  0.8151
 2099TIP3    H227713   6.325   3.073   2.540  0.5635 -0.6648 -0.2993
 2100TIP3   OH227714   5.044   5.463  12.317  0.6977  0.4894  0.1981
 2100TIP3    H127715   5.025   5.501  12.403 -0.2850  3.0667 -1.0482
 2100TIP3    H227716   4.963   5.472  12.268  1.3552 -0.5476 -1.1445
 2101TIP3   OH227717   2.698   4.566   3.868 -0.0194 -0.2925 -0.4086
 2101TIP3    H127718   2.703   4.471   3.861  0.0757 -0.3289  0.0914
 2101TIP3    H227719   2.715   4.598   3.780  2.2452 -0.6473 -0.1482
 2102TIP3   OH227720   3.972   6.113   0.188 -0.1782  0.1822  0.0861
 2102TIP3    H127721   3.940   6.103   0.098  0.5705  0.8577 -0.2603
 2102TIP3    H227722   4.052   6.060   0.191  0.6711  1.4129 -0.1168
 2103TIP3   OH227723   0.499   1.337   4.348 -0.1123 -0.1407  0.2295
 2103TIP3    H127724   0.461   1.272   4.290  0.3827  0.1613 -0.4563
 2103TIP3    H227725   0.594   1.323   4.341 -0.0143  0.4502  0.3037
 2104TIP3   OH227726   5.891   6.078   1.481  0.5918 -0.3458  1.0432
 2104TIP3    H127727   5.822   6.107   1.541  0.4603 -0.4233  0.9311
 2104TIP3    H227728   5.888   6.141   1.409 -0.5762 -1.3775  0.1573
 2105TIP3   OH227729   3.099   0.688   4.240  0.0753  0.7807 -0.3255
 2105TIP3    H127730   3.043   0.645   4.306  2.3673 -2.0944 -0.0118
 2105TIP3    H227731   3.113   0.776   4.274  0.2506 -0.2408  2.5296
 2106TIP3   OH227732   4.743   3.670   1.928  0.1259 -0.2276 -0.1715
 2106TIP3    H127733   4.705   3.583   1.940  1.9393 -1.0086  0.3094
 2106TIP3    H227734   4.824   3.654   1.880  0.6103  1.1677  0.1343
 2107TIP3   OH227735   0.196   4.394  15.762 -0.1263  0.1414 -0.1523
 2107TIP3    H127736   0.260   4.375  15.831 -0.0524  1.5374  0.1783
 2107TIP3    H227737   0.117   4.350  15.791  0.2885 -0.4356  0.1320
 2108TIP3   OH227738   2.637   3.312  13.529  0.0268 -0.4712 -0.2604
 2108TIP3    H127739   2.653   3.402  13.502 -2.6134  0.2199  0.2049
 2108TIP3    H227740   2.577   3.278  13.463  0.7165 -1.8134 -0.2308
 2109TIP3   OH227741   4.197   2.610   1.257  0.4259 -0.4660  0.6628
 2109TIP3    H127742   4.235   2.534   1.302 -1.3296 -0.2360  2.6818
 2109TIP3    H227743   4.116   2.629   1.305 -0.5706  1.0532 -1.4444
 2110TIP3   OH227744   0.042   4.652   1.076  0.2762 -0.1905  0.5649
 2110TIP3    H127745  -0.000   4.726   1.034  0.9770  0.5269  1.1040
 2110TIP3    H227746   0.013   4.576   1.025 -1.7973  0.2307  1.0113
 2111TIP3   OH227747   6.117   1.817  13.916 -0.3003 -0.0182 -0.3552
 2111TIP3    H127748   6.173   1.823  13.994 -2.3217  0.3530  1.1561
 2111TIP3    H227749   6.152   1.743  13.867  0.7924 -0.5355  1.1227
 2112TIP3   OH227750   0.309   4.885  13.809 -0.2700 -0.2120 -0.5145
 2112TIP3    H127751   0.222   4.876  13.771 -0.7983 -0.4902  0.7289
 2112TIP3    H227752   0.340   4.970  13.779 -0.3718 -0.6957 -2.1192
 2113TIP3   OH227753   3.424   5.497  15.971  0.1565  0.0581  0.0440
 2113TIP3    H127754   3.398   5.564  15.908  3.3640  0.9150 -0.5605
 2113TIP3    H227755   3.390   5.529  16.055 -0.1706  1.3871 -0.5606
 2114TIP3   OH227756   2.801   5.018   4.800 -0.1096  0.4066  0.1161
 2114TIP3    H127757   2.835   4.963   4.871  0.3342  0.8503  0.2509
 2114TIP3    H227758   2.747   4.958   4.748 -2.1879  0.5135  1.9933
 2115TIP3   OH227759   3.268   5.104   4.754  0.0263  0.0136  0.0914
 2115TIP3    H127760   3.248   5.036   4.689 -0.2074 -1.4659  1.6352
 2115TIP3    H227761   3.263   5.186   4.705  1.3402 -1.1206 -2.0949
 2116TIP3   OH227762   4.209   4.128   5.742  0.3772  0.0640 -0.7456
 2116TIP3    H127763   4.231   4.173   5.824 -1.5537  1.5992 -1.0080
 2116TIP3    H227764   4.159   4.051   5.771 -1.1940  1.1381 -0.4389
 2117TIP3   OH227765   1.116   3.110  14.359 -0.5280  0.0400 -0.6015
 2117TIP3    H127766   1.199   3.141  14.322  0.6281 -1.9656  0.1351
 2117TIP3    H227767   1.093   3.033  14.307 -0.6862 -0.7639  0.5965
 2118TIP3   OH227768   2.955   5.808  16.987  0.5941 -0.3500 -0.6834
 2118TIP3    H127769   2.900   5.737  17.021 -0.5811  0.9136  0.1544
 2118TIP3    H227770   3.000   5.769  16.912 -3.2707 -0.9062 -3.0032
 2119TIP3   OH227771   3.520   6.698  12.124 -0.8060  0.7642  0.1570
 2119TIP3    H127772   3.433   6.721  12.092 -0.6226  0.9844 -0.1919
 2119TIP3    H227773   3.505   6.662  12.211 -1.2747  0.5086 -0.0260
 2120TIP3   OH227774   3.414   4.132   3.153  0.0270 -0.3182 -0.2579
 2120TIP3    H127775   3.319   4.127   3.151 -0.1056  1.4973 -0.2032
 2120TIP3    H227776   3.442   4.087   3.073 -0.7192 -2.6360  0.7039
 2121TIP3   OH227777   2.091   1.153  11.058 -0.8795 -0.3430 -0.1672
 2121TIP3    H127778   2.072   1.061  11.075 -1.0270 -0.4237 -0.7290
 2121TIP3    H227779   2.088   1.160  10.962 -3.1957  0.7528 -0.0615
 2122TIP3   OH227780   0.310   1.741   1.785  0.6037 -0.3297 -0.3680
 2122TIP3    H127781   0.247   1.669   1.789  0.0833  0.0820 -0.8896
 2122TIP3    H227782   0.296   1.788   1.867  0.5853 -0.5295 -0.2552
 2123TIP3   OH227783   6.611   2.808   3.422  0.0058 -0.4015  0.7921
 2123TIP3    H127784   6.701   2.828   3.450 -0.3611  1.4105  0.7688
 2123TIP3    H227785   6.561   2.803   3.504 -0.3659  1.2634  0.6905
 2124TIP3   OH227786   1.155   5.401   2.832 -0.3549 -0.0633  0.2794
 2124TIP3    H127787   1.120   5.327   2.781 -1.5269  1.6500 -1.5329
 2124TIP3    H227788   1.236   5.425   2.786 -0.4485  0.3458  0.3268
 2125TIP3   OH227789   4.939   5.688  16.869 -0.2849 -0.0706 -0.4168
 2125TIP3    H127790   5.000   5.717  16.801  1.1866  0.4694  1.0450
 2125TIP3    H227791   4.970   5.600  16.893 -1.7902 -0.9432 -1.5184
 2126TIP3   OH227792   1.297   3.693   1.309  0.2096  0.5789  0.4491
 2126TIP3    H127793   1.325   3.611   1.268  1.3131  1.0627  0.1936
 2126TIP3    H227794   1.276   3.750   1.235 -0.4718  0.5566  0.6252
 2127TIP3   OH227795   1.894   2.355  12.443 -0.2565 -0.7092 -0.0962
 2127TIP3    H127796   1.973   2.404  12.468  0.5056 -0.8485 -2.0307
 2127TIP3    H227797   1.918   2.263  12.453 -0.2145 -0.7482 -0.5278
 2128TIP3   OH227798   5.165   1.386   3.410 -0.0157 -0.2660 -0.3352
 2128TIP3    H127799   5.153   1.405   3.317  1.0800  0.3979 -0.3523
 2128TIP3    H227800   5.091   1.430   3.452 -0.8486 -1.0610 -0.9329
 2129TIP3   OH227801   1.275   5.017   2.738  0.0926 -0.8149  0.7864
 2129TIP3    H127802   1.300   5.080   2.671 -0.4425 -1.1084  0.3061
 2129TIP3    H227803   1.355   5.005   2.790  0.4219 -0.3508  0.4026
 2130TIP3   OH227804   4.162   4.477  14.266 -0.0920  0.6058 -0.3305
 2130TIP3    H127805   4.113   4.395  14.262 -0.9212  0.9784  1.4026
 2130TIP3    H227806   4.252   4.452  14.249 -0.0089 -1.0267  2.0605
 2131TIP3   OH227807   6.673   2.436   4.192 -0.7180 -0.4977 -0.1691
 2131TIP3    H127808   6.606   2.472   4.134 -1.4218  0.8368  1.4117
 2131TIP3    H227809   6.733   2.390   4.133 -1.4793  0.6702 -1.9358
 2132TIP3   OH227810   5.744   0.550   3.895  0.0992  0.3353  0.6049
 2132TIP3    H127811   5.771   0.559   3.803  1.8056 -0.5485  0.9741
 2132TIP3    H227812   5.667   0.606   3.903  0.2934  0.9298 -1.2125
 2133TIP3   OH227813   4.938   2.920  14.446  0.6114 -0.1384  0.5354
 2133TIP3    H127814   5.021   2.897  14.488  2.1675  1.7812 -1.2876
 2133TIP3    H227815   4.903   2.990  14.502  0.6301 -0.3839  0.8601
 2134TIP3   OH227816   2.352   5.310  16.095 -0.1073 -0.5847 -0.1261
 2134TIP3    H127817   2.360   5.346  16.184  0.9504 -0.6230 -0.2048
 2134TIP3    H227818   2.339   5.386  16.039  0.8416 -0.4290 -0.1347
 2135TIP3   OH227819   1.650   1.801  10.887 -0.0544  0.1813  0.1257
 2135TIP3    H127820   1.694   1.759  10.813 -1.3494  0.4203 -0.8118
 2135TIP3    H227821   1.701   1.880  10.904  0.0533  0.3086 -0.7548
 2136TIP3   OH227822   2.761   3.929  14.350 -0.0439  0.3313  0.0444
 2136TIP3    H127823   2.819   3.862  14.314 -0.0173 -0.1480  0.9706
 2136TIP3    H227824   2.675   3.887  14.356 -0.6497  1.1735 -1.7472
 2137TIP3   OH227825   0.196   4.128   6.542 -0.0088  0.5522  0.1260
 2137TIP3    H127826   0.243   4.056   6.585  2.1217  0.4191 -2.1937
 2137TIP3    H227827   0.250   4.205   6.558 -1.4679  1.3908  1.2655
 2138TIP3   OH227828   2.497   0.900  11.351 -0.2907 -0.4033  0.1820
 2138TIP3    H127829   2.509   0.843  11.427  0.8344 -0.7293 -0.2229
 2138TIP3    H227830   2.524   0.987  11.381  1.1585 -0.7214 -0.1016
 2139TIP3   OH227831   0.915   2.734   5.237  0.5913 -0.3858  0.1432
 2139TIP3    H127832   0.911   2.648   5.280 -1.3720  0.6055  2.1560
 2139TIP3    H227833   0.966   2.788   5.297 -0.2715  0.4581  0.1327
 2140TIP3   OH227834   1.263   1.411   4.117  0.1252  0.6926  0.8181
 2140TIP3    H127835   1.190   1.472   4.108  0.4646  1.5626  3.1166
 2140TIP3    H227836   1.339   1.466   4.133  0.3477 -0.2383  3.5296
 2141TIP3   OH227837   3.691   1.361  15.954  0.0878  0.0770 -0.5573
 2141TIP3    H127838   3.640   1.331  15.878 -0.4409 -1.9430  0.5157
 2141TIP3    H227839   3.782   1.342  15.930 -0.2559 -4.2332  0.6031
 2142TIP3   OH227840   5.284   3.818   1.190 -0.3603 -0.1443  0.6865
 2142TIP3    H127841   5.364   3.858   1.155 -1.3404  1.7860  0.5809
 2142TIP3    H227842   5.231   3.891   1.220 -1.0902 -1.5228  3.0205
 2143TIP3   OH227843   6.023   5.917   3.194  0.1456  0.3287  0.3717
 2143TIP3    H127844   6.076   5.995   3.213 -1.7366  1.4539  1.3244
 2143TIP3    H227845   5.948   5.950   3.144 -0.5643 -0.9127  0.5650
 2144TIP3   OH227846   5.484   5.947   6.362 -0.4538  0.1925 -0.4693
 2144TIP3    H127847   5.566   5.925   6.407 -0.2788  1.1780 -0.2814
 2144TIP3    H227848   5.422   5.965   6.433 -1.2462 -1.8642 -0.5741
 2145TIP3   OH227849   4.516   4.349  11.269  0.2849  0.0914 -0.8704
 2145TIP3    H127850   4.439   4.389  11.310  1.2014 -0.8246  1.9642
 2145TIP3    H227851   4.591   4.393  11.310  1.3276 -3.5630  1.6274
 2146TIP3   OH227852   1.576   3.537   6.361  0.0997 -0.0722  0.0856
 2146TIP3    H127853   1.621   3.453   6.366  0.9818  0.2218 -1.8005
 2146TIP3    H227854   1.641   3.601   6.390 -0.0387  0.1043  0.0087
 2147TIP3   OH227855   5.286   2.070   6.494  0.0371 -0.6697 -0.4628
 2147TIP3    H127856   5.272   2.012   6.418  1.2909 -0.2791 -1.0220
 2147TIP3    H227857   5.326   2.013   6.560  1.7421 -0.3834 -1.1916
 2148TIP3   OH227858   2.452   1.623   0.058  0.3063 -0.3138 -0.2536
 2148TIP3    H127859   2.384   1.640  -0.007 -1.0710 -0.6401  1.0275
 2148TIP3    H227860   2.534   1.640   0.013 -0.6795  1.9389 -1.3364
 2149TIP3   OH227861   6.294   4.637  11.628 -0.5441  0.1895  0.4815
 2149TIP3    H127862   6.278   4.558  11.577  0.7793  0.6470 -0.7075
 2149TIP3    H227863   6.219   4.643  11.686 -0.5936 -2.0325  0.7447
 2150TIP3   OH227864   3.948   4.130   5.963  0.0145  0.0906 -0.1655
 2150TIP3    H127865   3.864   4.134   6.009 -0.7310 -1.7429 -1.2741
 2150TIP3    H227866   4.001   4.199   6.003 -1.1704 -0.3168  2.2497
 2151TIP3   OH227867   4.738   4.077   2.978 -0.3259  0.0861  0.3236
 2151TIP3    H127868   4.814   4.049   2.927 -0.9149  0.9450 -1.1132
 2151TIP3    H227869   4.677   4.003   2.972 -1.8424  1.3749 -3.3805
 2152TIP3   OH227870   0.713   1.050  16.346 -0.0243  0.1864  0.5370
 2152TIP3    H127871   0.804   1.035  16.322  0.0263 -0.2384  0.9750
 2152TIP3    H227872   0.709   1.142  16.371  0.2888  0.1969  0.5467
 2153TIP3   OH227873   2.102   2.675   2.357  0.3090 -0.3237  0.1656
 2153TIP3    H127874   2.108   2.614   2.431  0.4083 -0.2367  0.2290
 2153TIP3    H227875   2.015   2.660   2.321  0.6085 -1.0443 -0.2882
 2154TIP3   OH227876   5.091   3.913  15.564 -0.5269  0.4593 -0.0702
 2154TIP3    H127877   5.141   3.842  15.524  0.6686  0.4060  1.4109
 2154TIP3    H227878   5.000   3.885  15.560 -0.1371 -0.8349 -0.1511
 2155TIP3   OH227879   2.742   3.776   1.112 -0.2189 -0.0877  0.1952
 2155TIP3    H127880   2.778   3.732   1.035 -2.2611 -0.7052 -0.4750
 2155TIP3    H227881   2.799   3.852   1.125  0.9283 -0.6801 -1.1287
 2156TIP3   OH227882   3.090   4.619   3.895 -0.1254  0.4171  0.1945
 2156TIP3    H127883   3.090   4.552   3.964 -1.0995 -0.9877 -1.1015
 2156TIP3    H227884   3.180   4.651   3.892  1.0943 -2.7457 -0.8865
 2157TIP3   OH227885   3.181   2.897  16.196  0.6446  0.1452 -0.2644
 2157TIP3    H127886   3.103   2.893  16.141 -0.8443  0.3446  1.7350
 2157TIP3    H227887   3.196   2.991  16.209 -0.7823  0.1323  1.9539
 2158TIP3   OH227888   1.526   4.908  12.539  0.3044 -0.9226  0.4250
 2158TIP3    H127889   1.620   4.908  12.556  0.5008  3.8300  0.4249
 2158TIP3    H227890   1.519   4.889  12.445  1.5627  1.4043 -0.1986
 2159TIP3   OH227891   1.697   6.039  13.940 -0.0789 -0.5225 -0.2489
 2159TIP3    H127892   1.756   6.008  14.008 -0.0231 -1.7191 -0.8159
 2159TIP3    H227893   1.751   6.093  13.882  0.1155 -0.3946  0.0536
 2160TIP3   OH227894   2.625   6.084   5.828  0.0726  0.1717  0.3672
 2160TIP3    H127895   2.655   6.150   5.891 -0.3288  0.4810  0.2422
 2160TIP3    H227896   2.530   6.085   5.837 -0.0785  1.0537 -1.0622
 2161TIP3   OH227897   6.262   0.997  11.621 -0.2248 -0.1642  0.4299
 2161TIP3    H127898   6.245   0.978  11.529 -2.2567 -0.6187  0.8375
 2161TIP3    H227899   6.357   1.008  11.627 -0.0468 -0.2177 -1.6816
 2162TIP3   OH227900   1.507   2.409   2.728 -0.1534 -0.4246 -0.2994
 2162TIP3    H127901   1.516   2.329   2.676 -0.7639 -2.9998  3.2321
 2162TIP3    H227902   1.521   2.381   2.818  1.3637  3.8441  1.0180
 2163TIP3   OH227903   4.445   5.887  14.813 -0.4552  0.1282  0.2152
 2163TIP3    H127904   4.412   5.904  14.725 -0.2750  0.4149  0.2055
 2163TIP3    H227905   4.373   5.842  14.857 -0.6515  0.2502  0.0167
 2164TIP3   OH227906   4.288   3.464  15.327  0.1248  0.7029  0.9718
 2164TIP3    H127907   4.217   3.454  15.390 -0.0782  1.3097  0.8400
 2164TIP3    H227908   4.267   3.403  15.257 -0.5462  1.2563  0.6862
 2165TIP3   OH227909   5.740   4.852   3.800  0.3876  0.3925  0.1857
 2165TIP3    H127910   5.675   4.784   3.782  1.5054 -0.7400  0.2760
 2165TIP3    H227911   5.726   4.918   3.732 -1.3553  0.5710  0.6750
 2166TIP3   OH227912   3.577   2.569  13.476  0.3173  0.0618  0.0150
 2166TIP3    H127913   3.499   2.513  13.473  0.1644  0.2874 -0.3306
 2166TIP3    H227914   3.573   2.619  13.394  0.2836  0.8010  0.4649
 2167TIP3   OH227915   5.392   5.958  14.434  0.5734 -0.0649 -0.4453
 2167TIP3    H127916   5.331   5.913  14.375 -0.3200 -0.5510  0.7880
 2167TIP3    H227917   5.377   6.051  14.417  1.3715 -0.1915 -1.9746
 2168TIP3   OH227918   5.648   3.567  13.125 -0.3218 -0.3124  0.5096
 2168TIP3    H127919   5.615   3.515  13.051 -0.4274  0.2867  0.1283
 2168TIP3    H227920   5.708   3.508  13.170 -1.8617 -1.4265  1.2063
 2169TIP3   OH227921   3.382   0.160  15.012  0.8074  0.5767  0.0532
 2169TIP3    H127922   3.362   0.144  15.104 -2.9889  3.1581 -0.1028
 2169TIP3    H227923   3.301   0.139  14.966  2.0659  0.9284 -2.5140
 2170TIP3   OH227924   2.008   5.490   4.450  0.1254 -0.2594  0.6561
 2170TIP3    H127925   2.043   5.577   4.467  0.2810 -0.2704  0.4031
 2170TIP3    H227926   2.083   5.431   4.463 -0.0367 -0.3760  1.0542
 2171TIP3   OH227927   3.390   5.020  12.895 -0.2317 -0.1739  0.2890
 2171TIP3    H127928   3.445   4.977  12.961  0.3049  2.8491  2.0176
 2171TIP3    H227929   3.445   5.091  12.862 -1.5774  0.2082 -1.2388
 2172TIP3   OH227930   0.368   4.596   2.252 -0.2872 -0.1241  0.1309
 2172TIP3    H127931   0.389   4.504   2.236  0.4995 -0.2038  1.4337
 2172TIP3    H227932   0.353   4.601   2.347  1.4886  1.3865  0.4163
 2173TIP3   OH227933   5.974   4.753  15.064  0.2439 -0.3063  0.3719
 2173TIP3    H127934   5.986   4.847  15.082  3.0370 -0.8341  1.7774
 2173TIP3    H227935   6.021   4.709  15.134 -1.0303 -2.8122 -0.2367
 2174TIP3   OH227936   1.761   0.436   4.615  0.3540 -0.2680 -0.1405
 2174TIP3    H127937   1.722   0.461   4.531  1.3630  0.9698 -0.2798
 2174TIP3    H227938   1.737   0.507   4.674 -0.5203 -1.2341  0.6903
 2175TIP3   OH227939   2.987   1.165   0.660 -0.1557  0.1929  0.3863
 2175TIP3    H127940   2.902   1.159   0.615 -0.1043  0.8622  0.1958
 2175TIP3    H227941   3.045   1.205   0.596 -0.2486  1.8059  1.2684
 2176TIP3   OH227942   0.864   1.813   3.065 -0.0659 -0.1147  0.4898
 2176TIP3    H127943   0.946   1.777   3.032 -1.0474 -1.5230 -0.4787
 2176TIP3    H227944   0.877   1.818   3.160  1.3171  0.2002  0.3128
 2177TIP3   OH227945   0.302   4.216  11.250  0.4052  0.0961  0.5846
 2177TIP3    H127946   0.241   4.158  11.297 -0.9777  0.1140 -1.1030
 2177TIP3    H227947   0.282   4.303  11.284 -1.1674  0.2194 -0.5419
 2178TIP3   OH227948   6.033   2.520  15.584  0.0917 -0.0891 -0.5459
 2178TIP3    H127949   5.970   2.511  15.655  1.2761 -0.2873  0.5254
 2178TIP3    H227950   6.039   2.433  15.545 -0.0095 -0.1566 -0.4100
 2179TIP3   OH227951   1.031   4.289   2.820  0.3046 -0.5370  0.3256
 2179TIP3    H127952   1.040   4.311   2.912  3.9924  1.8492 -0.4034
 2179TIP3    H227953   1.068   4.202   2.812 -0.8750 -1.1440  1.1551
 2180TIP3   OH227954   4.080   2.785   5.363  0.1696 -0.1956 -0.6421
 2180TIP3    H127955   4.019   2.755   5.295 -0.0081 -1.3449 -0.0194
 2180TIP3    H227956   4.117   2.866   5.329 -0.0879 -0.6230 -1.9980
 2181TIP3   OH227957   2.957   0.888   0.472 -0.3600  0.1880  0.3547
 2181TIP3    H127958   3.046   0.871   0.503 -0.1204 -0.0296 -0.4347
 2181TIP3    H227959   2.952   0.843   0.388 -1.5535 -0.6599  0.8537
 2182TIP3   OH227960   3.683   6.460   1.820 -0.0635  0.5354 -0.3182
 2182TIP3    H127961   3.679   6.404   1.898 -0.2078 -0.4032 -0.9783
 2182TIP3    H227962   3.755   6.520   1.838  1.6348 -1.3327 -0.5051
 2183TIP3   OH227963   1.789   2.525  12.708 -0.3945  0.0833 -0.2783
 2183TIP3    H127964   1.827   2.609  12.734 -0.1057  0.4445 -1.7891
 2183TIP3    H227965   1.731   2.547  12.635 -2.0645 -0.7400  0.7374
 2184TIP3   OH227966   6.250   2.211  13.232  0.0884 -0.9985 -0.6541
 2184TIP3    H127967   6.162   2.186  13.261  0.4060 -1.0068  0.3421
 2184TIP3    H227968   6.286   2.131  13.192 -0.0183 -1.2670 -0.2198
 2185TIP3   OH227969   6.394   6.497   5.172  0.3186  0.0534 -0.2044
 2185TIP3    H127970   6.341   6.420   5.154 -1.6647  1.3070  0.0159
 2185TIP3    H227971   6.401   6.501   5.268  0.5343  0.0773 -0.2190
 2186TIP3   OH227972   3.306   1.495   4.630 -0.4387  0.3830  0.0112
 2186TIP3    H127973   3.263   1.410   4.620 -0.4306  0.3384  0.3714
 2186TIP3    H227974   3.400   1.475   4.631 -0.4620  0.2131  1.7756
 2187TIP3   OH227975   2.265   1.898  11.629  0.5466 -0.4446  0.3697
 2187TIP3    H127976   2.359   1.910  11.645  0.6888 -1.2552  0.1739
 2187TIP3    H227977   2.246   1.810  11.662 -0.1788 -0.2298  0.5383
 2188TIP3   OH227978   6.331   6.738   6.072 -0.0761 -0.3318 -0.3850
 2188TIP3    H127979   6.364   6.655   6.036  3.8431  0.0452  1.8168
 2188TIP3    H227980   6.330   6.725   6.166  0.7523  2.0862  0.0333
 2189TIP3   OH227981   1.971   4.499   5.910 -0.1012  0.2572  0.1464
 2189TIP3    H127982   1.906   4.501   5.979 -0.3107 -1.5965  0.0685
 2189TIP3    H227983   1.951   4.574   5.854 -0.6016  1.1376  1.4674
 2190TIP3   OH227984   1.496   4.951   3.481 -0.0225 -0.4296  0.3293
 2190TIP3    H127985   1.465   4.995   3.402 -1.3802 -0.2757  0.9059
 2190TIP3    H227986   1.504   4.859   3.456 -1.4752 -0.5655  0.2608
 2191TIP3   OH227987   4.901   2.384  14.253 -0.1737  0.4888  0.2705
 2191TIP3    H127988   4.848   2.306  14.235  0.4122  0.2420 -0.4225
 2191TIP3    H227989   4.938   2.367  14.340 -0.1668  0.0592  0.1902
 2192TIP3   OH227990   5.421   2.698   5.479  0.2331 -0.5774  0.1098
 2192TIP3    H127991   5.502   2.664   5.440  0.7741  0.8131 -0.0365
 2192TIP3    H227992   5.440   2.705   5.572  0.5734  0.4458 -0.0170
 2193TIP3   OH227993   1.353   2.180  11.335  0.3875 -0.2002  0.6049
 2193TIP3    H127994   1.350   2.118  11.263 -2.2107  0.4308  0.0681
 2193TIP3    H227995   1.429   2.154  11.386  1.9649 -1.0470 -1.9918
 2194TIP3   OH227996   1.265   2.879   5.032 -0.5621  0.1485 -0.1362
 2194TIP3    H127997   1.206   2.804   5.038  1.7056 -1.6964  0.4261
 2194TIP3    H227998   1.286   2.886   4.939  0.5746 -1.0751  0.0080
 2195TIP3   OH227999   6.113   6.559   5.047  0.5872 -0.4680  0.2136
 2195TIP3    H128000   6.139   6.567   5.139 -0.8007 -2.3174  0.8320
 2195TIP3    H228001   6.035   6.503   5.050 -0.6547  1.0184 -1.9146
 2196TIP3   OH228002   0.324   2.417  17.099 -0.1486  0.1404 -0.1091
 2196TIP3    H128003   0.300   2.468  17.021  1.7463  0.6906 -0.3904
 2196TIP3    H228004   0.334   2.327  17.066  2.2739  0.6375 -0.9440
 2197TIP3   OH228005   2.558   5.079   4.994  0.1961  0.0303 -0.7329
 2197TIP3    H128006   2.611   5.057   4.917  1.2743 -0.1500  0.0439
 2197TIP3    H228007   2.471   5.098   4.958  0.8704  0.7355 -2.0847
 2198TIP3   OH228008   4.274   4.577   0.512  0.6200 -0.5121  0.1936
 2198TIP3    H128009   4.224   4.646   0.470 -1.4051 -0.9383  1.7837
 2198TIP3    H228010   4.355   4.619   0.540  0.3376  0.6695 -0.6975
 2199TIP3   OH228011   6.019   4.735   0.444 -0.4426 -0.3563  0.2927
 2199TIP3    H128012   5.949   4.754   0.506 -1.6667 -0.7455 -0.9222
 2199TIP3    H228013   5.981   4.752   0.358  1.3667  0.6944 -0.3717
 2200TIP3   OH228014   1.105   4.438  14.885 -0.3506 -0.0199  0.6813
 2200TIP3    H128015   1.016   4.457  14.852 -0.4202 -1.1933  0.1366
 2200TIP3    H228016   1.147   4.524  14.890 -0.8933  0.3778 -0.9251
 2201TIP3   OH228017   6.249   5.638   0.090 -0.1582  0.5250 -0.4126
 2201TIP3    H128018   6.249   5.563   0.150 -1.4031  0.5810 -0.3246
 2201TIP3    H228019   6.332   5.631   0.042  0.8146  0.3955  1.2086
 2202TIP3   OH228020   3.941   2.668  13.772  1.4334  0.1223 -0.1582
 2202TIP3    H128021   4.029   2.669  13.809  0.7734 -1.9290  1.6930
 2202TIP3    H228022   3.889   2.721  13.832  1.0786 -0.0947 -0.2696
 2203TIP3   OH228023   0.084   5.687   5.261 -0.7618  0.3877  0.4416
 2203TIP3    H128024   0.066   5.624   5.331 -1.3794 -0.2012 -0.2285
 2203TIP3    H228025   0.045   5.647   5.182  1.1493  0.3540 -0.5418
 2204TIP3   OH228026   4.662   0.162  11.983  0.7269  0.1087 -0.8774
 2204TIP3    H128027   4.706   0.195  11.905  0.8079 -0.0510 -0.8997
 2204TIP3    H228028   4.728   0.170  12.052  1.1475 -1.1065 -1.1272
 2205TIP3   OH228029   2.960   5.087  16.544 -0.2365 -0.1336 -0.5623
 2205TIP3    H128030   2.913   5.152  16.597 -1.1162 -2.1591  1.2984
 2205TIP3    H228031   2.970   5.012  16.602  2.5027 -0.9890 -1.9842
 2206TIP3   OH228032   3.752   1.000  14.939 -0.0032 -0.4277 -0.0112
 2206TIP3    H128033   3.764   0.968  14.849 -1.5596  0.9448 -0.7727
 2206TIP3    H228034   3.840   1.021  14.970  0.4792  0.0181 -1.5997
 2207TIP3   OH228035   4.230   4.043  11.403 -0.8084  0.7485 -0.1943
 2207TIP3    H128036   4.303   4.093  11.440 -0.5917  0.1487  0.1999
 2207TIP3    H228037   4.231   4.065  11.310 -0.8959  1.6948  0.0110
 2208TIP3   OH228038   3.362   6.787   0.138  0.2468 -0.0552  0.2750
 2208TIP3    H128039   3.382   6.829   0.221 -2.1458  0.9006  0.4591
 2208TIP3    H228040   3.308   6.851   0.091 -2.9781 -2.4838  0.2647
 2209TIP3   OH228041   3.688   2.030  13.389 -0.0035  0.1830  0.0717
 2209TIP3    H128042   3.700   2.119  13.355 -3.8254  0.0046 -2.2830
 2209TIP3    H228043   3.721   1.974  13.318 -0.6984 -0.2512  0.0937
 2210TIP3   OH228044   2.142   0.682  12.045  0.3031 -0.3040 -0.5585
 2210TIP3    H128045   2.219   0.704  11.992 -0.8608  1.4474 -1.6222
 2210TIP3    H228046   2.116   0.595  12.014 -0.1775  0.5492 -2.7747
 2211TIP3   OH228047   4.441   0.966   2.194 -0.5169  0.0283  0.0584
 2211TIP3    H128048   4.370   0.953   2.256  1.3797 -1.9724  1.9939
 2211TIP3    H228049   4.469   0.878   2.171  0.5991  0.7540 -1.5590
 2212TIP3   OH228050   0.979   1.501   1.377 -0.3176 -0.5760 -0.4021
 2212TIP3    H128051   1.013   1.479   1.464  0.5909  0.1556 -0.5559
 2212TIP3    H228052   0.891   1.463   1.375 -1.7087  2.1045  2.0562
 2213TIP3   OH228053   2.499   1.081  15.399 -0.3535 -0.4832  0.0513
 2213TIP3    H128054   2.469   1.071  15.309  1.1673 -0.7968 -0.4604
 2213TIP3    H228055   2.557   1.006  15.413  0.8677  0.5414  0.6598
 2214TIP3   OH228056   5.532   3.307  11.682 -0.3396  0.3747 -0.4706
 2214TIP3    H128057   5.548   3.217  11.710 -1.8952  0.4476  0.7663
 2214TIP3    H228058   5.506   3.298  11.590  0.7134 -0.2855 -0.7338
 2215TIP3   OH228059   5.108   3.159  11.439 -0.5977 -0.0832 -0.6509
 2215TIP3    H128060   5.068   3.154  11.526  0.1052  1.3000 -0.2149
 2215TIP3    H228061   5.078   3.244  11.405 -0.8070 -0.5865 -1.7363
 2216TIP3   OH228062   2.325   1.387  15.951  0.4796  0.3134  0.8354
 2216TIP3    H128063   2.317   1.376  16.045 -1.2973  1.1054  0.8058
 2216TIP3    H228064   2.241   1.360  15.915  0.8131  0.8510 -0.4444
 2217TIP3   OH228065   0.338   2.561  11.858  0.4440  0.1458  0.4055
 2217TIP3    H128066   0.258   2.541  11.809 -0.3906  2.3888  0.7304
 2217TIP3    H228067   0.327   2.516  11.942  0.0330 -0.4217  0.0567
 2218TIP3   OH228068   2.458   1.410  12.681  0.1490 -0.3030 -0.9851
 2218TIP3    H128069   2.500   1.368  12.606  1.7768 -1.6222  0.5726
 2218TIP3    H228070   2.521   1.476  12.710  0.1999 -0.7958  0.0712
 2219TIP3   OH228071   1.498   2.269   3.818  0.0892 -1.0660 -0.1413
 2219TIP3    H128072   1.535   2.343   3.768  0.7116 -0.8592  0.5983
 2219TIP3    H228073   1.483   2.201   3.752 -0.0158 -0.4624 -0.7599
 2220TIP3   OH228074   3.060   4.120  12.242  0.1478  0.1396  0.2484
 2220TIP3    H128075   3.153   4.100  12.253 -0.5545 -4.6122 -0.2490
 2220TIP3    H228076   3.046   4.122  12.148 -0.4561 -0.8956  0.2950
 2221TIP3   OH228077   2.386   5.383   4.644 -0.0531  0.5229  0.0793
 2221TIP3    H128078   2.389   5.403   4.737  2.1799  1.2698 -0.0915
 2221TIP3    H228079   2.438   5.303   4.634  0.4098  0.8963 -0.6058
 2222TIP3   OH228080   3.574   1.398   3.173  0.4464  0.0205 -0.1411
 2222TIP3    H128081   3.553   1.383   3.266 -1.2490  0.6055 -0.3839
 2222TIP3    H228082   3.610   1.315   3.143 -1.6576 -1.1742  0.3813
 2223TIP3   OH228083   2.007   1.437   4.312 -0.0903  0.4510 -0.3125
 2223TIP3    H128084   2.076   1.371   4.317  0.2635  0.8875  0.9713
 2223TIP3    H228085   2.034   1.495   4.240  0.9229  0.6381  0.1953
 2224TIP3   OH228086   2.986   0.786   3.190 -0.1997 -0.1866  0.6512
 2224TIP3    H128087   3.039   0.716   3.228 -0.4964 -0.8744 -0.1837
 2224TIP3    H228088   3.014   0.865   3.237  2.2300 -0.3679 -0.3920
 2225TIP3   OH228089   3.426   3.109   1.944 -0.5828 -0.0609 -0.0320
 2225TIP3    H128090   3.368   3.037   1.917 -2.2505  0.6923  1.3371
 2225TIP3    H228091   3.389   3.186   1.901  0.4214  0.1900 -0.4570
 2226TIP3   OH228092   1.440   5.279  15.779  0.0808 -0.0717 -0.6420
 2226TIP3    H128093   1.491   5.198  15.779  1.8673  0.9931  1.0927
 2226TIP3    H228094   1.349   5.249  15.770  0.5089 -2.4325  1.5828
 2227TIP3   OH228095   6.002   4.025  13.230  0.1669 -0.1060  0.0397
 2227TIP3    H128096   6.026   3.951  13.174  1.8229  1.1500 -1.0235
 2227TIP3    H228097   6.027   4.103  13.179 -0.9768  1.1847  1.3460
 2228TIP3   OH228098   1.184   6.166  16.158  0.0825  0.8005 -0.4343
 2228TIP3    H128099   1.139   6.146  16.240  0.5785  1.1222 -0.0796
 2228TIP3    H228100   1.128   6.231  16.115 -0.3350  0.4047 -0.5015
 2229TIP3   OH228101   4.630   4.840  15.317 -0.1241 -0.4511 -0.1829
 2229TIP3    H128102   4.650   4.928  15.283 -0.4206 -0.5496 -0.6298
 2229TIP3    H228103   4.617   4.853  15.411 -1.3567  0.2054 -0.4215
 2230TIP3   OH228104   3.620   5.340  12.529  0.4525  0.2103 -0.5390
 2230TIP3    H128105   3.674   5.402  12.577  0.1968 -0.0332  0.0807
 2230TIP3    H228106   3.619   5.261  12.583  1.2694 -0.5623 -1.6095
 2231TIP3   OH228107   2.602   0.584  13.250 -0.2556 -0.0343  0.4568
 2231TIP3    H128108   2.515   0.545  13.259 -1.4875  1.7682 -2.2855
 2231TIP3    H228109   2.591   0.673  13.284  0.4465  0.2934 -0.1610
 2232TIP3   OH228110   3.844   6.780   2.124  0.5011  0.0369 -0.0144
 2232TIP3    H128111   3.761   6.820   2.150  0.6740  0.7125 -0.4831
 2232TIP3    H228112   3.833   6.687   2.144  1.2825  0.6297  4.3572
 2233TIP3   OH228113   6.425   4.138  11.963  0.1787  0.3603  0.5456
 2233TIP3    H128114   6.443   4.128  11.870 -1.0459  1.0564  0.2127
 2233TIP3    H228115   6.365   4.066  11.984  0.2966  0.3227  0.7638
 2234TIP3   OH228116   1.727   4.986   1.365  0.2119  0.0046  0.2039
 2234TIP3    H128117   1.816   4.998   1.398 -0.2856  0.1352  1.5592
 2234TIP3    H228118   1.738   4.940   1.282  1.5412  0.0761  0.3213
 2235TIP3   OH228119   3.782   6.364  15.911  0.3180 -0.2123  0.3949
 2235TIP3    H128120   3.752   6.303  15.978  0.3966  0.1995  0.8154
 2235TIP3    H228121   3.848   6.418  15.956  0.4604 -0.0114 -0.0470
 2236TIP3   OH228122   6.229   6.613   0.809  0.0713 -0.1709  0.7177
 2236TIP3    H128123   6.225   6.525   0.771 -0.6375  0.1172  0.0976
 2236TIP3    H228124   6.323   6.634   0.810  0.1978 -0.6793  0.2618
 2237TIP3   OH228125   0.547   6.666  15.209  0.0755 -0.3216  0.2050
 2237TIP3    H128126   0.592   6.711  15.280 -1.7619 -0.0492  1.2847
 2237TIP3    H228127   0.489   6.603  15.253  0.5012 -1.7372 -1.1586
 2238TIP3   OH228128   5.636   6.092   4.083  0.2635  0.0715 -0.2354
 2238TIP3    H128129   5.569   6.107   4.150 -0.6034  0.5821 -1.1888
 2238TIP3    H228130   5.587   6.088   4.001  0.8874 -3.5329 -0.6197
 2239TIP3   OH228131   1.394   0.117   4.846  0.0868 -0.4864 -0.1731
 2239TIP3    H128132   1.472   0.168   4.822  0.1224  0.2923  1.4555
 2239TIP3    H228133   1.322   0.179   4.840 -0.1642 -0.7609 -0.0214
 2240TIP3   OH228134   1.686   4.232   2.243  0.9971  0.0422  0.4082
 2240TIP3    H128135   1.647   4.156   2.200  0.3876  0.7264 -0.2836
 2240TIP3    H228136   1.739   4.195   2.314 -1.3182 -0.9150  1.7391
 2241TIP3   OH228137   3.973   0.101   6.473 -0.8933 -0.3760  0.0727
 2241TIP3    H128138   4.000   0.010   6.490 -1.7977 -0.3052  2.2520
 2241TIP3    H228139   3.884   0.106   6.508 -1.0211  1.2322 -0.4361
 2242TIP3   OH228140   2.410   0.404   3.769 -0.7621 -0.5282 -0.7352
 2242TIP3    H128141   2.452   0.405   3.855 -1.7726 -0.0596 -0.2348
 2242TIP3    H228142   2.358   0.323   3.768 -0.0991 -0.9690 -1.2516
 2243TIP3   OH228143   3.940   2.139   0.917 -0.3368 -0.2218  0.3122
 2243TIP3    H128144   4.017   2.194   0.902 -0.8141  0.3284 -0.1777
 2243TIP3    H228145   3.943   2.117   1.010 -0.7595  1.6221  0.8042
 2244TIP3   OH228146   0.465   0.129   1.991  0.6762 -0.1251 -0.0081
 2244TIP3    H128147   0.406   0.203   2.004  0.9191  0.0416  0.1590
 2244TIP3    H228148   0.417   0.070   1.934 -0.5595 -1.0289  1.8726
 2245TIP3   OH228149   3.524   0.763  17.199 -0.1579 -0.1771  0.0520
 2245TIP3    H128150   3.602   0.710  17.216  0.7777  0.7344 -1.1533
 2245TIP3    H228151   3.474   0.713  17.134  0.1907 -0.0859 -0.2920
 2246TIP3   OH228152   0.611   6.562  13.097  0.6911 -0.0324  0.0804
 2246TIP3    H128153   0.685   6.621  13.113  1.2451 -0.7910  0.4070
 2246TIP3    H228154   0.609   6.506  13.174  0.6801 -0.9500 -0.5735
 2247TIP3   OH228155   4.186   5.234  15.396 -0.0681  0.0884  0.0922
 2247TIP3    H128156   4.163   5.267  15.309  0.7401 -0.5835 -0.3928
 2247TIP3    H228157   4.230   5.151  15.379  0.8700  0.3549  1.0915
 2248TIP3   OH228158   2.949   5.594   2.662 -0.0689 -0.5268 -0.0857
 2248TIP3    H128159   2.999   5.662   2.616  0.0955 -0.2512  0.4945
 2248TIP3    H228160   2.870   5.582   2.608  0.3105 -0.5041 -0.6606
 2249TIP3   OH228161   4.044   4.153   1.294 -0.3779  0.5500  0.1095
 2249TIP3    H128162   3.952   4.176   1.310 -1.2662 -2.7631  0.6497
 2249TIP3    H228163   4.050   4.148   1.198 -1.1553 -0.4132  0.0943
 2250TIP3   OH228164   3.146   6.573   4.384 -0.5288 -0.4702  0.6032
 2250TIP3    H128165   3.212   6.551   4.451 -1.0331 -1.8405  0.6936
 2250TIP3    H228166   3.095   6.492   4.374 -0.2907 -0.4106 -1.6589
 2251TIP3   OH228167   1.716   4.365  14.371 -0.5308  0.1492 -0.5498
 2251TIP3    H128168   1.781   4.415  14.322 -2.4344  3.4633  0.0269
 2251TIP3    H228169   1.636   4.372  14.318 -1.5762  0.2728  0.9775
 2252TIP3   OH228170   6.334   6.015  13.003 -0.9261 -0.1101 -0.3245
 2252TIP3    H128171   6.377   5.994  13.086 -0.0974  1.0686 -0.4241
 2252TIP3    H228172   6.314   5.930  12.964  0.1110 -0.7005  0.3659
 2253TIP3   OH228173   0.231   4.974   3.021 -0.3292  0.0195  0.2801
 2253TIP3    H128174   0.242   5.020   3.104 -1.5681  1.5292 -0.3483
 2253TIP3    H228175   0.303   5.005   2.966  0.4501 -0.9273  0.7476
 2254TIP3   OH228176   2.037   1.236  12.089 -0.3748 -0.1594 -0.0741
 2254TIP3    H128177   2.098   1.186  12.035  0.4765  2.7556 -2.0491
 2254TIP3    H228178   1.955   1.185  12.085  0.6207 -1.7777 -1.3050
 2255TIP3   OH228179   0.238   3.581  11.943 -0.4272 -0.0883 -0.0931
 2255TIP3    H128180   0.201   3.667  11.923 -1.7981 -0.0925  2.1611
 2255TIP3    H228181   0.333   3.595  11.945 -0.7016  2.0688  2.9082
 2256TIP3   OH228182   0.506   6.089  15.273  0.5878 -0.7923 -0.5045
 2256TIP3    H128183   0.508   5.998  15.301 -1.9855 -0.8358 -0.2199
 2256TIP3    H228184   0.461   6.087  15.189  1.3922  0.1412 -0.9840
 2257TIP3   OH228185   4.906   0.580   0.586  0.3603  0.6491  0.1358
 2257TIP3    H128186   4.904   0.675   0.600  0.4405  0.5299  1.0609
 2257TIP3    H228187   4.831   0.547   0.634 -0.4975  0.3591 -1.3600
 2258TIP3   OH228188   6.398   6.680   5.682 -0.1339  0.3624  0.3531
 2258TIP3    H128189   6.307   6.658   5.699 -0.0065  0.8842  1.8626
 2258TIP3    H228190   6.422   6.739   5.753  1.0783  1.0700 -0.6158
 2259TIP3   OH228191   6.705   6.218   2.953  0.3866 -0.8434 -1.1422
 2259TIP3    H128192   6.744   6.259   3.030 -1.5369 -0.2898 -0.4140
 2259TIP3    H228193   6.625   6.268   2.937  1.1422 -0.3827 -4.0631
 2260TIP3   OH228194   2.472   5.508   3.313 -0.7124  0.0349  0.4444
 2260TIP3    H128195   2.498   5.472   3.228 -0.3113  0.4719  0.3833
 2260TIP3    H228196   2.385   5.545   3.297 -1.1747 -0.9753  0.5297
 2261TIP3   OH228197   1.963   2.337  12.770 -0.5963  0.0338  0.6807
 2261TIP3    H128198   1.906   2.397  12.722 -1.1121 -1.0581 -0.0945
 2261TIP3    H228199   1.923   2.251  12.759  1.0400 -0.7273  0.3516
 2262TIP3   OH228200   2.928   1.029  13.776  0.2781  0.3915 -0.0221
 2262TIP3    H128201   2.948   1.005  13.867 -2.8248 -0.2629  0.6089
 2262TIP3    H228202   2.916   0.945  13.732 -2.2046  0.6417  0.0425
 2263TIP3   OH228203   1.984   4.492   4.003  0.3412 -0.3969  1.1711
 2263TIP3    H128204   2.057   4.433   3.984  0.8532 -0.2557  2.5465
 2263TIP3    H228205   2.023   4.579   4.002 -0.3875 -0.0467 -0.7269
 2264TIP3   OH228206   1.869   2.238   1.424 -0.6097 -0.9640 -1.0702
 2264TIP3    H128207   1.801   2.238   1.492 -0.8110  1.1785 -1.1967
 2264TIP3    H228208   1.924   2.162   1.445 -1.2631 -0.9663  0.8692
 2265TIP3   OH228209   4.162   0.181   2.480 -0.0158 -0.2726  0.4293
 2265TIP3    H128210   4.097   0.112   2.492 -1.7167  0.9471 -1.1536
 2265TIP3    H228211   4.214   0.151   2.405 -0.4147 -0.1282  0.0836
 2266TIP3   OH228212   1.034   2.986   2.218 -0.2762 -0.2390  0.0293
 2266TIP3    H128213   1.122   3.013   2.192 -1.0967  0.2556 -2.4812
 2266TIP3    H228214   1.006   2.926   2.149 -2.8872  1.7127 -0.7484
 2267TIP3   OH228215   5.388   2.108  11.976 -0.3352 -0.2764 -0.1889
 2267TIP3    H128216   5.409   2.042  11.909 -0.6224  0.7848 -1.3649
 2267TIP3    H228217   5.380   2.058  12.057 -0.2637 -1.6506 -0.9957
 2268TIP3   OH228218   5.832   6.418   0.394  0.2150 -0.2247 -0.0281
 2268TIP3    H128219   5.819   6.348   0.330  0.3174 -0.4295  0.1775
 2268TIP3    H228220   5.927   6.421   0.409  0.2423  0.1431 -0.2460
 2269TIP3   OH228221   1.784   3.333  14.238  0.1833 -0.7312 -0.1735
 2269TIP3    H128222   1.770   3.287  14.321  0.1157 -2.1932 -0.9595
 2269TIP3    H228223   1.716   3.300  14.180 -0.3437  0.9578 -0.5691
 2270TIP3   OH228224   3.898   6.205   6.225  0.0927 -0.2350 -0.0674
 2270TIP3    H128225   3.959   6.265   6.266 -1.6437  0.2877  1.9267
 2270TIP3    H228226   3.911   6.122   6.271 -1.2154  0.1040  0.9864
 2271TIP3   OH228227   2.493   3.961   0.315  0.1548 -0.4425  0.0451
 2271TIP3    H128228   2.427   4.027   0.338 -3.7820 -3.7268 -0.4873
 2271TIP3    H228229   2.526   3.989   0.229  0.1153  1.7393  0.6830
 2272TIP3   OH228230   6.151   2.908   0.178 -0.4024  0.0786 -0.1068
 2272TIP3    H128231   6.113   2.859   0.105  1.6056 -1.9891  0.1365
 2272TIP3    H228232   6.164   2.842   0.247  4.1156  0.3362 -0.4054
 2273TIP3   OH228233   0.167   5.907   6.954  0.5337 -0.1259  0.4557
 2273TIP3    H128234   0.106   5.908   7.028 -2.1401  0.5825 -1.6354
 2273TIP3    H228235   0.180   5.999   6.932  1.6264 -0.3160  0.2396
 2274TIP3   OH228236   3.742   2.635  16.296 -0.0053 -0.1814 -0.3315
 2274TIP3    H128237   3.680   2.637  16.223  0.6984 -0.3419 -0.9397
 2274TIP3    H228238   3.783   2.549  16.291 -0.2736 -0.3711  0.5327
 2275TIP3   OH228239   0.154   3.141   3.498 -0.0534  0.0870  0.0103
 2275TIP3    H128240   0.203   3.131   3.416  0.5805  1.7365  0.1710
 2275TIP3    H228241   0.089   3.208   3.479 -1.0502 -0.7382  0.3791
 2276TIP3   OH228242   3.874   1.878  12.699 -0.1476 -0.0101 -0.0820
 2276TIP3    H128243   3.872   1.943  12.769 -0.7267 -0.1183  0.0037
 2276TIP3    H228244   3.934   1.810  12.730  2.1330  1.4438 -1.0298
 2277TIP3   OH228245   6.158   2.402   0.756  0.4040  0.5922 -0.3107
 2277TIP3    H128246   6.179   2.315   0.722  0.8478  0.8345 -0.6588
 2277TIP3    H228247   6.242   2.443   0.773  0.1968  0.9367 -0.0913
 2278TIP3   OH228248   3.342   6.563   2.627 -0.3518 -0.0627  0.4410
 2278TIP3    H128249   3.427   6.534   2.660  0.5471 -1.1648 -2.5196
 2278TIP3    H228250   3.362   6.626   2.559 -1.8631 -0.6676 -0.6315
 2279TIP3   OH228251   1.754   6.269   2.926 -0.0309 -0.0769 -0.0477
 2279TIP3    H128252   1.783   6.184   2.893  1.3246  0.2095  0.3162
 2279TIP3    H228253   1.684   6.296   2.866  0.6223 -0.7174 -1.1374
 2280TIP3   OH228254   1.696   3.641  12.664  0.4562 -0.4556  0.0272
 2280TIP3    H128255   1.652   3.712  12.710 -0.6394 -0.5005 -0.9186
 2280TIP3    H228256   1.748   3.597  12.732  0.0863  0.4076  0.8884
 2281TIP3   OH228257   6.053   5.921   2.819  0.5621  0.0651  0.0508
 2281TIP3    H128258   6.066   5.839   2.868 -1.4384 -0.5375 -0.3460
 2281TIP3    H228259   6.126   5.922   2.756  1.7780 -0.3619  1.3802
 2282TIP3   OH228260   5.045   2.915   4.519 -0.3086  0.3020  0.1631
 2282TIP3    H128261   4.977   2.878   4.575  1.0561  0.3000  1.8835
 2282TIP3    H228262   5.123   2.862   4.537  0.6187  1.4248 -0.4128
 2283TIP3   OH228263   0.783   2.659  15.879 -0.0093  0.2469  0.0556
 2283TIP3    H128264   0.831   2.629  15.957 -0.8887  0.4006  0.6739
 2283TIP3    H228265   0.707   2.601  15.874 -0.6900  1.1068  0.1175
 2284TIP3   OH228266   3.202   3.417   5.827  0.4941  0.0581  0.7083
 2284TIP3    H128267   3.163   3.482   5.886  0.9313 -1.9461  3.4139
 2284TIP3    H228268   3.128   3.374   5.785  0.0727  0.3166  1.1788
 2285TIP3   OH228269   4.953   6.064   0.083 -0.7372 -0.2113 -0.3978
 2285TIP3    H128270   4.964   6.061  -0.012 -1.5289 -0.1600 -0.5008
 2285TIP3    H228271   4.961   6.157   0.105 -0.9461 -0.1776 -0.4649
 2286TIP3   OH228272   2.239   2.655  12.712  0.7195 -0.0464  0.4886
 2286TIP3    H128273   2.298   2.712  12.663  0.1118 -0.8510 -1.2678
 2286TIP3    H228274   2.296   2.589  12.751  1.4288  1.6792  2.5368
 2287TIP3   OH228275   2.762   2.790   6.142  0.1654  0.4498  0.1147
 2287TIP3    H128276   2.678   2.814   6.180 -0.1623 -1.6066  0.8401
 2287TIP3    H228277   2.803   2.734   6.209  1.5248  0.3106 -0.7878
 2288TIP3   OH228278   2.744   0.019   0.702  0.1259 -0.1830  0.0803
 2288TIP3    H128279   2.797  -0.035   0.643  0.3825 -0.5572  0.6438
 2288TIP3    H228280   2.682  -0.043   0.742 -1.7289  0.4701 -1.6352
 2289TIP3   OH228281   2.704   4.506  11.967 -0.6567 -0.5119  0.1124
 2289TIP3    H128282   2.710   4.570  12.037  0.3146  0.4096 -0.7793
 2289TIP3    H228283   2.624   4.457  11.986  0.1294 -1.0088  2.4288
 2290TIP3   OH228284   6.232   1.002   5.611  0.3924  0.0802 -0.5426
 2290TIP3    H128285   6.187   0.943   5.551 -0.6101  0.8153 -0.5430
 2290TIP3    H228286   6.318   1.014   5.572  0.5258 -1.1767 -0.6645
 2291TIP3   OH228287   4.456   0.861   5.440 -0.4533  0.1042 -0.0054
 2291TIP3    H128288   4.484   0.858   5.532  0.8419 -0.6309 -0.4040
 2291TIP3    H228289   4.514   0.925   5.400 -0.2266 -0.4353 -0.5538
 2292TIP3   OH228290   2.768   4.167  14.208 -0.1903  0.4548 -0.5297
 2292TIP3    H128291   2.851   4.205  14.237 -0.0834  0.0571 -0.3007
 2292TIP3    H228292   2.769   4.078  14.244 -0.8959  0.5761 -0.1975
 2293TIP3   OH228293   4.066   3.414   0.781 -0.2468  0.0987  0.0727
 2293TIP3    H128294   4.074   3.503   0.747 -1.5393  0.1669 -0.1230
 2293TIP3    H228295   4.151   3.396   0.821  0.3508  1.0642 -0.7094
 2294TIP3   OH228296   1.875   4.357   0.171  0.0234  0.0023 -0.4418
 2294TIP3    H128297   1.963   4.383   0.145  0.5340 -0.0320  1.1227
 2294TIP3    H228298   1.872   4.263   0.154  0.2422  0.0271 -0.6248
 2295TIP3   OH228299   1.607   2.868  13.690  0.4296  0.4887  0.5244
 2295TIP3    H128300   1.529   2.814  13.685  1.0965 -0.5510  1.0256
 2295TIP3    H228301   1.670   2.816  13.739  2.4964 -0.0277 -2.4123
 2296TIP3   OH228302   3.209   0.500   2.760 -0.5655  0.5589  0.5538
 2296TIP3    H128303   3.187   0.585   2.800 -0.1955  1.2061 -0.5757
 2296TIP3    H228304   3.305   0.501   2.754 -0.6377  0.6853 -0.7703
 2297TIP3   OH228305   6.572   0.831   3.785  0.2368 -0.0756  0.1218
 2297TIP3    H128306   6.580   0.825   3.690  1.1798  1.3373  0.0893
 2297TIP3    H228307   6.498   0.774   3.806  1.5836 -2.4138 -1.1579
 2298TIP3   OH228308   4.897   1.050   3.129 -0.3338  0.1703 -0.2791
 2298TIP3    H128309   4.888   1.131   3.079 -1.5287  0.1218 -0.1694
 2298TIP3    H228310   4.925   1.079   3.216  0.7625  0.3317 -0.6711
 2299TIP3   OH228311   3.691   0.803   5.468  0.3696 -0.0630  0.6591
 2299TIP3    H128312   3.637   0.875   5.500  0.7117 -0.1227  1.3921
 2299TIP3    H228313   3.673   0.731   5.529  0.4629 -0.4153  0.2719
 2300TIP3   OH228314   4.010   5.322  15.598 -0.2773  0.8356  0.1615
 2300TIP3    H128315   4.083   5.310  15.537 -0.7439 -1.1632 -0.0527
 2300TIP3    H228316   3.941   5.265  15.564 -1.2188  1.1238  1.5250
 2301TIP3   OH228317   0.602   1.447  11.415  0.5377 -0.1006 -0.5651
 2301TIP3    H128318   0.671   1.497  11.458 -1.4975  0.5742  2.2188
 2301TIP3    H228319   0.521   1.495  11.435 -1.1005 -2.4696 -1.0137
 2302TIP3   OH228320   4.907   4.597  14.157  0.4290 -0.1351 -0.3120
 2302TIP3    H128321   4.822   4.605  14.114  0.5436  2.2868 -0.1887
 2302TIP3    H228322   4.923   4.683  14.195  3.6261 -0.0146 -1.6456
 2303TIP3   OH228323   1.619   4.082  12.854 -0.2982 -0.4772 -0.6252
 2303TIP3    H128324   1.582   4.026  12.786 -1.6577 -1.7894  1.0925
 2303TIP3    H228325   1.543   4.111  12.905  0.6328  0.8335  0.0906
 2304TIP3   OH228326   5.388   1.443   3.007  0.8262  0.2951  0.4244
 2304TIP3    H128327   5.359   1.455   2.916 -1.0687 -0.3799  0.8925
 2304TIP3    H228328   5.340   1.510   3.056  2.2248  0.9921  0.8960
 2305TIP3   OH228329   4.001   3.984   3.627  0.3158  0.1729 -0.5317
 2305TIP3    H128330   4.011   4.054   3.562 -0.3120  0.0365 -0.7752
 2305TIP3    H228331   4.013   3.903   3.578  0.4461  0.0861 -0.3585
 2306TIP3   OH228332   3.573   2.635  14.115 -0.1510 -0.2442 -0.0990
 2306TIP3    H128333   3.573   2.665  14.024 -2.1591 -2.0551 -0.8070
 2306TIP3    H228334   3.503   2.569  14.118 -0.0422 -0.3604  2.7365
 2307TIP3   OH228335   4.936   6.076  16.984 -0.0904 -0.0151 -0.3362
 2307TIP3    H128336   4.885   6.157  16.982 -2.8388 -1.5954  0.3630
 2307TIP3    H228337   4.937   6.046  16.893  1.0712  0.8123 -0.6248
 2308TIP3   OH228338   4.822   2.916  13.881 -0.8523  0.1823  0.0038
 2308TIP3    H128339   4.758   2.846  13.867 -0.8508 -0.0827  1.2338
 2308TIP3    H228340   4.878   2.883  13.951  1.7266 -0.3275 -2.1363
 2309TIP3   OH228341   2.353   2.898  12.166  0.2262 -0.1136  0.0808
 2309TIP3    H128342   2.308   2.899  12.081 -2.0067 -0.6402  1.1681
 2309TIP3    H228343   2.296   2.846  12.222  1.3212  0.7327  2.0776
 2310TIP3   OH228344   4.117   1.683   5.482 -0.0294  0.3548 -0.3359
 2310TIP3    H128345   4.173   1.609   5.505  1.2900  1.5969  0.6240
 2310TIP3    H228346   4.126   1.744   5.556 -3.0345  0.4464  0.1034
 2311TIP3   OH228347   1.274   6.055   2.728  0.4296 -0.2340 -0.3475
 2311TIP3    H128348   1.195   6.107   2.716  1.5912  1.7090 -0.0736
 2311TIP3    H228349   1.258   5.974   2.680 -1.2500  0.6035 -1.2760
 2312TIP3   OH228350   2.468   5.544  17.091  0.1125 -0.1622 -0.8327
 2312TIP3    H128351   2.486   5.552  16.997  1.6751 -2.0426 -0.7581
 2312TIP3    H228352   2.423   5.459  17.100  1.4540 -0.7932  0.2558
 2313TIP3   OH228353   2.496   1.937  13.083  0.3616  0.7257  0.3938
 2313TIP3    H128354   2.520   1.851  13.117  0.3510  0.5082 -0.1429
 2313TIP3    H228355   2.529   1.938  12.993  1.0063  1.5536  0.6176
 2314TIP3   OH228356   4.123   3.692   5.685  0.1051 -0.2944 -0.0831
 2314TIP3    H128357   4.113   3.761   5.751 -2.9454 -0.7400  0.0585
 2314TIP3    H228358   4.117   3.611   5.735 -1.3636 -0.6326 -0.7633
 2315TIP3   OH228359   2.336   1.662  12.276  0.0012  0.2250  0.4813
 2315TIP3    H128360   2.266   1.720  12.246  1.3990  0.7376 -2.0862
 2315TIP3    H228361   2.312   1.576  12.241  0.8585  0.5050 -0.8481
 2316TIP3   OH228362   5.594   4.438   3.469  0.0996  0.0902  0.3797
 2316TIP3    H128363   5.674   4.393   3.442  0.1966  1.9554 -2.9632
 2316TIP3    H228364   5.585   4.511   3.407 -4.0646  0.1343  0.7382
 2317TIP3   OH228365   5.608   0.008  13.021  0.5386 -0.4334  0.1414
 2317TIP3    H128366   5.589  -0.049  13.096  0.6835 -2.1973 -1.1104
 2317TIP3    H228367   5.606   0.096  13.058 -0.2099 -1.1842  2.0568
 2318TIP3   OH228368   0.786   0.752   4.949  0.4281  0.2474 -0.1207
 2318TIP3    H128369   0.716   0.692   4.923  1.0719  0.1250 -1.7253
 2318TIP3    H228370   0.768   0.832   4.899 -0.1035  1.2296  1.5673
 2319TIP3   OH228371   0.419   1.636  12.884 -0.0959 -0.5192 -0.3257
 2319TIP3    H128372   0.448   1.557  12.840 -0.0765  0.4274 -2.1002
 2319TIP3    H228373   0.445   1.708  12.826 -3.4339  0.5748 -0.7148
 2320TIP3   OH228374   6.562   3.978   3.289 -0.4087  0.2110 -0.2035
 2320TIP3    H128375   6.467   3.965   3.290 -0.6169  1.0092 -2.8227
 2320TIP3    H228376   6.583   4.014   3.375 -2.1782 -1.6694  1.0991
 2321TIP3   OH228377   6.757   0.977  16.541  0.2423 -0.6001  0.1080
 2321TIP3    H128378   6.819   0.935  16.601 -0.8153 -1.2630  0.7605
 2321TIP3    H228379   6.677   0.925  16.548 -0.5514  0.5097 -0.3612
 2322TIP3   OH228380   3.916   4.639   1.613  0.3267 -0.2812 -0.3212
 2322TIP3    H128381   3.822   4.633   1.593  0.0802 -1.7857  1.0536
 2322TIP3    H228382   3.922   4.609   1.704  2.1612 -0.3354 -0.4390
 2323TIP3   OH228383   3.496   0.484   0.256  0.4086 -0.3617  0.2148
 2323TIP3    H128384   3.464   0.439   0.334  0.9787 -0.4440  0.4070
 2323TIP3    H228385   3.581   0.519   0.282  0.4771 -0.1498 -0.2856
 2324TIP3   OH228386   1.107   4.221  14.094 -0.1975 -0.6536 -0.1644
 2324TIP3    H128387   1.153   4.279  14.154  0.5007 -1.1794 -0.1785
 2324TIP3    H228388   1.016   4.224  14.122  0.1488 -1.0278  1.0284
 2325TIP3   OH228389   4.957   6.522  15.402 -0.2187 -0.4217 -0.0298
 2325TIP3    H128390   4.921   6.543  15.316  0.3667 -0.0423 -0.1918
 2325TIP3    H228391   5.013   6.597  15.423 -1.3819  0.1218  1.2815
 2326TIP3   OH228392   2.095   2.245  16.879  0.3157 -0.0368 -0.5725
 2326TIP3    H128393   2.025   2.238  16.945  2.6704 -2.9125  1.8947
 2326TIP3    H228394   2.072   2.323  16.829 -1.6509  2.5575  3.7671
 2327TIP3   OH228395   3.759   5.688  11.840  0.0529 -0.2103  0.2401
 2327TIP3    H128396   3.741   5.780  11.859 -1.6850 -0.9783  2.7845
 2327TIP3    H228397   3.716   5.671  11.757  1.4696  1.5122 -0.9264
 2328TIP3   OH228398   5.864   3.279   1.763 -0.0883 -0.2333  0.0261
 2328TIP3    H128399   5.943   3.298   1.713  0.7729 -2.3860  0.4334
 2328TIP3    H228400   5.859   3.183   1.763 -0.3172 -0.3516  3.5867
 2329TIP3   OH228401   4.479   5.786   1.427  0.0667  0.0519  0.4979
 2329TIP3    H128402   4.552   5.725   1.432 -0.9049 -1.1901  0.0099
 2329TIP3    H228403   4.473   5.810   1.335 -0.3936 -0.2034  0.4542
 2330TIP3   OH228404   5.181   3.773  17.106  0.0272 -0.2984  0.7126
 2330TIP3    H128405   5.260   3.760  17.158  1.5997  0.0706 -1.4807
 2330TIP3    H228406   5.155   3.685  17.079 -0.8193 -0.4972  2.0387
 2331TIP3   OH228407   1.255   2.878  17.108  0.5061 -0.1023 -0.4248
 2331TIP3    H128408   1.177   2.851  17.156  1.4430 -1.6175  0.3303
 2331TIP3    H228409   1.222   2.933  17.037 -1.1957 -0.4102  0.0839
 2332TIP3   OH228410   2.319   4.558  16.522 -0.0325 -0.7460 -0.6509
 2332TIP3    H128411   2.395   4.611  16.549  0.0753 -1.2427  0.0367
 2332TIP3    H228412   2.322   4.560  16.427  0.1095  0.2947 -0.6344
 2333TIP3   OH228413   0.183   6.144  14.817 -0.0015 -0.4917 -0.0202
 2333TIP3    H128414   0.154   6.169  14.730 -0.2678  0.7569  0.4099
 2333TIP3    H228415   0.121   6.077  14.845 -0.5673 -0.1197 -0.3670
 2334TIP3   OH228416   1.263   5.019   4.485 -0.3714 -0.2873 -0.7273
 2334TIP3    H128417   1.290   5.014   4.577  0.1075 -0.8670 -0.8928
 2334TIP3    H228418   1.173   4.987   4.484 -0.3917 -0.2416 -0.4546
 2335TIP3   OH228419   4.505   3.299   3.015 -0.0234  0.5262  0.6115
 2335TIP3    H128420   4.429   3.341   3.055  0.9458  1.8583  1.1199
 2335TIP3    H228421   4.468   3.228   2.962 -1.4536 -0.6887  3.0298
 2336TIP3   OH228422   2.286   0.757  15.596  0.3270 -0.2665 -0.4534
 2336TIP3    H128423   2.215   0.699  15.620  0.0784  0.3988  0.4856
 2336TIP3    H228424   2.319   0.722  15.513 -2.8525  0.9682 -2.4085
 2337TIP3   OH228425   1.072   5.420  12.594 -0.1687 -0.0267 -0.0812
 2337TIP3    H128426   1.094   5.348  12.534 -0.3151 -0.6477  0.5935
 2337TIP3    H228427   1.039   5.376  12.673 -1.4671  0.8240 -0.1352
 2338TIP3   OH228428   5.043   2.227  15.611  0.5689  0.3777 -0.0662
 2338TIP3    H128429   4.985   2.181  15.550  0.8740 -0.9419  0.6006
 2338TIP3    H228430   5.058   2.312  15.570  0.1536 -0.1906 -1.4570
 2339TIP3   OH228431   4.972   5.657  15.174  0.0540 -0.0633  0.1699
 2339TIP3    H128432   5.001   5.570  15.146 -1.6713 -0.5033 -0.3657
 2339TIP3    H228433   4.916   5.640  15.250 -0.4861  0.5594 -0.0829
 2340TIP3   OH228434   4.537   4.062   4.799  0.5775  0.1159 -0.2382
 2340TIP3    H128435   4.474   4.088   4.732 -0.4371 -0.2723  0.5430
 2340TIP3    H228436   4.563   3.973   4.775 -1.2964 -0.7939  0.9413
 2341TIP3   OH228437   5.110   2.949   0.326  0.3285  0.5579 -0.0395
 2341TIP3    H128438   5.128   2.958   0.420  0.8717  0.7303 -0.1547
 2341TIP3    H228439   5.030   2.999   0.312 -0.2069 -0.1339  0.4749
 2342TIP3   OH228440   5.458   1.630   0.193 -0.6367  0.2523 -0.4407
 2342TIP3    H128441   5.464   1.711   0.243  1.2837  0.0295 -0.2373
 2342TIP3    H228442   5.367   1.626   0.164 -0.4735  3.1783 -1.6755
 2343TIP3   OH228443   0.152   5.237  12.582  0.1518 -0.5954 -0.6951
 2343TIP3    H128444   0.167   5.147  12.612 -0.6693 -0.2028  1.0680
 2343TIP3    H228445   0.108   5.227  12.498  0.4623 -1.8507 -0.7242
 2344TIP3   OH228446   5.965   6.684   2.245 -0.4529 -0.3054 -0.0793
 2344TIP3    H128447   5.980   6.640   2.161 -1.1285 -0.5969 -0.0512
 2344TIP3    H228448   5.902   6.754   2.225  1.3147  1.3124 -0.3199
 2345TIP3   OH228449   3.507   3.912   1.128 -0.0415 -0.3330 -0.3781
 2345TIP3    H128450   3.425   3.892   1.084 -1.0171  2.9203 -0.3162
 2345TIP3    H228451   3.485   3.913   1.221 -0.4968  2.2329 -0.4340
 2346TIP3   OH228452   6.016   2.244   1.845  0.2194 -0.2635  0.2944
 2346TIP3    H128453   6.101   2.289   1.849  0.5147 -0.8221  0.2776
 2346TIP3    H228454   6.036   2.152   1.861 -0.4967 -0.2706  1.2605
 2347TIP3   OH228455   5.085   1.558   5.691  0.7909 -0.1485 -0.0812
 2347TIP3    H128456   5.069   1.528   5.781 -0.6296  1.1994  0.1503
 2347TIP3    H228457   5.125   1.644   5.702 -0.2772  0.4458 -0.7270
 2348TIP3   OH228458   0.331   2.680  13.481  0.4635 -0.0384 -0.4138
 2348TIP3    H128459   0.300   2.595  13.511  1.4561 -1.2441 -2.5275
 2348TIP3    H228460   0.343   2.731  13.561  1.7166 -2.5398  1.1378
 2349TIP3   OH228461   5.223   0.508   4.441  0.2552 -0.3376  0.5381
 2349TIP3    H128462   5.129   0.499   4.459 -0.2888  1.2165 -1.1947
 2349TIP3    H228463   5.243   0.438   4.380 -0.7292  1.4321 -2.0089
 2350TIP3   OH228464   0.006   1.617   5.550  0.7464  0.0610 -0.1320
 2350TIP3    H128465  -0.060   1.563   5.593 -0.4856  1.1107 -0.6359
 2350TIP3    H228466  -0.025   1.626   5.460  2.3236 -0.5724 -0.7822
 2351TIP3   OH228467   6.445   6.614   0.248  0.1004 -0.1551  0.3624
 2351TIP3    H128468   6.523   6.665   0.228  0.1500 -0.1629  0.5325
 2351TIP3    H228469   6.373   6.661   0.205  0.5259 -1.5482 -2.0230
 2352TIP3   OH228470   5.683   2.808  16.336  0.5533  0.2116  0.1524
 2352TIP3    H128471   5.719   2.893  16.311 -2.0708  1.4018  0.0977
 2352TIP3    H228472   5.627   2.827  16.411 -2.1029 -0.9421 -1.4157
 2353TIP3   OH228473   5.805   2.278   0.810  0.1335  0.3266 -0.0600
 2353TIP3    H128474   5.797   2.358   0.757 -0.8068  0.1126 -0.2775
 2353TIP3    H228475   5.746   2.216   0.766  0.8089 -0.4665  0.1408
 2354TIP3   OH228476   1.964   2.053  13.951  0.2486 -0.0901  0.1142
 2354TIP3    H128477   2.013   1.982  13.907  1.1536  0.7684 -0.3050
 2354TIP3    H228478   1.889   2.069  13.894  1.8373  1.5730 -1.6413
 2355TIP3   OH228479   5.004   1.675   1.992 -0.0308  0.1217 -0.3912
 2355TIP3    H128480   4.914   1.662   1.963 -0.3552  0.2077  0.5361
 2355TIP3    H228481   4.996   1.721   2.075  0.8273 -0.7865  0.2253
 2356TIP3   OH228482   6.702   5.870   5.932  0.3244  0.1391  0.2688
 2356TIP3    H128483   6.697   5.848   5.839 -2.3139  0.2611  0.3271
 2356TIP3    H228484   6.718   5.964   5.934 -2.0954  0.6012 -0.1299
 2357TIP3   OH228485   0.863   3.247  14.750 -0.0159  0.1452 -0.5767
 2357TIP3    H128486   0.942   3.245  14.697 -0.1871 -0.7899 -0.8048
 2357TIP3    H228487   0.806   3.180  14.712  0.2111 -1.1895  1.3076
 2358TIP3   OH228488   2.613   1.380  11.356 -0.2018  0.6870 -0.2803
 2358TIP3    H128489   2.658   1.450  11.404  1.6123 -1.3501  1.2159
 2358TIP3    H228490   2.678   1.349  11.293 -0.9787  0.3062 -0.9155
 2359TIP3   OH228491   2.229   6.168  14.568  0.1638 -0.1315  0.3116
 2359TIP3    H128492   2.302   6.170  14.506  0.2088 -2.1802  0.2200
 2359TIP3    H228493   2.269   6.191  14.652  1.1943 -2.1238  0.4407
 2360TIP3   OH228494   0.048   2.491  11.317 -0.3978  0.4292  0.8813
 2360TIP3    H128495   0.094   2.566  11.352  0.7055  0.5140 -0.6311
 2360TIP3    H228496   0.075   2.418  11.373 -0.9185  1.0174  1.9206
 2361TIP3   OH228497   2.302   2.077  11.990 -0.2079 -0.5810  0.0430
 2361TIP3    H128498   2.284   2.166  12.022 -0.1393 -0.1171 -1.1727
 2361TIP3    H228499   2.215   2.037  11.983 -0.5390  0.3338 -2.0086
 2362TIP3   OH228500   4.477   0.946   3.702  0.4994  0.2392  0.6897
 2362TIP3    H128501   4.471   1.038   3.679 -1.1051  0.2553  1.0767
 2362TIP3    H228502   4.403   0.930   3.760  1.2549 -1.0957  1.3556
 2363TIP3   OH228503   4.892   2.359   1.814  0.3277  0.3467  0.1431
 2363TIP3    H128504   4.866   2.290   1.754  1.9737  0.5566 -0.8822
 2363TIP3    H228505   4.813   2.410   1.829 -0.1028  0.4163 -2.0481
 2364TIP3   OH228506   1.481   3.709   1.707  0.1741  0.1465 -0.3451
 2364TIP3    H128507   1.518   3.676   1.626 -0.1846  0.4630 -0.6422
 2364TIP3    H228508   1.556   3.725   1.764  0.3203 -2.5336  0.3568
 2365TIP3   OH228509   5.216   6.030  13.930 -0.1824 -0.0824  0.6774
 2365TIP3    H128510   5.175   6.115  13.915  0.1441  0.0530  0.5524
 2365TIP3    H228511   5.171   5.971  13.870 -0.2927  0.0355  0.6433
 2366TIP3   OH228512   6.393   4.867  16.981  0.0351 -0.7655  0.3121
 2366TIP3    H128513   6.352   4.918  16.911  0.6980  0.7692  0.9803
 2366TIP3    H228514   6.440   4.797  16.935  2.5705  1.6414 -1.1143
 2367TIP3   OH228515   3.631   5.332  15.850 -0.2263  1.0310  0.1269
 2367TIP3    H128516   3.613   5.252  15.899  0.1480  1.5382  1.1083
 2367TIP3    H228517   3.553   5.385  15.861  0.4733  1.8089  1.5323
 2368TIP3   OH228518   0.125   4.546   4.927  0.8871 -0.2032 -0.1171
 2368TIP3    H128519   0.168   4.541   5.012 -0.5670  1.7379  0.8114
 2368TIP3    H228520   0.147   4.634   4.894  1.1202 -0.7810 -1.5920
 2369TIP3   OH228521   3.134   4.849  14.031  0.5516 -0.1786 -0.3498
 2369TIP3    H128522   3.059   4.819  14.083  0.4432  0.3529 -0.1964
 2369TIP3    H228523   3.140   4.942  14.050  0.6134 -0.0124 -1.1792
 2370TIP3   OH228524   2.725   2.628   3.291 -0.0568 -0.5251 -0.4667
 2370TIP3    H128525   2.676   2.708   3.274  0.8398  0.0085 -0.5980
 2370TIP3    H228526   2.721   2.617   3.386 -0.8482 -0.7695 -0.5209
 2371TIP3   OH228527   3.683   4.750   3.656  0.3444 -1.1478  0.1945
 2371TIP3    H128528   3.673   4.761   3.562  1.7007  0.5847  0.1963
 2371TIP3    H228529   3.603   4.787   3.693  0.2808 -0.8359 -0.2447
 2372TIP3   OH228530   4.894   4.320   3.382  0.1083 -0.3726 -0.0414
 2372TIP3    H128531   4.935   4.234   3.389  0.5736  0.0014  2.6796
 2372TIP3    H228532   4.800   4.302   3.379  0.2289 -0.9878 -0.2282
 2373TIP3   OH228533   2.555   1.979  12.741 -0.4421  1.0721 -0.0499
 2373TIP3    H128534   2.474   1.930  12.729 -0.6010  1.1515  0.6247
 2373TIP3    H228535   2.590   1.990  12.653 -1.2771  1.2300 -0.3719
 2374TIP3   OH228536   5.586   5.643   5.383  0.3577  0.3773 -0.0774
 2374TIP3    H128537   5.573   5.643   5.288 -0.6021 -0.4581  0.0348
 2374TIP3    H228538   5.639   5.722   5.400 -0.3900  1.1488 -1.1772
 2375TIP3   OH228539   1.764   2.898   4.200  0.6835  0.1631  0.2730
 2375TIP3    H128540   1.827   2.970   4.193  0.3832  0.2353 -2.6814
 2375TIP3    H228541   1.684   2.932   4.161 -0.1825 -1.0295  0.9513
 2376TIP3   OH228542   6.085   1.555  13.673 -0.4964 -0.1914  0.5241
 2376TIP3    H128543   6.085   1.530  13.581 -0.7445  0.2757  0.3960
 2376TIP3    H228544   5.993   1.570  13.695 -0.2891  1.4916  0.3461
 2377TIP3   OH228545   2.088   0.226   5.134 -0.5828 -0.6804  0.3566
 2377TIP3    H128546   2.064   0.303   5.082  0.5987 -0.3115  0.3347
 2377TIP3    H228547   2.133   0.262   5.210  0.1563 -1.3561  0.2481
 2378TIP3   OH228548   1.999   3.172   4.595  0.5825  0.4571  0.6108
 2378TIP3    H128549   2.026   3.159   4.686 -0.2352  0.1789  0.8257
 2378TIP3    H228550   1.996   3.084   4.559  1.0963  0.5849  0.2561
 2379TIP3   OH228551   2.893   6.705   5.065 -0.3688 -0.4634  0.1968
 2379TIP3    H128552   2.958   6.772   5.088  0.7535 -1.5346  0.2183
 2379TIP3    H228553   2.944   6.625   5.053 -1.7014 -1.3528  0.2782
 2380TIP3   OH228554   0.461   0.594  16.591 -0.1726 -0.2298  0.1513
 2380TIP3    H128555   0.447   0.539  16.514  1.0684  0.0734 -0.3198
 2380TIP3    H228556   0.401   0.667  16.580 -3.1400 -2.2330  1.6432
 2381TIP3   OH228557   4.593   2.304   0.943  0.3076  0.4568  0.7581
 2381TIP3    H128558   4.670   2.361   0.938  0.3422  0.7293  3.1656
 2381TIP3    H228559   4.626   2.222   0.979 -0.2804  0.0216  0.3300
 2382TIP3   OH228560   3.957   1.019   5.177  0.1561  0.2075  0.3676
 2382TIP3    H128561   4.037   1.069   5.191  1.3662 -0.0994 -3.8638
 2382TIP3    H228562   3.936   1.034   5.085 -3.2752 -1.7404  0.6777
 2383TIP3   OH228563   4.508   2.478   3.368  0.0292 -0.5002  0.2619
 2383TIP3    H128564   4.476   2.567   3.383 -1.3062 -0.7612 -0.9184
 2383TIP3    H228565   4.580   2.489   3.305 -1.3091 -0.3827 -1.3086
 2384TIP3   OH228566   4.282   3.630  16.939  0.5140  0.3694  0.2157
 2384TIP3    H128567   4.303   3.628  16.846 -0.3589  1.1594 -0.0061
 2384TIP3    H228568   4.360   3.666  16.981  0.4302  1.2487 -0.3602
 2385TIP3   OH228569   1.007   3.445   2.344 -0.2012 -0.4839 -0.5547
 2385TIP3    H128570   0.968   3.358   2.333  1.0243 -0.9369 -1.5196
 2385TIP3    H228571   0.959   3.500   2.283 -0.5848 -0.6231 -0.3793
 2386TIP3   OH228572   0.605   6.223  12.447  0.0154  0.2807  0.3331
 2386TIP3    H128573   0.578   6.298  12.394 -1.2220  1.0158  1.9149
 2386TIP3    H228574   0.553   6.150  12.412  0.0945  0.4797 -0.2190
 2387TIP3   OH228575   2.577   3.699  15.609 -0.2894  0.2957 -0.8458
 2387TIP3    H128576   2.597   3.793  15.606 -0.4773  0.3261 -1.2671
 2387TIP3    H228577   2.504   3.692  15.670  0.6413  0.2484  0.2861
 2388TIP3   OH228578   1.550   0.546  12.475  0.4904 -0.2215  0.6365
 2388TIP3    H128579   1.537   0.458  12.439  0.1922 -0.0185  0.2410
 2388TIP3    H228580   1.462   0.584  12.475  0.7192  0.3126  0.1918
 2389TIP3   OH228581   3.947   3.959   3.927 -0.1985  0.3855 -0.8912
 2389TIP3    H128582   3.939   4.054   3.930  1.7856  0.5800 -0.1574
 2389TIP3    H228583   4.018   3.943   3.865 -0.2282 -0.5905 -0.6895
 2390TIP3   OH228584   0.768   3.269   1.460 -0.5724 -0.3087 -0.6915
 2390TIP3    H128585   0.774   3.198   1.397  0.7349  0.6100 -1.6702
 2390TIP3    H228586   0.840   3.254   1.520 -0.9989 -0.4429 -0.2091
 2391TIP3   OH228587   2.453   0.237   0.913 -0.1388  0.2399 -0.4694
 2391TIP3    H128588   2.425   0.323   0.943  0.3001  1.1751 -2.5911
 2391TIP3    H228589   2.504   0.201   0.986  1.5830  2.7153 -0.3354
 2392TIP3   OH228590   1.115   0.386   0.521  0.4756 -0.3249  0.0515
 2392TIP3    H128591   1.061   0.413   0.447 -0.8783 -1.1999  0.6810
 2392TIP3    H228592   1.146   0.467   0.559  0.0660  0.1801 -0.6611
 2393TIP3   OH228593   5.433   1.489  15.523  0.4092 -0.1293  0.3189
 2393TIP3    H128594   5.374   1.534  15.584 -0.1411 -0.6160  0.1535
 2393TIP3    H228595   5.477   1.560  15.476  2.9321  0.3611  3.1696
 2394TIP3   OH228596   5.689   1.178  14.964  0.1774  0.4311  0.3458
 2394TIP3    H128597   5.725   1.120  15.031 -2.3597  1.9973  3.3068
 2394TIP3    H228598   5.695   1.265  15.002  0.7910  1.7740 -2.5584
 2395TIP3   OH228599   4.559   6.415   5.411  0.1754  0.1122  0.0496
 2395TIP3    H128600   4.464   6.407   5.422  0.2618  0.5440  1.3011
 2395TIP3    H228601   4.592   6.327   5.430 -0.0375 -0.3446 -1.5394
 2396TIP3   OH228602   1.191   4.882  12.042 -0.6601 -0.3265 -0.1018
 2396TIP3    H128603   1.118   4.923  12.087 -0.6600 -1.5366  1.0785
 2396TIP3    H228604   1.191   4.791  12.074  1.8302 -0.1542  0.5854
 2397TIP3   OH228605   0.056   0.054   3.014  1.0386 -0.1608 -0.3745
 2397TIP3    H128606   0.149   0.052   3.037  1.2171 -2.9917 -0.8696
 2397TIP3    H228607   0.055   0.029   2.921 -0.2132 -0.7215 -0.2311
 2398TIP3   OH228608   3.972   5.617   5.828  0.2867 -0.3779  0.6341
 2398TIP3    H128609   3.914   5.650   5.760 -1.2559 -1.9702  1.1135
 2398TIP3    H228610   3.934   5.650   5.910  0.7283 -0.4898  0.8900
 2399TIP3   OH228611   4.129   5.406   2.212 -0.1208 -0.5237 -0.0447
 2399TIP3    H128612   4.172   5.362   2.286  0.5091 -1.7964 -1.1216
 2399TIP3    H228613   4.127   5.340   2.143 -0.1785  0.8095 -1.3646
 2400TIP3   OH228614   5.130   6.697   1.504 -0.1429  0.0737 -0.3585
 2400TIP3    H128615   5.040   6.680   1.531 -0.0528  0.3715  0.1291
 2400TIP3    H228616   5.130   6.790   1.479 -0.1333 -0.0968 -1.0249
 2401TIP3   OH228617   5.476   0.472  14.763  0.2609  0.0067  0.0178
 2401TIP3    H128618   5.470   0.526  14.684  3.7894  1.2196  0.3954
 2401TIP3    H228619   5.463   0.533  14.835 -0.1498 -0.5588  0.4318
 2402TIP3   OH228620   4.558   1.261   3.192  1.0412  0.4063 -0.3660
 2402TIP3    H128621   4.554   1.214   3.108 -0.0854  1.4346 -0.9089
 2402TIP3    H228622   4.480   1.316   3.193 -0.4413 -1.4703  2.5127
 2403TIP3   OH228623   2.116   0.288   6.468 -0.1856  0.8696  0.2212
 2403TIP3    H128624   2.179   0.334   6.412 -2.3758  3.0823 -0.6464
 2403TIP3    H228625   2.032   0.297   6.421 -1.3879 -0.8469  1.8977
 2404TIP3   OH228626   3.804   3.545  11.808  0.3619  0.0765 -0.1334
 2404TIP3    H128627   3.772   3.603  11.739  2.9737 -0.3775 -1.8801
 2404TIP3    H228628   3.856   3.602  11.865  0.9082 -0.0955 -0.4500
 2405TIP3   OH228629   0.114   4.320   2.518  0.3212  0.3599 -0.1645
 2405TIP3    H128630   0.176   4.358   2.579 -0.6726 -1.5976  2.2826
 2405TIP3    H228631   0.100   4.231   2.551 -2.7703  0.2884 -1.3128
 2406TIP3   OH228632   3.807   0.838  16.162 -0.6638  0.1116 -0.6943
 2406TIP3    H128633   3.722   0.796  16.174 -0.3641 -0.2802  0.1953
 2406TIP3    H228634   3.870   0.766  16.164 -0.1578  0.5499  0.6689
 2407TIP3   OH228635   1.639   2.245   0.482 -0.0198  0.0127 -0.3414
 2407TIP3    H128636   1.679   2.246   0.396  1.8376  2.1566  0.4534
 2407TIP3    H228637   1.667   2.162   0.521 -0.0123 -0.4948 -1.4112
 2408TIP3   OH228638   1.501   0.977  12.720 -0.3021 -0.1801  0.2841
 2408TIP3    H128639   1.573   1.036  12.744 -0.1740 -0.2748  0.1361
 2408TIP3    H228640   1.447   0.973  12.798  0.8787 -1.6264  1.0743
 2409TIP3   OH228641   4.812   0.956   1.279  0.6226  0.0145 -0.3513
 2409TIP3    H128642   4.764   0.873   1.287 -1.0710  1.0113  0.3050
 2409TIP3    H228643   4.772   0.999   1.204  0.9340  0.6055 -0.1801
 2410TIP3   OH228644   6.569   6.119  12.930  0.3516  0.0267  0.3241
 2410TIP3    H128645   6.593   6.045  12.875 -2.0162  0.8369 -1.9792
 2410TIP3    H228646   6.480   6.099  12.959 -0.3152  1.9010 -0.2988
 2411TIP3   OH228647   4.950   5.162   2.406 -0.6239 -0.0846  0.0735
 2411TIP3    H128648   4.937   5.156   2.500 -2.4308  0.2437 -0.1212
 2411TIP3    H228649   4.864   5.183   2.371  0.2396  1.0070 -1.5573
 2412TIP3   OH228650   5.840   4.015   4.135 -0.0629 -0.1163 -0.9237
 2412TIP3    H128651   5.916   4.073   4.125 -0.6059  0.5413 -1.2856
 2412TIP3    H228652   5.798   4.015   4.049 -0.1464 -0.9423 -0.8866
 2413TIP3   OH228653   0.261   1.113  16.269  0.4283  0.3296  0.0882
 2413TIP3    H128654   0.333   1.054  16.245  0.4963 -0.0050  1.0748
 2413TIP3    H228655   0.292   1.200  16.246  0.2023 -0.0136 -1.7087
 2414TIP3   OH228656   0.116   2.400   1.285 -0.6328 -0.1689 -0.0044
 2414TIP3    H128657   0.182   2.347   1.329 -0.4989  0.1457  0.1747
 2414TIP3    H228658   0.120   2.373   1.193  0.2379  0.3503 -0.1312
 2415TIP3   OH228659   6.647   3.376  16.375 -0.3696  0.4605 -0.1145
 2415TIP3    H128660   6.558   3.365  16.408 -0.3362  1.2899  0.2831
 2415TIP3    H228661   6.702   3.372  16.453 -0.0562 -0.0251 -0.3575
 2416TIP3   OH228662   5.023   1.421   3.713 -0.7085  0.1868 -0.4448
 2416TIP3    H128663   5.095   1.482   3.733 -0.1106 -0.8982  0.7926
 2416TIP3    H228664   4.966   1.424   3.790 -0.5577 -0.9603 -0.2706
 2417TIP3   OH228665   2.550   0.831  15.704  0.1858 -0.5108 -0.7281
 2417TIP3    H128666   2.570   0.812  15.795  0.5153 -0.8447 -0.8674
 2417TIP3    H228667   2.456   0.816  15.696 -0.1148  0.8774 -0.1135
 2418TIP3   OH228668   2.461   6.563  14.845 -0.7595  0.2805 -0.3595
 2418TIP3    H128669   2.451   6.468  14.836 -0.2123  0.1217  0.5840
 2418TIP3    H228670   2.535   6.574  14.904 -1.3419  1.2915  0.2142
 2419TIP3   OH228671   2.926   0.689   0.853  0.8220  0.0725 -0.2023
 2419TIP3    H128672   2.958   0.601   0.874  1.2935  0.5259  1.0343
 2419TIP3    H228673   2.895   0.724   0.936  1.4873  1.4239 -0.4886
 2420TIP3   OH228674   1.727   4.417  12.210 -0.5473 -0.0637 -0.4653
 2420TIP3    H128675   1.658   4.460  12.159 -0.2594 -1.2373 -1.9028
 2420TIP3    H228676   1.757   4.345  12.154 -0.2125 -1.4145  1.3809
 2421TIP3   OH228677   4.230   2.056  12.811  0.0585  0.6582  0.1636
 2421TIP3    H128678   4.319   2.091  12.805  0.0819  0.6003  0.1779
 2421TIP3    H228679   4.176   2.123  12.769  0.2902 -0.0532 -1.3553
 2422TIP3   OH228680   3.267   4.470  14.594 -0.1439  0.7025  0.1878
 2422TIP3    H128681   3.275   4.475  14.689 -0.6005  1.3428  0.1945
 2422TIP3    H228682   3.195   4.409  14.579  0.5841 -0.1903  0.2261
 2423TIP3   OH228683   3.850   0.656  14.806 -0.3982 -0.4804 -0.6072
 2423TIP3    H128684   3.799   0.728  14.769 -0.3677  0.1973  0.6073
 2423TIP3    H228685   3.821   0.578  14.757 -1.3514  0.1562 -1.0846
 2424TIP3   OH228686   0.382   2.718   0.689  0.1362  0.5749  0.3343
 2424TIP3    H128687   0.310   2.669   0.649  1.2944  0.1919 -1.4346
 2424TIP3    H228688   0.367   2.809   0.663  0.5062  0.4301 -0.4103
 2425TIP3   OH228689   4.710   0.860   3.324 -0.2958  0.2563  0.3711
 2425TIP3    H128690   4.772   0.913   3.374  0.5227 -1.6431  1.4684
 2425TIP3    H228691   4.765   0.809   3.265 -0.9524 -0.2984  0.2313
 2426TIP3   OH228692   5.510   4.498  16.019 -0.1962 -0.0310  0.2136
 2426TIP3    H128693   5.596   4.479  15.979  0.1363  1.3880  0.2205
 2426TIP3    H228694   5.531   4.532  16.105 -0.7028  1.3817 -0.1987
 2427TIP3   OH228695   5.375   4.754  15.914  0.0491 -0.2757 -0.3751
 2427TIP3    H128696   5.423   4.672  15.919  1.2198  0.3383 -1.0868
 2427TIP3    H228697   5.403   4.794  15.831 -0.7929  0.6545 -0.2385
 2428TIP3   OH228698   2.662   0.832  13.734  0.2343  0.4238  0.0102
 2428TIP3    H128699   2.686   0.749  13.693 -0.2503  0.3026 -0.0296
 2428TIP3    H228700   2.689   0.823  13.825  1.7574  0.8713 -0.3666
 2429TIP3   OH228701   2.485   0.019  11.399 -0.3801 -0.5880  0.1317
 2429TIP3    H128702   2.532   0.091  11.357  0.3626 -1.1161  0.0393
 2429TIP3    H228703   2.541  -0.007  11.472 -2.6677  1.8463  3.0358
 2430TIP3   OH228704   5.039   1.267   0.667  0.8765 -0.4092 -0.3850
 2430TIP3    H128705   4.971   1.300   0.608  0.5871  0.9783  0.6698
 2430TIP3    H228706   5.025   1.315   0.748  2.5657 -0.7584  0.1471
 2431TIP3   OH228707   4.645   2.246  14.796  0.1366 -0.3163 -0.4605
 2431TIP3    H128708   4.686   2.333  14.800  0.8075 -0.6163 -0.6263
 2431TIP3    H228709   4.667   2.213  14.709 -0.3940 -0.5233 -0.5188
 2432TIP3   OH228710   1.651   1.462  14.610  1.0135 -0.0451  0.9171
 2432TIP3    H128711   1.737   1.479  14.572  0.6181  0.4341  0.2254
 2432TIP3    H228712   1.641   1.367  14.605  1.0492 -0.0083 -0.0058
 2433TIP3   OH228713   3.621   3.167   6.046  0.3501  0.3239  0.1232
 2433TIP3    H128714   3.677   3.152   5.971 -0.2244 -1.3337 -0.0112
 2433TIP3    H228715   3.680   3.199   6.115  1.4099 -1.0167 -0.1199
 2434TIP3   OH228716   0.973   3.928   2.540  0.6689 -0.2414 -0.5929
 2434TIP3    H128717   1.029   3.937   2.617 -0.2690 -1.7160  0.3029
 2434TIP3    H228718   1.034   3.916   2.467  1.5407  0.1470  0.0552
 2435TIP3   OH228719   4.669   4.618  15.522 -0.3147 -0.3539 -0.5706
 2435TIP3    H128720   4.748   4.588  15.567 -1.0836  0.5903  1.5050
 2435TIP3    H228721   4.692   4.613  15.429  1.6995 -1.3949 -0.0823
 2436TIP3   OH228722   6.332   4.609   1.720 -0.0165  0.1391  0.7364
 2436TIP3    H128723   6.352   4.687   1.669  1.0152 -0.3843  0.3225
 2436TIP3    H228724   6.257   4.570   1.675 -1.8376  1.8611  2.0377
 2437TIP3   OH228725   6.382   4.618   5.332 -0.2851  0.0366 -0.5749
 2437TIP3    H128726   6.374   4.523   5.339 -1.3500  0.2313  1.8676
 2437TIP3    H228727   6.469   4.637   5.367  0.2079 -0.0466 -1.7020
 2438TIP3   OH228728   1.011   5.457   0.253 -0.3012 -0.5381  0.0238
 2438TIP3    H128729   1.107   5.448   0.252  0.0375  2.0873  0.8630
 2438TIP3    H228730   0.979   5.367   0.255  2.1337 -1.5112 -0.2561
 2439TIP3   OH228731   3.123   1.963  11.257  0.7556 -0.5649  0.1000
 2439TIP3    H128732   3.074   2.012  11.323  1.4410  1.7116 -1.0157
 2439TIP3    H228733   3.058   1.944  11.189  0.5125 -1.2038  0.4937
 2440TIP3   OH228734   1.397   6.284   5.599 -0.0159 -0.1218 -0.1162
 2440TIP3    H128735   1.374   6.323   5.684 -0.7073 -1.2334  0.2190
 2440TIP3    H228736   1.406   6.360   5.541 -0.3815  0.6098  0.7430
 2441TIP3   OH228737   0.873   6.152   1.657 -0.0656  0.1733 -0.0142
 2441TIP3    H128738   0.801   6.089   1.659  0.7441 -0.7872 -0.1840
 2441TIP3    H228739   0.934   6.119   1.723  1.6257 -0.7672 -1.9699
 2442TIP3   OH228740   2.516   4.092   5.708  0.3422 -0.0954 -0.2764
 2442TIP3    H128741   2.535   4.185   5.713  1.6771 -0.1991 -2.1739
 2442TIP3    H228742   2.479   4.070   5.793  1.7387  1.7812  0.8869
 2443TIP3   OH228743   4.986   1.139  11.178 -0.0256  0.1384  0.3398
 2443TIP3    H128744   5.066   1.153  11.127 -0.0760  0.7342  0.4224
 2443TIP3    H228745   4.940   1.069  11.131  1.7132 -2.0192  1.6544
 2444TIP3   OH228746   2.015   6.153  11.499 -0.8870 -0.3083  0.2444
 2444TIP3    H128747   2.009   6.063  11.532  0.5521 -0.2516  0.7524
 2444TIP3    H228748   1.930   6.192  11.519 -0.7432 -0.8734  2.1310
 2445TIP3   OH228749   0.913   2.703  10.443  0.0413  0.2861  0.0741
 2445TIP3    H128750   0.979   2.761  10.481 -0.1269  0.3290  0.3052
 2445TIP3    H228751   0.861   2.674  10.518  1.5915 -2.0915  0.3483
 2446TIP3   OH228752   0.272   6.646   2.595  0.1239 -0.8451 -0.3971
 2446TIP3    H128753   0.296   6.735   2.621  0.2942 -0.9563 -0.1711
 2446TIP3    H228754   0.347   6.615   2.544  0.7641 -1.4242  0.8447
 2447TIP3   OH228755   6.525   1.445  10.883  0.2292 -0.2904 -0.0655
 2447TIP3    H128756   6.559   1.498  10.811  1.2992  2.0266  2.0117
 2447TIP3    H228757   6.603   1.417  10.931 -0.4379 -2.1657  0.0008
 2448TIP3   OH228758   3.065   3.918  11.748 -0.2060 -0.6860  0.7443
 2448TIP3    H128759   3.157   3.893  11.739  0.1518  0.9665 -0.5446
 2448TIP3    H228760   3.050   3.919  11.843  2.1514  2.3917  1.2430
 2449TIP3   OH228761   2.447   2.330   4.906  0.0340 -0.3982 -0.8585
 2449TIP3    H128762   2.374   2.389   4.926  1.5962  1.5235 -0.5159
 2449TIP3    H228763   2.423   2.289   4.823 -1.1342  0.7360 -1.1166
 2450TIP3   OH228764   1.649   0.676  14.712 -0.0925 -0.4041 -0.3556
 2450TIP3    H128765   1.637   0.582  14.698  1.1833 -0.1984 -3.5685
 2450TIP3    H228766   1.591   0.717  14.648 -0.8089  1.0611  1.1559
 2451TIP3   OH228767   0.699   1.479   2.593  0.0867  0.3466 -0.2998
 2451TIP3    H128768   0.757   1.554   2.584 -0.9524  1.2841  0.4863
 2451TIP3    H228769   0.691   1.466   2.688  0.4976 -0.9679 -0.4259
 2452TIP3   OH228770   6.118   2.569  14.187 -0.2274  0.4152 -0.0241
 2452TIP3    H128771   6.105   2.474  14.198  0.4862  0.3952  0.7255
 2452TIP3    H228772   6.213   2.580  14.181 -0.0685  1.3266  2.6926
 2453TIP3   OH228773   1.836   6.252   0.587 -0.0779 -0.0132  0.1780
 2453TIP3    H128774   1.840   6.277   0.495 -1.7991 -0.2532  0.0047
 2453TIP3    H228775   1.916   6.201   0.601  2.0757  2.9688 -0.1991
 2454TIP3   OH228776   3.130   4.735  13.206 -0.3671  0.1369  0.1512
 2454TIP3    H128777   3.174   4.754  13.288  0.4650  0.0783 -0.2730
 2454TIP3    H228778   3.170   4.654  13.175  0.4216  0.9571 -1.0621
 2455TIP3   OH228779   4.652   4.033   3.693 -1.0721  0.3968  0.0153
 2455TIP3    H128780   4.615   4.011   3.608  0.2446 -0.1354 -0.4406
 2455TIP3    H228781   4.578   4.024   3.754 -1.6545 -0.8256 -0.8290
 2456TIP3   OH228782   6.382   4.881  13.226 -0.1073 -0.2037 -0.0254
 2456TIP3    H128783   6.317   4.941  13.190 -0.3841 -0.4228  0.1028
 2456TIP3    H228784   6.335   4.834  13.295  0.3454  0.0443  0.4629
 2457TIP3   OH228785   0.127   0.076  11.699  0.1109  0.0675  0.0968
 2457TIP3    H128786   0.174   0.148  11.739  0.0829 -0.2952  0.7966
 2457TIP3    H228787   0.051   0.061  11.756  0.0647 -0.4466 -0.0932
 2458TIP3   OH228788   5.506   5.802   0.813  0.5924 -0.1157 -0.3325
 2458TIP3    H128789   5.444   5.874   0.812  1.7839  0.9382 -0.8584
 2458TIP3    H228790   5.504   5.766   0.724 -1.4088 -2.0465  0.3967
 2459TIP3   OH228791   5.459   1.495  16.716  0.1127 -0.1013  0.0215
 2459TIP3    H128792   5.457   1.408  16.677  0.6873  0.1119 -0.5062
 2459TIP3    H228793   5.447   1.480  16.810  1.3194 -0.8538  0.0745
 2460TIP3   OH228794   4.197   2.310  11.472 -0.1144  0.1828 -0.4198
 2460TIP3    H128795   4.207   2.272  11.385 -0.5235 -2.3911  0.5694
 2460TIP3    H228796   4.222   2.239  11.532  0.0751  1.8380  1.5720
 2461TIP3   OH228797   0.732   5.339   5.633 -0.5380 -0.2370 -0.4511
 2461TIP3    H128798   0.712   5.342   5.727  1.1396  0.0264 -0.0721
 2461TIP3    H228799   0.647   5.351   5.590 -1.6115 -2.0051  1.0001
 2462TIP3   OH228800   3.370   5.872   3.741 -0.1332 -0.1716 -1.0755
 2462TIP3    H128801   3.460   5.892   3.712  0.3209  0.5441  0.7235
 2462TIP3    H228802   3.381   5.823   3.822 -1.3863 -0.3987 -1.0235
 2463TIP3   OH228803   3.138   2.374   0.662 -0.0733  0.2857  0.0241
 2463TIP3    H128804   3.070   2.373   0.728  0.7443 -0.6044  0.8955
 2463TIP3    H228805   3.169   2.283   0.659  0.3430  0.4520 -1.1194
 2464TIP3   OH228806   1.242   2.692   2.857 -0.2431 -0.7672 -0.0888
 2464TIP3    H128807   1.190   2.717   2.933 -0.2104 -0.2858 -0.2187
 2464TIP3    H228808   1.320   2.747   2.863 -0.4376 -0.4148 -0.6964
 2465TIP3   OH228809   6.674   3.873  11.390  0.0993  0.0884 -0.3511
 2465TIP3    H128810   6.591   3.855  11.346  1.3309 -1.9079 -2.0765
 2465TIP3    H228811   6.693   3.793  11.439 -0.2760  1.5571  2.4157
 2466TIP3   OH228812   1.554   5.570   1.079 -0.0833  0.3400  0.0436
 2466TIP3    H128813   1.620   5.633   1.051  0.7128 -0.6903 -0.4393
 2466TIP3    H228814   1.593   5.524   1.153 -0.6343  0.3557  0.3541
 2467TIP3   OH228815   5.792   4.584   1.865 -0.0423 -0.0142  0.0669
 2467TIP3    H128816   5.812   4.494   1.841  1.8704  0.0084  1.3441
 2467TIP3    H228817   5.746   4.620   1.788  2.1057 -1.1089 -1.8444
 2468TIP3   OH228818   0.855   0.715   0.357 -0.4062 -0.2406  0.4353
 2468TIP3    H128819   0.774   0.755   0.387 -0.0535  0.8254 -0.0028
 2468TIP3    H228820   0.883   0.769   0.283  0.0205 -1.3687 -0.2547
 2469TIP3   OH228821   0.887   5.807  12.148  0.1825 -0.4397  0.6968
 2469TIP3    H128822   0.976   5.809  12.183  1.1342  1.1734 -1.6199
 2469TIP3    H228823   0.884   5.879  12.086 -1.4555 -2.9192 -2.3547
 2470TIP3   OH228824   1.199   4.921  15.823 -0.0327 -0.4653 -0.0591
 2470TIP3    H128825   1.123   4.965  15.860  0.5635  0.2697  0.3110
 2470TIP3    H228826   1.163   4.844  15.778 -1.0818  0.3455 -0.6450
 2471TIP3   OH228827   0.746   0.025  14.040  0.4694  0.6783 -0.0992
 2471TIP3    H128828   0.683   0.045  14.109  0.0557  2.3548 -0.9073
 2471TIP3    H228829   0.824  -0.005  14.086  0.4114  2.3195  1.1634
 2472TIP3   OH228830   0.800   4.405   4.036  0.0124  0.0257 -0.2836
 2472TIP3    H128831   0.706   4.400   4.053 -0.1901  0.5461 -1.2157
 2472TIP3    H228832   0.807   4.454   3.955  1.0880 -0.1627 -0.3127
 2473TIP3   OH228833   3.612   5.209  17.086  0.2953 -0.8182 -0.2205
 2473TIP3    H128834   3.550   5.272  17.050  1.0182  0.0852  0.0881
 2473TIP3    H228835   3.677   5.197  17.017  0.6331 -0.5551  0.0486
 2474TIP3   OH228836   1.171   6.728  14.954  0.1051 -0.2416  0.5697
 2474TIP3    H128837   1.144   6.796  14.892  0.9590 -1.2751 -1.0138
 2474TIP3    H228838   1.131   6.753  15.037 -3.4676 -0.2807 -0.9857
 2475TIP3   OH228839   3.991   5.501  14.241 -0.3277  0.4317 -0.2068
 2475TIP3    H128840   4.010   5.410  14.263  0.4511  0.7289  0.4102
 2475TIP3    H228841   4.033   5.515  14.157 -1.4860 -0.1078 -0.8990
 2476TIP3   OH228842   1.215   1.428  10.206  0.3407  0.1130 -0.0670
 2476TIP3    H128843   1.129   1.451  10.168 -0.7339  1.1529  2.7559
 2476TIP3    H228844   1.208   1.334  10.224 -0.3659  0.2682  0.5050
 2477TIP3   OH228845   3.063   6.543  16.852  0.0854  0.3352 -0.1075
 2477TIP3    H128846   3.115   6.617  16.821 -1.6060  1.5323 -0.1753
 2477TIP3    H228847   3.122   6.468  16.843  1.5704  1.5270 -0.8032
 2478TIP3   OH228848   0.441   5.524  13.695 -0.2228  0.2538  0.1913
 2478TIP3    H128849   0.449   5.533  13.600 -1.5125  0.3984  0.0828
 2478TIP3    H228850   0.504   5.455  13.718  0.6730  0.7715 -0.6464
 2479TIP3   OH228851   3.082   4.424   4.785  0.4597  0.3218  0.1351
 2479TIP3    H128852   2.991   4.453   4.793  0.3229  0.2906 -1.1105
 2479TIP3    H228853   3.114   4.467   4.706  1.4496  0.1097  0.4087
 2480TIP3   OH228854   1.976   4.070   4.394  0.1632 -0.1274  0.0345
 2480TIP3    H128855   1.972   4.123   4.314  0.4577 -0.5727 -0.2854
 2480TIP3    H228856   1.903   4.100   4.447  0.9072  1.3041  0.3087
 2481TIP3   OH228857   4.697   3.525   2.493 -0.7511  0.3548 -0.3706
 2481TIP3    H128858   4.642   3.602   2.506 -2.6499 -0.7252 -1.5300
 2481TIP3    H228859   4.718   3.527   2.400  0.8052  0.4737 -0.0375
 2482TIP3   OH228860   5.197   3.424   5.360 -0.3368 -0.1000 -0.6266
 2482TIP3    H128861   5.254   3.438   5.435 -0.8393 -1.0574 -0.0473
 2482TIP3    H228862   5.136   3.498   5.361 -0.4234 -0.1812 -0.0179
 2483TIP3   OH228863   4.791   5.121  14.580  0.0862 -0.1832  0.0218
 2483TIP3    H128864   4.729   5.104  14.651  1.0204 -0.0646  0.8998
 2483TIP3    H228865   4.817   5.034  14.549  1.5586 -0.3515  1.5529
 2484TIP3   OH228866   1.281   3.518   6.442 -0.4281  0.0806  0.6576
 2484TIP3    H128867   1.249   3.542   6.529 -0.2606  3.4639 -0.0926
 2484TIP3    H228868   1.375   3.537   6.445  0.0144 -1.8160  0.3115
 2485TIP3   OH228869   0.396   6.652  12.247  0.1794 -0.2753  0.0599
 2485TIP3    H128870   0.425   6.680  12.334 -0.6504 -1.1285  0.6287
 2485TIP3    H228871   0.369   6.733  12.203 -1.4308 -0.0334  1.3856
 2486TIP3   OH228872   6.642   4.971  11.828 -0.3629  0.6427  0.2394
 2486TIP3    H128873   6.624   4.942  11.917  2.8712 -1.8743  0.2544
 2486TIP3    H228874   6.593   4.910  11.773 -0.3887  0.6298  0.2766
 2487TIP3   OH228875   5.746   1.846   0.347  0.7153 -0.1817 -0.3368
 2487TIP3    H128876   5.782   1.919   0.297 -0.2889 -0.7594 -1.9968
 2487TIP3    H228877   5.815   1.824   0.409  0.9048  2.3650  0.4662
 2488TIP3   OH228878   5.137   4.448   2.615  0.0232 -0.6182  0.0209
 2488TIP3    H128879   5.145   4.366   2.566 -0.3964  0.3436 -1.7531
 2488TIP3    H228880   5.058   4.438   2.668 -1.8424 -0.2881 -2.5119
 2489TIP3   OH228881   0.562   3.134   3.949 -0.3749  0.1665 -0.1474
 2489TIP3    H128882   0.655   3.155   3.962 -0.0763 -0.4294 -1.1959
 2489TIP3    H228883   0.544   3.065   4.013  1.6131 -4.2301 -3.7712
 2490TIP3   OH228884   5.533   5.525   1.523 -0.0603  0.4278 -0.3259
 2490TIP3    H128885   5.549   5.551   1.432 -0.4569 -0.8323 -0.7712
 2490TIP3    H228886   5.500   5.436   1.517 -0.2684  0.3945  1.0542
 2491TIP3   OH228887   1.235   3.646   3.073 -0.2698  0.7411  0.2837
 2491TIP3    H128888   1.277   3.668   2.990 -0.9418  1.5685  0.1463
 2491TIP3    H228889   1.262   3.716   3.132  0.2844  0.1038  0.8081
 2492TIP3   OH228890   1.948   1.584   0.397 -0.0172  0.1741  0.3988
 2492TIP3    H128891   2.037   1.620   0.393 -0.2368  0.7377  0.5020
 2492TIP3    H228892   1.903   1.639   0.461 -0.9314  0.9677 -0.8912
 2493TIP3   OH228893   3.657   0.401   5.235 -0.1742 -0.3638  0.1181
 2493TIP3    H128894   3.562   0.405   5.246 -0.0955 -0.5318  0.9256
 2493TIP3    H228895   3.690   0.385   5.323  0.8706  3.8155  0.6896
 2494TIP3   OH228896   6.204   5.624   2.935 -0.3540  0.2336  0.0273
 2494TIP3    H128897   6.268   5.640   2.866  0.7361 -2.3862  0.2989
 2494TIP3    H228898   6.122   5.605   2.888 -0.1768  0.6567 -0.4547
 2495TIP3   OH228899   3.294   4.531   5.672 -0.5527  0.1647  0.3767
 2495TIP3    H128900   3.356   4.519   5.744  3.1526  1.0691 -2.3502
 2495TIP3    H228901   3.282   4.626   5.666 -2.1973  0.0115  0.7635
 2496TIP3   OH228902   0.818   2.056   0.263  0.3315  0.5950  0.2691
 2496TIP3    H128903   0.808   2.118   0.336 -1.5182  0.4327  0.1950
 2496TIP3    H228904   0.859   2.107   0.194  0.8950  1.1156  0.9661
 2497TIP3   OH228905   6.271   2.593  11.731  0.1632  0.0394  0.1985
 2497TIP3    H128906   6.199   2.650  11.708 -1.7010 -2.0482  0.5046
 2497TIP3    H228907   6.313   2.636  11.806 -1.7478  0.5648  1.0163
 2498TIP3   OH228908   6.495   5.064   4.636 -0.3993 -0.4170  0.3445
 2498TIP3    H128909   6.546   4.992   4.671  0.8073  0.3450  0.1964
 2498TIP3    H228910   6.460   5.109   4.713  1.3630  0.6208  0.5790
 2499TIP3   OH228911   4.739   6.265   2.251 -0.3364 -0.1070 -0.1196
 2499TIP3    H128912   4.749   6.195   2.187  0.5248 -0.0733 -0.0364
 2499TIP3    H228913   4.699   6.224   2.327 -2.1700  0.0252 -0.9652
 2500TIP3   OH228914   5.051   1.513  13.447  0.7353 -0.7300 -0.2229
 2500TIP3    H128915   5.107   1.487  13.521  0.9948 -0.2822 -0.2589
 2500TIP3    H228916   4.975   1.554  13.488  2.0761  2.0006 -0.1966
 2501TIP3   OH228917   3.813   3.654   5.676 -0.0741 -0.1619  0.9047
 2501TIP3    H128918   3.869   3.595   5.626  0.6429  0.0866  1.3944
 2501TIP3    H228919   3.831   3.633   5.768  1.4950  1.9314  1.1676
 2502TIP3   OH228920   4.883   1.479   0.847 -0.1553 -0.4519 -0.1171
 2502TIP3    H128921   4.788   1.481   0.855 -0.1674 -1.0361 -0.0036
 2502TIP3    H228922   4.907   1.561   0.804 -0.5826  0.3474  1.1336
 2503TIP3   OH228923   2.368   3.538   2.517  0.0614  0.0410  0.5854
 2503TIP3    H128924   2.454   3.546   2.475  0.6660  0.3569  1.8102
 2503TIP3    H228925   2.335   3.628   2.522 -0.0746 -0.0116  0.6321
 2504TIP3   OH228926   0.749   3.386  12.405 -0.3699  0.4288 -0.0110
 2504TIP3    H128927   0.828   3.336  12.426 -1.3550 -0.0958  2.8725
 2504TIP3    H228928   0.702   3.332  12.342 -0.7717 -1.7516  2.0322
 2505TIP3   OH228929   3.363   2.663  12.587  0.0479 -0.0389  0.1192
 2505TIP3    H128930   3.394   2.733  12.645  0.0908 -0.2019  0.2939
 2505TIP3    H228931   3.347   2.707  12.503  1.2660 -0.0441 -0.1336
 2506TIP3   OH228932   3.989   2.771  16.606 -0.1620  0.6594 -0.1166
 2506TIP3    H128933   3.963   2.860  16.631 -1.2501  0.0322  1.0918
 2506TIP3    H228934   3.922   2.743  16.544 -0.4704  0.2665  0.3910
 2507TIP3   OH228935   3.359   4.031   3.769 -0.0823 -0.1083 -0.7309
 2507TIP3    H128936   3.379   4.003   3.858 -0.3342 -0.6122 -0.8267
 2507TIP3    H228937   3.342   3.950   3.722  0.1818  0.1493 -1.2730
 2508TIP3   OH228938   4.752   4.582  12.541  0.2710 -0.2785 -0.1985
 2508TIP3    H128939   4.835   4.624  12.561  0.0440  0.8057 -1.3915
 2508TIP3    H228940   4.743   4.590  12.446 -1.5605  0.3878 -0.0169
 2509TIP3   OH228941   1.618   6.273  14.678  0.0911 -0.1280  0.0028
 2509TIP3    H128942   1.689   6.226  14.721 -0.3607 -0.5566  0.2986
 2509TIP3    H228943   1.551   6.282  14.745  0.1964  1.0273 -0.0235
 2510TIP3   OH228944   4.334   4.280   4.921  0.1561 -0.7431  0.6451
 2510TIP3    H128945   4.399   4.349   4.930 -1.0867  0.4295  0.9574
 2510TIP3    H228946   4.336   4.256   4.828 -0.3693  0.7234  0.2303
 2511TIP3   OH228947   3.739   2.468  10.788  0.2562  0.6713 -0.1493
 2511TIP3    H128948   3.745   2.381  10.749 -0.1525  0.3350  0.5219
 2511TIP3    H228949   3.830   2.495  10.799  0.3820  0.4676 -0.6597
 2512TIP3   OH228950   5.213   4.735   1.260  0.0899  0.0542  0.2448
 2512TIP3    H128951   5.124   4.715   1.288 -0.3507  1.2100 -0.2788
 2512TIP3    H228952   5.235   4.816   1.307  0.4372  0.3821 -0.4693
 2513TIP3   OH228953   5.483   4.914   2.373 -0.1522 -0.6733  0.5618
 2513TIP3    H128954   5.499   4.988   2.314 -3.8660 -0.3767 -0.3595
 2513TIP3    H228955   5.506   4.837   2.320 -0.2498 -0.2958 -0.0488
 2514TIP3   OH228956   2.786   4.354   0.838  0.5393 -0.6452  0.1828
 2514TIP3    H128957   2.767   4.294   0.766  0.1773  0.8763 -1.0305
 2514TIP3    H228958   2.706   4.353   0.892  0.3529 -0.8780 -0.0962
 2515TIP3   OH228959   4.711   4.924   3.322  0.2379 -0.3114 -0.3137
 2515TIP3    H128960   4.673   4.876   3.248  0.0391 -0.6505  0.0056
 2515TIP3    H228961   4.647   4.913   3.393  0.4559 -0.0378 -0.0733
 2516TIP3   OH228962   6.743   1.412   3.925 -0.3061  0.2220 -0.0816
 2516TIP3    H128963   6.683   1.472   3.969 -0.1874  0.6987 -0.5600
 2516TIP3    H228964   6.687   1.363   3.864 -0.3594  0.0251  0.1241
 2517TIP3   OH228965   3.209   6.565   3.650  0.4239  0.1283  0.1751
 2517TIP3    H128966   3.202   6.610   3.566  0.7970  1.9102  1.0508
 2517TIP3    H228967   3.256   6.484   3.630 -0.1486  0.1620 -1.4433
 2518TIP3   OH228968   2.185   3.596   3.903  0.1583  0.4436  0.6195
 2518TIP3    H128969   2.119   3.527   3.895 -0.4337  0.9643  0.9139
 2518TIP3    H228970   2.188   3.637   3.816  0.0462  0.4661  0.6268
 2519TIP3   OH228971   5.832   0.993  14.415  0.0022  0.1175  0.2609
 2519TIP3    H128972   5.880   1.052  14.357 -1.2665 -1.1482 -2.2324
 2519TIP3    H228973   5.901   0.945  14.462  1.0492  2.2594  1.0431
 2520TIP3   OH228974   2.231   0.873  15.348 -0.0717 -0.0871 -0.5981
 2520TIP3    H128975   2.252   0.903  15.437  0.7942  1.6276 -1.3305
 2520TIP3    H228976   2.314   0.842  15.313  0.5971  2.9894 -2.1265
 2521TIP3   OH228977   4.280   5.022   5.045  0.6068  0.2342  0.0797
 2521TIP3    H128978   4.313   5.067   4.967  0.4287  1.3687  0.6286
 2521TIP3    H228979   4.354   4.970   5.077  0.5373 -0.6098 -1.0993
 2522TIP3   OH228980   0.762   0.525  14.835  0.4034  0.1029  0.6306
 2522TIP3    H128981   0.697   0.532  14.765  0.4395 -1.2467  0.4357
 2522TIP3    H228982   0.711   0.512  14.915  0.3914  0.7437  0.7324
 2523TIP3   OH228983   1.027   6.739   4.488 -0.0743 -0.5699  0.2879
 2523TIP3    H128984   1.036   6.656   4.535  0.4847  0.4531  2.0997
 2523TIP3    H228985   1.113   6.780   4.495 -0.2882  0.0985 -0.7569
 2524TIP3   OH228986   0.752   3.592  16.088 -0.3337 -0.5274 -0.3195
 2524TIP3    H128987   0.764   3.506  16.127 -0.1890 -1.1576 -1.6787
 2524TIP3    H228988   0.680   3.580  16.026 -0.2637  0.3068 -0.5741
 2525TIP3   OH228989   3.761   4.664   0.723 -0.3541  0.3486  0.1419
 2525TIP3    H128990   3.688   4.605   0.742 -0.2291  0.2555  0.3425
 2525TIP3    H228991   3.829   4.638   0.786 -0.9421  1.8879  1.4774
 2526TIP3   OH228992   0.524   0.630  11.586  0.2816 -0.0504  0.5362
 2526TIP3    H128993   0.527   0.536  11.602  0.1723 -0.1914 -0.2082
 2526TIP3    H228994   0.615   0.654  11.568  0.0589 -0.4039 -1.2599
 2527TIP3   OH228995   4.588   1.558  16.000  0.0398  0.6608 -0.2246
 2527TIP3    H128996   4.527   1.502  15.951 -1.5208  0.5065  1.7609
 2527TIP3    H228997   4.559   1.647  15.979  0.4940  0.6631 -0.8933
 2528TIP3   OH228998   4.749   1.273  14.619 -0.2300 -0.0492  0.3545
 2528TIP3    H128999   4.830   1.243  14.661 -1.6184 -1.6145  2.0599
 2528TIP3    H229000   4.696   1.307  14.691 -1.8782 -0.9101 -0.4117
 2529TIP3   OH229001   4.193   2.703   2.224  0.2424  0.1368  0.0119
 2529TIP3    H129002   4.269   2.657   2.260  0.8221  1.4398  0.4980
 2529TIP3    H229003   4.120   2.675   2.280  0.3816 -0.9450 -0.3159
 2530TIP3   OH229004   1.856   1.783   5.660  0.0558 -0.5079 -0.1998
 2530TIP3    H129005   1.866   1.759   5.568 -0.0519 -1.0624 -0.0672
 2530TIP3    H229006   1.927   1.737   5.705  0.6893  0.5069 -0.1280
 2531TIP3   OH229007   3.320   4.059  13.784  0.3765 -0.8082  0.1958
 2531TIP3    H129008   3.397   4.112  13.763 -0.5578  2.0145  3.1103
 2531TIP3    H229009   3.356   3.979  13.821  1.9943  0.2272  1.0335
 2532TIP3   OH229010   1.935   4.395  12.398  0.1355 -0.4432 -0.5986
 2532TIP3    H129011   1.868   4.334  12.428  0.7237 -0.9040 -0.2058
 2532TIP3    H229012   1.896   4.439  12.322 -1.0946  0.2233  0.3925
 2533TIP3   OH229013   2.139   6.388  15.634 -0.0388  0.1528 -0.3684
 2533TIP3    H129014   2.124   6.416  15.544  1.8074 -0.6199 -0.9543
 2533TIP3    H229015   2.110   6.462  15.688 -1.0281  0.6814 -1.5752
 2534TIP3   OH229016   5.297   0.429  12.772 -0.2191 -0.2300  0.1449
 2534TIP3    H129017   5.218   0.483  12.779 -0.1339 -0.2098  1.0761
 2534TIP3    H229018   5.369   0.490  12.786 -0.1409 -0.6413  1.7224
 2535TIP3   OH229019   2.309   3.016   5.121 -0.3555 -0.1601 -0.6025
 2535TIP3    H129020   2.322   3.100   5.165  0.4518  0.5856 -2.1749
 2535TIP3    H229021   2.378   3.013   5.054 -0.8884 -1.7051 -1.1288
 2536TIP3   OH229022   6.382   6.113  11.137  0.7939  0.6970 -0.3588
 2536TIP3    H129023   6.384   6.201  11.175 -0.9756  0.8226 -0.4748
 2536TIP3    H229024   6.410   6.055  11.209 -0.7625  1.1104  0.6324
 2537TIP3   OH229025   5.684   2.284   1.087  0.1209  0.3616 -0.0110
 2537TIP3    H129026   5.755   2.291   1.023  0.2777  3.1194  0.3333
 2537TIP3    H229027   5.615   2.237   1.042  0.8080  0.8787 -1.6808
 2538TIP3   OH229028   4.412   2.543  13.049 -0.2848 -0.0798  0.2135
 2538TIP3    H129029   4.350   2.611  13.023  1.0463  1.8985  1.8585
 2538TIP3    H229030   4.458   2.520  12.968 -3.2328 -1.8862 -1.1356
 2539TIP3   OH229031   3.775   3.217   1.342 -0.1489  0.1776  0.0791
 2539TIP3    H129032   3.851   3.269   1.319 -0.5240 -0.2039 -2.3258
 2539TIP3    H229033   3.811   3.134   1.373  0.4451  0.1133 -0.7476
 2540TIP3   OH229034   4.049   0.691  15.158 -0.2639 -0.0973 -0.1050
 2540TIP3    H129035   4.136   0.659  15.184 -0.2165  0.6700  0.7096
 2540TIP3    H229036   3.998   0.611  15.144  0.6711 -0.5782 -0.9827
 2541TIP3   OH229037   2.061   1.999   4.500  0.7546 -0.2046 -0.1116
 2541TIP3    H129038   2.031   1.921   4.548  0.2138 -0.4202 -0.7951
 2541TIP3    H229039   2.155   2.004   4.522  0.9184 -1.3470 -0.4452
 2542TIP3   OH229040   3.568   2.284  13.545  0.1213 -0.3937  0.0804
 2542TIP3    H129041   3.644   2.339  13.564 -0.7997  0.7828  0.4900
 2542TIP3    H229042   3.584   2.204  13.595  1.9464 -0.9320 -1.2789
 2543TIP3   OH229043   2.127   1.912  15.087  0.3637  0.1799  0.2548
 2543TIP3    H129044   2.188   1.884  15.155  0.1821 -0.8094  0.0314
 2543TIP3    H229045   2.073   1.834  15.069 -0.9199  0.9945  0.3984
 2544TIP3   OH229046   5.526   6.531   2.918  0.1119 -0.2130 -0.0604
 2544TIP3    H129047   5.589   6.548   2.988  0.7634 -0.8286 -0.4673
 2544TIP3    H229048   5.567   6.570   2.840  0.0424 -0.7015 -0.3471
 2545TIP3   OH229049   1.949   0.106   5.715  0.0587  0.6705  0.2689
 2545TIP3    H129050   2.016   0.137   5.654  0.3525  0.1333  0.3111
 2545TIP3    H229051   1.998   0.065   5.786 -0.3126 -0.3589 -0.0410
 2546TIP3   OH229052   6.401   6.037  13.761 -0.5955 -0.0078 -0.4130
 2546TIP3    H129053   6.348   6.043  13.841 -1.0697 -1.1743 -0.6138
 2546TIP3    H229054   6.375   6.113  13.709 -1.4570 -0.1030 -0.1404
 2547TIP3   OH229055   6.196   5.095  10.651 -0.0902  0.4221  0.4707
 2547TIP3    H129056   6.143   5.041  10.592 -1.3728  0.8756  1.1550
 2547TIP3    H229057   6.133   5.155  10.690  1.1146  1.6301  0.6137
 2548TIP3   OH229058   3.028   3.760   3.984 -0.5044  0.1505  0.3870
 2548TIP3    H129059   3.025   3.673   4.024  3.1053 -1.4952 -2.3027
 2548TIP3    H229060   3.034   3.742   3.890  0.0437  3.3420 -0.2777
 2549TIP3   OH229061   5.725   5.130  16.833 -0.3022 -0.2419  0.4788
 2549TIP3    H129062   5.776   5.065  16.785 -0.0660  0.1950  0.1207
 2549TIP3    H229063   5.776   5.211  16.824 -0.1342 -0.1924  1.6557
 2550TIP3   OH229064   2.155   0.568   1.413 -0.2227  0.1638  0.1637
 2550TIP3    H129065   2.164   0.653   1.455  0.8422  0.3728 -0.4626
 2550TIP3    H229066   2.061   0.559   1.397 -0.6592  0.1228  2.4334
 2551TIP3   OH229067   0.935   3.383  15.897 -0.1044  0.1029 -0.6584
 2551TIP3    H129068   1.025   3.375  15.926  0.2394  1.0567 -1.4282
 2551TIP3    H229069   0.891   3.431  15.967 -0.1427 -0.7529 -0.0731
 2552TIP3   OH229070   5.045   2.922   6.031  0.4922 -0.3099 -0.4724
 2552TIP3    H129071   4.950   2.931   6.038  0.3822 -1.5282 -0.1644
 2552TIP3    H229072   5.079   3.002   6.069 -0.3765 -1.0733  2.1259
 2553TIP3   OH229073   1.373   0.299   3.727 -0.0322 -0.4459  0.9789
 2553TIP3    H129074   1.399   0.382   3.766 -2.3165  1.3500 -0.9774
 2553TIP3    H229075   1.319   0.323   3.652 -2.7443 -3.6661  1.6019
 2554TIP3   OH229076   5.714   2.030   0.027  0.1104 -0.1904  0.0210
 2554TIP3    H129077   5.754   2.084  -0.040  1.0970  0.3021  0.9777
 2554TIP3    H229078   5.746   2.066   0.110 -2.4059  0.3118  0.8595
 2555TIP3   OH229079   3.490   4.158  13.553  0.3059  0.6596  0.3181
 2555TIP3    H129080   3.409   4.208  13.562 -0.5235 -0.8496  1.6031
 2555TIP3    H229081   3.466   4.081  13.503  1.0982  0.4933  0.1736
 2556TIP3   OH229082   2.812   4.368  12.699  0.5151  0.0255 -0.3752
 2556TIP3    H129083   2.907   4.367  12.704  0.5317  1.2447 -0.2629
 2556TIP3    H229084   2.789   4.280  12.668  1.6789 -0.2021 -0.6381
 2557TIP3   OH229085   6.117   5.377   5.023 -0.1720 -0.0624  0.7053
 2557TIP3    H129086   6.056   5.316   4.982  0.6428 -1.8873  2.0482
 2557TIP3    H229087   6.063   5.453   5.045 -1.2941 -0.3967 -0.7409
 2558TIP3   OH229088   5.744   3.318  12.561 -0.7756  0.1801  0.3674
 2558TIP3    H129089   5.831   3.349  12.586  0.4467 -2.7072  0.0705
 2558TIP3    H229090   5.730   3.355  12.474  0.4079  0.2137  0.1706
 2559TIP3   OH229091   3.939   2.786  15.395  0.1668  0.4146 -0.2130
 2559TIP3    H129092   4.006   2.814  15.457  1.6972 -1.3459 -0.9535
 2559TIP3    H229093   3.965   2.697  15.371 -1.1209  0.5449 -2.3378
 2560TIP3   OH229094   2.084   5.301  17.100  1.0970  0.1964 -0.1171
 2560TIP3    H129095   2.042   5.361  17.039 -1.4125 -1.5086 -0.2347
 2560TIP3    H229096   2.033   5.308  17.181  0.9430 -1.4433 -0.0228
 2561TIP3   OH229097   6.720   1.950  17.078 -0.2802  0.4652 -0.1405
 2561TIP3    H129098   6.790   2.008  17.047 -0.1632  1.0484  1.1704
 2561TIP3    H229099   6.643   2.007  17.085 -0.4693  0.1917  0.0181
 2562TIP3   OH229100   1.487   5.455   5.957  0.1084 -0.0822 -0.1670
 2562TIP3    H129101   1.448   5.542   5.956  1.4260  0.5738  0.8297
 2562TIP3    H229102   1.578   5.469   5.930  0.2468 -1.2044 -0.3493
 2563TIP3   OH229103   2.116   4.104   5.168 -0.3836 -0.0454  0.5197
 2563TIP3    H129104   2.118   4.011   5.145  2.0845  0.3871 -1.5339
 2563TIP3    H229105   2.157   4.109   5.254 -0.0000 -0.8293  0.3877
 2564TIP3   OH229106   3.619   4.869   4.001 -0.1499  0.2391 -0.2465
 2564TIP3    H129107   3.600   4.873   4.095  1.0708  1.1144 -0.0091
 2564TIP3    H229108   3.651   4.957   3.979  3.2614 -0.9287 -0.6210
 2565TIP3   OH229109   6.404   4.670  12.137 -0.3909  0.0014 -0.0500
 2565TIP3    H129110   6.433   4.580  12.124 -1.2009 -0.1811 -0.6577
 2565TIP3    H229111   6.444   4.696  12.220  1.2710 -0.3134 -0.7195
 2566TIP3   OH229112   5.286   5.553  14.760 -1.1828  0.1041  0.2956
 2566TIP3    H129113   5.341   5.490  14.714 -0.9875 -0.0003  0.6706
 2566TIP3    H229114   5.225   5.584  14.694 -1.5595 -0.8008  0.1999
 2567TIP3   OH229115   0.375   5.346   4.723 -0.1569  0.0220  0.0603
 2567TIP3    H129116   0.385   5.415   4.657  0.0661  0.8988  0.9819
 2567TIP3    H229117   0.464   5.331   4.755 -0.2581 -0.4406  0.1235
 2568TIP3   OH229118   4.050   2.163   5.920 -0.0193  0.4189 -0.7001
 2568TIP3    H129119   4.034   2.178   5.827  2.8440 -0.8320 -1.5045
 2568TIP3    H229120   3.992   2.090   5.943 -1.2572  1.1818 -1.2569
 2569TIP3   OH229121   1.873   0.434   5.644  0.0047  0.0147  0.2254
 2569TIP3    H129122   1.948   0.478   5.685 -0.2159  0.6540 -0.0367
 2569TIP3    H229123   1.824   0.397   5.718 -0.8338  1.8657  0.6748
 2570TIP3   OH229124   6.760   3.324  13.276 -0.1690  0.2275  1.1813
 2570TIP3    H129125   6.745   3.265  13.202 -1.9253  4.3129 -2.1681
 2570TIP3    H229126   6.693   3.300  13.340 -0.1523 -1.9360  0.4589
 2571TIP3   OH229127   1.494   6.422   0.368  0.2302  0.4465  0.2770
 2571TIP3    H129128   1.496   6.389   0.458 -0.6696  0.7845  0.4253
 2571TIP3    H229129   1.406   6.457   0.357  0.3096  0.3450 -0.7645
 2572TIP3   OH229130   4.283   5.223  13.044 -0.2844 -0.0924 -0.1590
 2572TIP3    H129131   4.213   5.160  13.057 -0.5640 -0.0652 -1.3865
 2572TIP3    H229132   4.293   5.229  12.949 -0.0076  1.4274 -0.0655
 2573TIP3   OH229133   2.180   5.947   5.327  0.1500 -0.0215 -0.4140
 2573TIP3    H129134   2.131   5.880   5.278 -2.2888  1.0514  0.3988
 2573TIP3    H229135   2.194   6.017   5.263 -0.1516  0.0345 -0.4195
 2574TIP3   OH229136   3.914   5.623   3.305 -0.4367  0.4571 -0.2022
 2574TIP3    H129137   3.863   5.704   3.296 -0.3085  0.5263 -0.3144
 2574TIP3    H229138   3.953   5.630   3.392 -1.9520 -0.3776  0.5737
 2575TIP3   OH229139   3.623   2.783   1.402  0.4429  0.2450  0.1191
 2575TIP3    H129140   3.637   2.701   1.449 -2.3491 -0.9139 -0.8746
 2575TIP3    H229141   3.584   2.757   1.319  0.1007  2.5438 -0.5147
 2576TIP3   OH229142   4.701   3.684   3.386  0.7252  0.7169 -0.2719
 2576TIP3    H129143   4.777   3.733   3.354  2.4509 -0.5240  1.6919
 2576TIP3    H229144   4.736   3.627   3.454 -2.1305  0.6598  1.2886
 2577TIP3   OH229145   6.153   4.968  15.732 -0.2288  0.4763  0.1697
 2577TIP3    H129146   6.234   4.927  15.701 -0.2744 -0.5991  1.3717
 2577TIP3    H229147   6.160   4.966  15.828 -1.6143  0.4647  0.3004
 2578TIP3   OH229148   4.487   0.035  13.187 -0.2987 -0.4646 -0.0144
 2578TIP3    H129149   4.526   0.110  13.232 -0.6714 -0.5160  0.3963
 2578TIP3    H229150   4.532  -0.041  13.224  0.7759 -0.4105 -1.1188
 2579TIP3   OH229151   0.512   4.367   4.128  0.3129 -0.0675  0.1898
 2579TIP3    H129152   0.474   4.443   4.084  3.6586  1.4905 -0.3189
 2579TIP3    H229153   0.459   4.293   4.098 -1.6939  1.7545 -1.0652
 2580TIP3   OH229154   0.851   3.895  11.912 -0.3021  0.6170  0.0358
 2580TIP3    H129155   0.780   3.952  11.944  0.6312  2.0174 -0.2743
 2580TIP3    H229156   0.928   3.925  11.960  0.2504 -0.3219 -0.2471
 2581TIP3   OH229157   0.772   5.379   0.115  0.2823 -0.0148  0.2839
 2581TIP3    H129158   0.808   5.449   0.170  0.2662  0.3973 -0.2291
 2581TIP3    H229159   0.683   5.407   0.094  1.0841  1.0566 -2.0012
 2582TIP3   OH229160   2.174   5.953  11.203 -0.3875 -0.4871  0.6999
 2582TIP3    H129161   2.249   6.013  11.200 -1.2040  0.5618  0.4913
 2582TIP3    H229162   2.212   5.867  11.217  0.7666  0.2138  2.0565
 2583TIP3   OH229163   4.475   2.179   2.588 -0.3994 -0.3755  0.1216
 2583TIP3    H129164   4.429   2.193   2.505  0.0916  0.1633 -0.0692
 2583TIP3    H229165   4.567   2.180   2.564 -0.2541 -0.1851  0.6808
 2584TIP3   OH229166   2.100   5.189  11.307  0.1081  0.1348 -0.0679
 2584TIP3    H129167   2.191   5.203  11.283  0.0901 -1.0163 -0.9099
 2584TIP3    H229168   2.103   5.136  11.387  0.1608  1.1954  0.6536
 2585TIP3   OH229169   1.137   3.428   1.635  0.0886  0.4824 -0.0407
 2585TIP3    H129170   1.121   3.338   1.665  0.8696  1.0181  2.1458
 2585TIP3    H229171   1.049   3.461   1.615 -0.2798 -0.5243 -0.1830
 2586TIP3   OH229172   5.461   2.305   4.576  0.1165  0.0652 -0.4189
 2586TIP3    H129173   5.392   2.248   4.542 -0.2177  0.7156 -0.8531
 2586TIP3    H229174   5.515   2.247   4.630 -0.5990 -0.5176 -0.3049
 2587TIP3   OH229175   3.957   1.978  12.171  0.3737 -0.0210 -0.5836
 2587TIP3    H129176   3.865   2.000  12.184  0.1157 -0.1090 -2.1546
 2587TIP3    H229177   3.961   1.939  12.084  1.4347 -2.7355  0.5734
 2588TIP3   OH229178   1.815   4.277   2.741  0.0667  0.1484 -0.2817
 2588TIP3    H129179   1.907   4.298   2.728  0.2848  1.0919  2.2227
 2588TIP3    H229180   1.773   4.362   2.756 -1.3530 -0.2199 -1.8319
 2589TIP3   OH229181   4.580   5.993   5.656 -0.5841 -0.1810  0.6477
 2589TIP3    H129182   4.565   5.901   5.636 -1.4254 -0.1629  1.1456
 2589TIP3    H229183   4.493   6.027   5.678 -0.3790  0.8644 -0.0710
 2590TIP3   OH229184   0.583   1.229  11.749  0.9464  0.7543  0.2282
 2590TIP3    H129185   0.563   1.136  11.753 -1.4677  1.1630 -0.4287
 2590TIP3    H229186   0.606   1.245  11.657  2.5147  0.6399  0.5781
 2591TIP3   OH229187   5.595   0.733  16.276  0.2206  0.0197 -0.2334
 2591TIP3    H129188   5.684   0.741  16.240 -0.1063 -0.8403 -1.2798
 2591TIP3    H229189   5.540   0.720  16.199 -0.9116  1.1884  0.3544
 2592TIP3   OH229190   3.869   1.391  15.111 -0.2761  0.3546  0.0481
 2592TIP3    H129191   3.792   1.410  15.056 -1.0721 -0.2784  0.9113
 2592TIP3    H229192   3.846   1.426  15.197 -0.1416 -0.9474  0.6425
 2593TIP3   OH229193   1.617   6.663   3.053 -0.2454  0.2972 -0.4905
 2593TIP3    H129194   1.547   6.598   3.058  0.8205 -0.8333  0.3507
 2593TIP3    H229195   1.698   6.611   3.044  0.6031  1.5025 -0.0788
 2594TIP3   OH229196   3.398   5.631   0.617  0.2165  0.3260 -0.1424
 2594TIP3    H129197   3.454   5.554   0.624 -1.2037 -0.7311 -0.1426
 2594TIP3    H229198   3.342   5.627   0.695  1.0629  2.1629  0.6359
 2595TIP3   OH229199   6.247   5.277   1.600 -0.3122  0.0435 -0.4116
 2595TIP3    H129200   6.244   5.268   1.505  0.5979 -0.7723 -0.3790
 2595TIP3    H229201   6.272   5.368   1.615  1.5983 -0.3409 -1.0165
 2596TIP3   OH229202   3.133   1.359  14.837  0.3647 -0.2387 -0.8609
 2596TIP3    H129203   3.092   1.303  14.903 -0.6279  2.2952  0.8125
 2596TIP3    H229204   3.208   1.398  14.881  2.2173 -1.6217 -2.6046
 2597TIP3   OH229205   1.924   5.537  15.459 -0.0556  0.9242  0.0371
 2597TIP3    H129206   1.891   5.452  15.488 -1.5125  1.7409  0.9091
 2597TIP3    H229207   1.999   5.553  15.517 -0.1722  0.5187  0.3119
 2598TIP3   OH229208   2.952   2.252   1.279 -0.1727  0.0220  0.1646
 2598TIP3    H129209   2.955   2.157   1.284  1.4716 -0.2059 -3.0167
 2598TIP3    H229210   2.993   2.282   1.361  0.3113 -2.0043  0.7056
 2599TIP3   OH229211   1.947   5.579  14.959  0.1657 -0.7582  0.4240
 2599TIP3    H129212   1.962   5.515  15.029 -1.1653 -3.4554 -1.5519
 2599TIP3    H229213   1.980   5.536  14.880 -0.7262  1.0619 -1.0177
 2600TIP3   OH229214   6.131   3.312   4.362  0.0437 -0.3357  0.3935
 2600TIP3    H129215   6.040   3.324   4.333 -0.2517 -0.3702  1.2775
 2600TIP3    H229216   6.124   3.254   4.437  0.7538  0.0942  0.7951
 2601TIP3   OH229217   5.235   4.566   3.274 -0.6115 -0.0859 -0.0054
 2601TIP3    H129218   5.248   4.473   3.252  2.4756  0.2533 -0.0905
 2601TIP3    H229219   5.282   4.577   3.357 -1.3718  1.2946  0.2562
 2602TIP3   OH229220   3.657   0.271  12.099  0.2228  0.7152 -0.5190
 2602TIP3    H129221   3.675   0.221  12.178  1.1788  2.2568  0.3048
 2602TIP3    H229222   3.719   0.238  12.034 -0.1834 -0.1656 -0.4749
 2603TIP3   OH229223   3.964   6.170  12.828  0.4480  0.7253  0.2632
 2603TIP3    H129224   4.050   6.208  12.843  0.0747  1.5719  0.3658
 2603TIP3    H229225   3.945   6.188  12.736 -1.1439  3.9175  1.0763
 2604TIP3   OH229226   2.681   4.464  17.176 -0.2804 -0.3822 -0.5699
 2604TIP3    H129227   2.648   4.409  17.247  0.0233  0.5582  0.3339
 2604TIP3    H229228   2.603   4.488  17.126 -0.5274 -0.8770 -0.4272
 2605TIP3   OH229229   0.584   1.040  16.588 -0.2245  0.2418 -0.5773
 2605TIP3    H129230   0.634   1.040  16.507  0.6139  1.2557 -0.0822
 2605TIP3    H229231   0.632   1.099  16.646 -1.2518  0.1680  0.3816
 2606TIP3   OH229232   0.376   3.761   1.597 -0.0914  0.2565 -0.2089
 2606TIP3    H129233   0.459   3.809   1.600 -0.6114  1.1410  1.0187
 2606TIP3    H229234   0.360   3.736   1.688 -2.6595  2.7956  0.1847
 2607TIP3   OH229235   5.577   3.509   0.341  0.8996 -0.1807  0.1332
 2607TIP3    H129236   5.514   3.532   0.409  1.1940 -1.8919  1.0218
 2607TIP3    H229237   5.651   3.472   0.388  0.7570 -2.2424 -1.1446
 2608TIP3   OH229238   1.672   3.966   0.716 -0.0815  0.4826  0.6383
 2608TIP3    H129239   1.616   4.044   0.717 -0.2353  0.3721  0.7245
 2608TIP3    H229240   1.615   3.896   0.748  0.6512  0.7428  2.6989
 2609TIP3   OH229241   6.267   0.453  15.312  0.4433 -0.4101 -0.4946
 2609TIP3    H129242   6.217   0.522  15.354  1.1103  1.0018 -1.8990
 2609TIP3    H229243   6.355   0.490  15.301  0.5004 -0.9924 -2.3454
 2610TIP3   OH229244   0.490   5.267  16.587 -0.0330  0.2947  0.0800
 2610TIP3    H129245   0.508   5.298  16.499 -0.1286 -0.8291 -0.3509
 2610TIP3    H229246   0.573   5.274  16.633  0.3695 -0.3981 -0.5114
 2611TIP3   OH229247   2.987   4.433   0.472 -0.7856 -0.3097  0.1211
 2611TIP3    H129248   2.968   4.508   0.416 -0.3378  0.3675  0.8726
 2611TIP3    H229249   2.925   4.440   0.544  0.3403  0.2666  1.0509
 2612TIP3   OH229250   4.917   4.763   3.883 -0.1978  0.1807  0.3231
 2612TIP3    H129251   4.850   4.768   3.951 -0.5488  1.2141 -0.0682
 2612TIP3    H229252   4.879   4.707   3.816 -0.7714  0.9248  0.0127
 2613TIP3   OH229253   1.468   0.061   5.958  0.5104  0.2061  0.0314
 2613TIP3    H129254   1.491  -0.028   5.982  0.5944  0.0609 -0.5638
 2613TIP3    H229255   1.372   0.062   5.957  0.4462  0.7113  2.1400
 2614TIP3   OH229256   3.678   3.137  16.326  0.2768  0.1617  0.4820
 2614TIP3    H129257   3.645   3.109  16.241  0.6336 -0.5462  0.5701
 2614TIP3    H229258   3.616   3.100  16.390  0.4040  0.0851  0.5632
 2615TIP3   OH229259   5.688   2.330  16.732  0.0927  0.1393  0.0717
 2615TIP3    H129260   5.634   2.394  16.778 -1.2082 -0.6289 -0.3486
 2615TIP3    H229261   5.713   2.267  16.799 -1.2628 -0.6249 -0.1108
 2616TIP3   OH229262   4.775   0.449  15.832  0.1259 -0.0016 -0.8129
 2616TIP3    H129263   4.847   0.386  15.824  0.3793  0.2421 -0.4731
 2616TIP3    H229264   4.783   0.484  15.920 -0.4216  0.0182 -0.7692
 2617TIP3   OH229265   1.154   1.368  15.270 -0.4564  0.2487  0.4679
 2617TIP3    H129266   1.097   1.441  15.247 -1.2394 -0.2981  0.6190
 2617TIP3    H229267   1.133   1.349  15.361  0.3907  0.4098  0.7011
 2618TIP3   OH229268   2.357   2.676  15.436 -0.4376  0.1168  0.7096
 2618TIP3    H129269   2.419   2.604  15.447  1.1712  1.0504 -1.6181
 2618TIP3    H229270   2.318   2.662  15.350 -1.1539  1.2604  0.8247
 2619TIP3   OH229271   1.960   0.853   3.436 -0.8352 -0.1871 -0.1018
 2619TIP3    H129272   1.992   0.765   3.418 -2.5272 -1.5995  3.0377
 2619TIP3    H229273   1.895   0.869   3.368  0.1056 -0.9582 -1.2225
 2620TIP3   OH229274   2.608   2.576   1.181  0.3992 -0.1485  0.5968
 2620TIP3    H129275   2.670   2.506   1.163  0.4241  0.1152 -0.3682
 2620TIP3    H229276   2.656   2.635   1.241  0.9530 -0.1338  0.1465
 2621TIP3   OH229277   3.951   0.959   4.316  0.0094 -0.3898  0.0915
 2621TIP3    H129278   3.947   0.966   4.411  2.5078  1.0118  0.1783
 2621TIP3    H229279   4.006   0.883   4.300  1.6737  0.8270 -0.1394
 2622TIP3   OH229280   4.569   5.216   3.173  0.1360  0.4046  0.2188
 2622TIP3    H129281   4.554   5.202   3.266  0.8718 -0.6551  0.1943
 2622TIP3    H229282   4.500   5.277   3.147 -0.2457  0.5012  1.3945
 2623TIP3   OH229283   2.052   0.772  13.596 -0.2732  0.3616  0.3214
 2623TIP3    H129284   1.993   0.846  13.605 -1.3608 -0.5092  0.5854
 2623TIP3    H229285   2.017   0.706  13.656  1.4203  0.0918  1.0735
 2624TIP3   OH229286   2.189   0.228   6.103 -0.0012  0.2934  0.2117
 2624TIP3    H129287   2.126   0.178   6.155  0.6660 -1.0623 -0.2292
 2624TIP3    H229288   2.273   0.188   6.123  0.3671  0.2742 -1.2863
 2625TIP3   OH229289   5.734   2.964   4.853 -0.0218 -0.0405 -0.2138
 2625TIP3    H129290   5.787   2.947   4.930  1.1663 -0.3059 -1.0645
 2625TIP3    H229291   5.647   2.931   4.876  0.7728 -1.8806  0.3260
 2626TIP3   OH229292   6.072   3.449  14.997  0.4710  0.6173  0.2472
 2626TIP3    H129293   6.042   3.387  14.930 -0.9997 -0.9916  2.2812
 2626TIP3    H229294   6.163   3.425  15.012 -0.5687 -2.5901  2.4236
 2627TIP3   OH229295   3.504   4.105  16.189 -0.0641  0.2405 -0.3873
 2627TIP3    H129296   3.459   4.112  16.273 -0.3997  0.7277 -0.6055
 2627TIP3    H229297   3.556   4.185  16.182  1.8181 -0.8591  0.4123
 2628TIP3   OH229298   0.119   1.305  17.022  0.2278  0.0468 -0.6407
 2628TIP3    H129299   0.205   1.347  17.017  0.5309 -0.7386 -3.2657
 2628TIP3    H229300   0.138   1.212  17.015 -0.8820 -0.0502 -3.3257
 2629TIP3   OH229301   6.740   0.272  15.254 -0.0529 -0.1868 -0.1370
 2629TIP3    H129302   6.780   0.328  15.188  1.3642 -0.5704  0.3679
 2629TIP3    H229303   6.755   0.318  15.337 -2.2379  0.5412 -0.0524
 2630TIP3   OH229304   5.455   3.214  15.410  0.5639 -0.4936  0.2112
 2630TIP3    H129305   5.490   3.142  15.358 -0.5816 -0.6139 -0.4037
 2630TIP3    H229306   5.379   3.178  15.455 -0.8150  0.6267 -1.1051
 2631TIP3   OH229307   6.567   0.797  14.311  0.4373 -0.6513  0.3704
 2631TIP3    H129308   6.537   0.825  14.224 -0.9986  0.9449  1.3077
 2631TIP3    H229309   6.565   0.702  14.307 -0.8952 -0.6238 -0.9614
 2632TIP3   OH229310   1.995   6.489  13.298  0.8860  0.7441 -0.1295
 2632TIP3    H129311   1.926   6.521  13.239  1.3997 -1.0016 -1.7847
 2632TIP3    H229312   2.076   6.525  13.262  1.0653  0.8745  0.4014
 2633TIP3   OH229313   0.638   5.271  13.732 -0.9599  0.4068  0.0655
 2633TIP3    H129314   0.713   5.314  13.774 -1.7816  0.4236  1.5979
 2633TIP3    H229315   0.677   5.214  13.666  0.4240  0.2824  0.9470
 2634TIP3   OH229316   4.491   2.749  11.584  0.2479 -0.0857  0.3432
 2634TIP3    H129317   4.509   2.843  11.585 -0.0880  0.0108 -0.9458
 2634TIP3    H229318   4.449   2.734  11.499  0.0188 -1.3502  0.6672
 2635TIP3   OH229319   2.180   2.783  11.956 -0.5437 -0.5245  0.5631
 2635TIP3    H129320   2.251   2.729  11.921  1.2978  1.1732  1.4718
 2635TIP3    H229321   2.163   2.847  11.886 -0.5388 -0.3832  0.6899
 2636TIP3   OH229322   0.244   0.671   2.024  0.2302 -0.1072 -0.2895
 2636TIP3    H129323   0.166   0.636   2.067 -0.6900  1.5759 -0.4868
 2636TIP3    H229324   0.219   0.681   1.933  0.7349  0.2929 -0.3909
 2637TIP3   OH229325   6.008   4.804  10.755  0.5553 -0.5081 -0.3708
 2637TIP3    H129326   6.030   4.745  10.827 -0.8592 -0.7049 -0.0727
 2637TIP3    H229327   5.913   4.812  10.759  0.6809  1.6737 -0.5077
 2638TIP3   OH229328   6.766   2.511  15.488 -0.3139 -0.1861  0.0569
 2638TIP3    H129329   6.786   2.604  15.481 -3.3192  0.4752 -1.1248
 2638TIP3    H229330   6.808   2.472  15.412  1.2933  0.0835  0.7679
 2639TIP3   OH229331   3.427   3.753   6.327  0.6751 -0.1465 -0.2903
 2639TIP3    H129332   3.334   3.770   6.310  0.9712  2.2842  0.1324
 2639TIP3    H229333   3.431   3.732   6.420  0.5932  0.1254 -0.2258
 2640TIP3   OH229334   1.718   5.638  15.912  0.1272  0.2662 -0.3730
 2640TIP3    H129335   1.702   5.569  15.977  1.1394 -1.0216 -1.4626
 2640TIP3    H229336   1.690   5.600  15.829 -0.5644  1.6755 -0.8170
 2641TIP3   OH229337   6.224   1.076   4.164  0.0147  0.1406 -0.4620
 2641TIP3    H129338   6.215   1.033   4.249 -1.9602  0.5631 -0.3996
 2641TIP3    H229339   6.139   1.119   4.150  0.6642  0.9571 -2.1686
 2642TIP3   OH229340   0.251   1.852  15.176  0.1670  0.1250 -0.3517
 2642TIP3    H129341   0.340   1.816  15.168  0.4762  0.7264  0.1954
 2642TIP3    H229342   0.233   1.849  15.270  0.9140  2.9769 -0.0352
 2643TIP3   OH229343   6.540   3.740   4.651 -0.2756  0.1979 -0.4902
 2643TIP3    H129344   6.565   3.827   4.619 -0.3667 -0.0992 -1.4230
 2643TIP3    H229345   6.623   3.693   4.660 -0.1549  0.6467  0.8660
 2644TIP3   OH229346   0.891   1.534  12.928 -0.0340  0.1722  0.4399
 2644TIP3    H129347   0.975   1.521  12.884 -0.0962 -0.1753  0.4226
 2644TIP3    H229348   0.914   1.576  13.011  0.1469  0.1728  0.3895
 2645TIP3   OH229349   1.870   4.075   0.151 -0.5393 -0.0549  0.5224
 2645TIP3    H129350   1.934   4.008   0.175 -1.0274 -0.2109  1.4148
 2645TIP3    H229351   1.794   4.026   0.119 -0.8405  0.0741  1.0354
 2646TIP3   OH229352   4.371   3.023   3.956  0.1511  0.4465 -0.6248
 2646TIP3    H129353   4.444   3.045   4.015 -0.3464  0.7043 -0.0981
 2646TIP3    H229354   4.298   3.003   4.015 -0.4817  1.1609 -1.1625
 2647TIP3   OH229355   2.383   2.967  11.026 -0.7831  0.1283 -0.0454
 2647TIP3    H129356   2.297   2.931  11.046 -0.9245  1.2294  1.5095
 2647TIP3    H229357   2.416   2.912  10.954 -2.7345 -0.3250 -0.6449
 2648TIP3   OH229358   0.365   6.266  16.492  0.3835 -0.4098 -0.4434
 2648TIP3    H129359   0.332   6.293  16.406 -1.0441 -2.1531 -0.4987
 2648TIP3    H229360   0.293   6.284  16.552  0.9916 -0.1716  0.2338
 2649TIP3   OH229361   4.177   4.513  12.824  0.2151  0.5454 -0.1301
 2649TIP3    H129362   4.228   4.594  12.818 -0.7183  1.3205  1.6527
 2649TIP3    H229363   4.240   4.446  12.851  0.6905  1.0430  0.0155
 2650TIP3   OH229364   4.540   6.011   1.609  0.6180  0.4955 -0.1500
 2650TIP3    H129365   4.504   5.936   1.562  0.0148 -1.0609  2.6100
 2650TIP3    H229366   4.474   6.080   1.599 -0.8511 -0.7275  0.7321
 2651TIP3   OH229367   0.429   2.588   2.411  0.0030 -0.2752 -0.2577
 2651TIP3    H129368   0.366   2.572   2.481 -1.1518  0.0946 -1.1847
 2651TIP3    H229369   0.514   2.594   2.456 -0.6162 -0.6957  1.0193
 2652TIP3   OH229370   2.693   1.954  14.685 -0.1692  0.3021  0.7322
 2652TIP3    H129371   2.788   1.959  14.676 -0.2842 -1.2460 -3.2804
 2652TIP3    H229372   2.662   2.042  14.663  0.3139  0.1027 -0.9209
 2653TIP3   OH229373   0.914   5.703   1.324  0.5004  0.5150  0.0384
 2653TIP3    H129374   0.921   5.608   1.332 -1.1845  0.4459  1.1645
 2653TIP3    H229375   0.933   5.737   1.411 -0.7182  1.0620  0.1122
 2654TIP3   OH229376   0.019   3.254   0.878 -0.4567  0.4115 -0.3483
 2654TIP3    H129377  -0.001   3.225   0.967 -1.0354 -2.1211 -1.2208
 2654TIP3    H229378   0.111   3.278   0.881 -0.5111  0.5613  0.9647
 2655TIP3   OH229379   0.091   1.289  13.830  0.1765  0.1991  0.4967
 2655TIP3    H129380   0.011   1.237  13.838 -0.7973  1.7963  1.8044
 2655TIP3    H229381   0.156   1.241  13.881 -0.3645 -0.3594  0.6725
 2656TIP3   OH229382   4.984   5.851  11.424 -0.1808  0.1939  0.2029
 2656TIP3    H129383   4.945   5.908  11.358 -0.3550 -1.3846 -1.1253
 2656TIP3    H229384   4.916   5.841  11.490 -1.4271 -1.0648 -1.1909
 2657TIP3   OH229385   6.373   5.933  11.447  0.3967  0.2821 -0.0636
 2657TIP3    H129386   6.443   5.978  11.399  0.3689  0.0933 -0.2841
 2657TIP3    H229387   6.348   5.860  11.390 -0.1028  0.4517 -0.0694
 2658TIP3   OH229388   0.743   4.899   4.057  0.3319 -0.0410 -0.6622
 2658TIP3    H129389   0.825   4.877   4.013  0.5865  1.0945 -0.7839
 2658TIP3    H229390   0.759   4.985   4.096 -0.2456 -0.5580  0.7710
 2659TIP3   OH229391   4.592   4.993   0.517 -0.0723  0.2135  0.3572
 2659TIP3    H129392   4.519   4.963   0.462  0.8471  1.1480 -1.4598
 2659TIP3    H229393   4.563   5.077   0.553 -0.7448 -0.4827  1.5121
 2660TIP3   OH229394   4.564   3.507  12.919 -0.2369 -0.5916  0.2767
 2660TIP3    H129395   4.525   3.540  13.000 -0.0373  2.6838 -0.8395
 2660TIP3    H229396   4.496   3.452  12.880 -1.3663  0.0105  1.3408
 2661TIP3   OH229397   3.182   3.158  14.503 -0.2495 -0.1695 -0.2140
 2661TIP3    H129398   3.097   3.201  14.516 -0.2493  0.0648 -0.9410
 2661TIP3    H229399   3.227   3.168  14.587 -0.7244  0.1972  0.0026
 2662TIP3   OH229400   6.050   5.690   4.941 -0.3984 -0.2925  0.7204
 2662TIP3    H129401   6.139   5.703   4.973 -0.0984  0.4512 -0.3330
 2662TIP3    H229402   6.054   5.719   4.849 -1.6906 -0.3730  0.6238
 2663TIP3   OH229403   2.872   2.067   4.450  0.3156 -0.6173 -0.4412
 2663TIP3    H129404   2.921   2.125   4.508 -1.7950 -1.6053  2.6205
 2663TIP3    H229405   2.908   1.980   4.468 -2.3569 -1.3951  2.0242
 2664TIP3   OH229406   1.423   1.338  15.845 -0.0172  0.6821  0.1798
 2664TIP3    H129407   1.499   1.394  15.861 -0.2113  1.1019 -0.3255
 2664TIP3    H229408   1.455   1.272  15.783  0.2076  0.2400  0.7629
 2665TIP3   OH229409   5.698   0.510  13.132  0.2032  0.0857  0.6045
 2665TIP3    H129410   5.609   0.496  13.165  0.8057 -0.8757  1.9200
 2665TIP3    H229411   5.739   0.565  13.199  0.7710  0.0162  0.3140
 2666TIP3   OH229412   4.054   1.404   4.697 -0.0374  0.0179  0.7490
 2666TIP3    H129413   4.147   1.382   4.708 -0.0771 -0.7609 -0.3255
 2666TIP3    H229414   4.025   1.350   4.624 -0.9450  1.3893  0.0505
 2667TIP3   OH229415   4.251   6.696  15.571  0.3791  0.3460  0.2676
 2667TIP3    H129416   4.189   6.628  15.545 -0.2225  0.5561  1.0994
 2667TIP3    H229417   4.337   6.656  15.562  0.0220 -0.6023  0.9449
 2668TIP3   OH229418   1.711   5.726   2.702 -0.1348 -0.5175 -0.4995
 2668TIP3    H129419   1.741   5.755   2.616 -0.6986 -0.8231 -0.8034
 2668TIP3    H229420   1.630   5.678   2.685 -1.3254  1.0858  0.3977
 2669TIP3   OH229421   3.071   4.302  13.321 -0.7833  0.0181 -0.1476
 2669TIP3    H129422   2.978   4.297  13.296 -0.3126  3.1328 -3.5574
 2669TIP3    H229423   3.084   4.394  13.343  1.3042 -0.5939  1.4143
 2670TIP3   OH229424   2.939   5.365  12.386  0.1933 -0.2439  0.0676
 2670TIP3    H129425   2.990   5.348  12.307 -1.2158 -2.1780 -0.4873
 2670TIP3    H229426   2.998   5.344  12.458  0.9921  0.0445 -0.4876
 2671TIP3   OH229427   1.084   4.346  16.761 -0.3034  0.4471 -0.3895
 2671TIP3    H129428   1.068   4.295  16.840  0.3504  0.6324 -0.1373
 2671TIP3    H229429   1.002   4.337  16.711 -0.4253 -0.3293 -0.0719
 2672TIP3   OH229430   2.264   1.224  12.493 -0.0216  0.7535  0.3960
 2672TIP3    H129431   2.191   1.235  12.433  0.3296  1.5275  0.0857
 2672TIP3    H229432   2.342   1.231  12.437  0.2938  0.5580  0.8052
 2673TIP3   OH229433   4.721   6.316   3.367  0.0674  0.3137  0.1803
 2673TIP3    H129434   4.775   6.307   3.445  0.9459 -1.7867 -0.6081
 2673TIP3    H229435   4.780   6.297   3.294 -1.7611 -2.5064 -0.7140
 2674TIP3   OH229436   4.116   5.497  11.619  0.2314 -0.0292  0.1897
 2674TIP3    H129437   4.065   5.452  11.552  1.4344 -0.8800 -0.1959
 2674TIP3    H229438   4.131   5.584  11.583  3.2037 -1.3055 -2.0234
 2675TIP3   OH229439   0.753   5.998   5.605 -0.9176 -0.1113 -0.0593
 2675TIP3    H129440   0.726   6.066   5.542  2.4002  0.1915 -1.3877
 2675TIP3    H229441   0.777   6.047   5.684 -1.3167 -0.0650  0.0354
 2676TIP3   OH229442   1.261   1.170  16.874  0.0223 -0.1404  0.1384
 2676TIP3    H129443   1.320   1.136  16.806  0.8087 -1.8409  1.5940
 2676TIP3    H229444   1.190   1.106  16.878  0.4544 -0.5479  1.5359
 2677TIP3   OH229445   6.568   0.147   2.979  0.7759 -0.1373  0.1438
 2677TIP3    H129446   6.663   0.138   2.983  0.7258 -0.6699  0.2587
 2677TIP3    H229447   6.552   0.240   2.995  1.2247 -0.2296  1.2720
 2678TIP3   OH229448   6.138   0.912   0.022 -0.8463 -0.8083 -0.3432
 2678TIP3    H129449   6.210   0.950  -0.028 -0.0274 -1.9562 -0.0547
 2678TIP3    H229450   6.081   0.987   0.042 -0.1996 -0.0334 -1.3222
 2679TIP3   OH229451   1.960   2.950   2.591  0.2954  0.0058 -0.0735
 2679TIP3    H129452   1.896   2.992   2.534  1.5494  0.8270 -0.9192
 2679TIP3    H229453   1.980   3.017   2.657  2.0233  0.6775 -1.2086
 2680TIP3   OH229454   1.528   5.194   4.001  0.4282 -0.7832  0.1282
 2680TIP3    H129455   1.501   5.228   3.916  0.5888 -0.4305  0.2207
 2680TIP3    H229456   1.451   5.144   4.032 -0.8489  1.6662  1.1970
 2681TIP3   OH229457   2.210   0.288   5.363  0.1838  0.1328 -0.3079
 2681TIP3    H129458   2.295   0.325   5.338 -0.7474 -0.1768 -4.7771
 2681TIP3    H229459   2.225   0.194   5.364 -0.2402  0.0110 -2.1649
 2682TIP3   OH229460   2.865   5.026   0.823  0.1084 -0.3418 -0.0896
 2682TIP3    H129461   2.831   5.034   0.733  0.1557  1.5099  0.0349
 2682TIP3    H229462   2.876   4.931   0.835 -2.4204 -0.8478 -1.0985
 2683TIP3   OH229463   1.847   1.083   2.933 -0.7729 -0.0332  0.0324
 2683TIP3    H129464   1.868   1.098   2.841 -0.5802  0.7496  0.1897
 2683TIP3    H229465   1.785   1.010   2.933 -0.4554 -0.3042 -0.6833
 2684TIP3   OH229466   0.486   6.142   0.918  0.2387  0.1160  0.1900
 2684TIP3    H129467   0.582   6.142   0.916  0.2976 -2.0913 -1.1022
 2684TIP3    H229468   0.461   6.141   0.825 -1.1345  2.6071  0.4721
 2685TIP3   OH229469   0.981   2.289   2.264 -0.1307 -1.0109 -0.2747
 2685TIP3    H129470   1.036   2.361   2.233 -2.1487  0.9504  0.3850
 2685TIP3    H229471   1.024   2.260   2.345 -0.0758  0.5782  0.3125
 2686TIP3   OH229472   4.440   4.021   3.485  0.4754  0.1241 -0.5812
 2686TIP3    H129473   4.373   3.995   3.421  1.4596  0.2246 -1.6824
 2686TIP3    H229474   4.392   4.073   3.550 -0.9296 -1.6791 -0.0826
 2687TIP3   OH229475   3.757   5.005  12.947  0.0888  0.9776 -0.3144
 2687TIP3    H129476   3.835   4.951  12.935 -1.2537 -1.1345 -0.0119
 2687TIP3    H229477   3.684   4.944  12.941 -1.7132  3.0987 -2.3922
 2688TIP3   OH229478   5.331   4.299  15.790  0.6053  0.0197 -0.5145
 2688TIP3    H129479   5.286   4.216  15.780  0.4626  0.1708 -1.1451
 2688TIP3    H229480   5.263   4.360  15.818  0.2581  0.3920 -2.0732
 2689TIP3   OH229481   0.634   3.020  12.054 -0.1227 -0.0744 -0.2532
 2689TIP3    H129482   0.559   2.966  12.030 -0.0421 -0.1113 -0.4264
 2689TIP3    H229483   0.630   3.094  11.993  0.9266 -0.9109 -1.3761
 2690TIP3   OH229484   0.025   2.804   3.131  0.3647 -0.1394 -0.0313
 2690TIP3    H129485  -0.051   2.856   3.157  1.4391  0.6015  1.8343
 2690TIP3    H229486   0.061   2.851   3.056  1.8397  2.5537  2.1531
 2691TIP3   OH229487   5.768   0.511  12.338  0.3045  0.1414  0.3395
 2691TIP3    H129488   5.843   0.551  12.383  0.9855  1.1042 -1.5483
 2691TIP3    H229489   5.723   0.461  12.406  1.9403  0.5741  1.8076
 2692TIP3   OH229490   2.217   5.326   1.978 -0.3201 -0.5419 -0.2334
 2692TIP3    H129491   2.243   5.324   1.886 -0.8346 -0.4633 -0.3818
 2692TIP3    H229492   2.214   5.234   2.005  0.3583 -0.5452 -0.1386
 2693TIP3   OH229493   1.014   2.873   6.266 -0.0061 -0.5954  0.6089
 2693TIP3    H129494   1.108   2.888   6.275 -0.4390  1.6185  2.4324
 2693TIP3    H229495   0.996   2.796   6.320  0.7964 -1.4044 -0.2352
 2694TIP3   OH229496   5.199   5.269  16.300  0.0893  0.1883  0.2980
 2694TIP3    H129497   5.132   5.285  16.233  0.6612  0.1507 -0.2998
 2694TIP3    H229498   5.281   5.267  16.251  0.2629 -2.9401  0.5144
 2695TIP3   OH229499   4.546   4.844  12.275  0.2783  0.4775  0.0208
 2695TIP3    H129500   4.494   4.925  12.279 -1.4901 -0.5383 -0.9583
 2695TIP3    H229501   4.524   4.806  12.190  2.0726 -0.4133 -0.0802
 2696TIP3   OH229502   2.234   1.844   2.903  0.4281  0.1847 -0.2455
 2696TIP3    H129503   2.176   1.921   2.904 -0.8217 -0.7027  1.5840
 2696TIP3    H229504   2.222   1.807   2.815  3.2964  3.5556 -2.3228
 2697TIP3   OH229505   6.563   5.902   0.293  0.3572 -0.3743 -0.2994
 2697TIP3    H129506   6.598   5.958   0.363 -0.1938  0.1150 -0.4003
 2697TIP3    H229507   6.472   5.930   0.284  0.3816 -0.5293 -1.1152
 2698TIP3   OH229508   4.174   4.460  15.463 -0.5210  0.0408 -0.1404
 2698TIP3    H129509   4.152   4.507  15.382  0.7490  0.0403 -0.5093
 2698TIP3    H229510   4.248   4.508  15.498 -0.0293 -0.9238  0.1684
 2699TIP3   OH229511   4.819   0.394   0.041 -0.0530  0.0779  0.1393
 2699TIP3    H129512   4.816   0.418   0.134  1.4440  1.0420 -0.0262
 2699TIP3    H229513   4.912   0.385   0.022 -0.3615 -0.4469 -1.1996
 2700TIP3   OH229514   5.310   3.055   0.873 -0.2597  0.2840 -0.6985
 2700TIP3    H129515   5.301   3.015   0.960 -1.9037 -0.3548 -1.1095
 2700TIP3    H229516   5.399   3.035   0.846  0.8176  1.8356  1.4595
 2701TIP3   OH229517   0.100   2.431   6.134  0.0508 -0.0887 -0.4399
 2701TIP3    H129518   0.046   2.414   6.212 -1.0775  1.0045 -0.9330
 2701TIP3    H229519   0.189   2.438   6.167 -0.3090 -0.4289  0.6364
 2702TIP3   OH229520   5.146   0.865   5.328  0.1266 -0.3153 -0.0242
 2702TIP3    H129521   5.119   0.924   5.399 -1.5144 -0.3161 -0.6091
 2702TIP3    H229522   5.241   0.866   5.331  0.0983  0.1074  1.8376
 2703TIP3   OH229523   0.454   3.460  16.403 -0.3752 -0.5946 -0.0522
 2703TIP3    H129524   0.369   3.466  16.359 -0.1239  0.6605 -0.4128
 2703TIP3    H229525   0.495   3.545  16.387  1.2674 -1.4329 -0.5471
 2704TIP3   OH229526   1.476   1.748   4.419  0.7306 -0.5018  0.9048
 2704TIP3    H129527   1.440   1.680   4.476 -0.5231  0.6605  1.5779
 2704TIP3    H229528   1.540   1.794   4.473  1.4134 -0.9842  0.5234
 2705TIP3   OH229529   3.003   6.640  14.459  0.0630 -0.1670  0.5965
 2705TIP3    H129530   3.031   6.716  14.409  1.4299 -1.3504 -0.5214
 2705TIP3    H229531   3.010   6.567  14.398 -3.1756 -0.9791  0.9807
 2706TIP3   OH229532   0.784   2.068   3.916 -0.3033 -0.2724 -0.1016
 2706TIP3    H129533   0.705   2.101   3.872  0.1489 -0.3174 -0.9621
 2706TIP3    H229534   0.828   2.147   3.948 -0.6343 -0.2395  0.2823
 2707TIP3   OH229535   0.693   3.896  11.123  0.4386 -0.2442  0.6692
 2707TIP3    H129536   0.644   3.861  11.049  1.3410 -2.1878  0.9078
 2707TIP3    H229537   0.785   3.883  11.098  0.7795 -2.9904  2.9416
 2708TIP3   OH229538   1.121   5.709  13.027 -0.0663 -0.7775  0.0759
 2708TIP3    H129539   1.122   5.614  13.011  2.0195 -0.6595 -0.7653
 2708TIP3    H229540   1.068   5.745  12.956 -1.0357 -1.2978  0.5096
 2709TIP3   OH229541   1.635   3.326  11.471  0.3587  0.1565 -0.4906
 2709TIP3    H129542   1.611   3.236  11.449  1.2097  0.1549 -1.5132
 2709TIP3    H229543   1.726   3.321  11.499  0.0966  0.5626  0.4865
 2710TIP3   OH229544   5.715   5.515  12.169  0.2006 -0.3513  0.1238
 2710TIP3    H129545   5.688   5.436  12.216 -1.3674  0.0774  0.0217
 2710TIP3    H229546   5.640   5.574  12.178  0.5679  0.4001 -1.4080
 2711TIP3   OH229547   2.422   5.270  15.711 -0.2415 -0.4171 -0.2586
 2711TIP3    H129548   2.385   5.339  15.766  0.3861 -0.1396 -0.1814
 2711TIP3    H229549   2.355   5.255  15.645  0.0028  0.9715 -0.8739
 2712TIP3   OH229550   1.516   1.379   3.020 -0.2493  0.0719 -0.1726
 2712TIP3    H129551   1.568   1.333   2.954 -0.3422  0.5398 -0.5770
 2712TIP3    H229552   1.433   1.331   3.023  0.2092 -0.7180  0.5202
 2713TIP3   OH229553   3.662   1.967  12.578  0.0197 -0.0802 -0.2960
 2713TIP3    H129554   3.737   1.929  12.624 -0.4377 -0.0765  0.4727
 2713TIP3    H229555   3.586   1.924  12.617 -0.3301 -1.6100 -2.4552
 2714TIP3   OH229556   2.878   0.108  13.295  0.1759 -0.1170  0.3197
 2714TIP3    H129557   2.829   0.179  13.255 -0.4913 -1.6533 -1.7664
 2714TIP3    H229558   2.955   0.097  13.239  1.1757  0.0215  1.5975
 2715TIP3   OH229559   5.287   6.308   4.770  0.2886 -0.0145 -0.0942
 2715TIP3    H129560   5.320   6.397   4.775  0.4307 -0.1322  1.8819
 2715TIP3    H229561   5.222   6.302   4.840 -1.1566 -0.9157 -1.4324
 2716TIP3   OH229562   1.234   0.983  12.365 -0.2973 -0.0459  0.7646
 2716TIP3    H129563   1.276   0.981  12.280 -1.0532  1.7032  0.3106
 2716TIP3    H229564   1.254   0.897  12.404  0.0922 -0.8618 -1.1293
 2717TIP3   OH229565   6.014   3.114  11.132 -0.5692  0.2117 -0.0245
 2717TIP3    H129566   6.089   3.077  11.178 -0.5531  0.4494  0.1416
 2717TIP3    H229567   6.039   3.113  11.040  1.4608  4.2109  0.2440
 2718TIP3   OH229568   4.572   4.403  15.032 -0.6623  0.1448  0.1053
 2718TIP3    H129569   4.558   4.472  14.968  1.6341 -0.0379 -0.6872
 2718TIP3    H229570   4.650   4.430  15.081 -1.4687 -0.4658  1.8399
 2719TIP3   OH229571   4.753   0.366   4.094 -0.1833 -0.3831  0.6439
 2719TIP3    H129572   4.792   0.309   4.028 -1.7332 -2.0787  1.1211
 2719TIP3    H229573   4.716   0.439   4.045  2.2862  0.5666  0.0645
 2720TIP3   OH229574   6.269   3.867  10.809  0.2398  0.3365  0.2544
 2720TIP3    H129575   6.188   3.896  10.768  1.7029  2.2156 -1.5096
 2720TIP3    H229576   6.334   3.932  10.783  2.0263 -0.2459  2.8723
 2721TIP3   OH229577   1.303   1.162   4.438 -0.4227  0.0279  0.1360
 2721TIP3    H129578   1.338   1.220   4.505  0.0988  2.7902 -2.3590
 2721TIP3    H229579   1.208   1.168   4.449 -0.3938 -1.8287  2.3101
 2722TIP3   OH229580   0.914   6.650  13.905  0.2763  0.4972 -0.2728
 2722TIP3    H129581   0.859   6.578  13.872 -0.8240  2.1736 -2.4019
 2722TIP3    H229582   0.855   6.726  13.906  1.6108  1.5738  1.0886
 2723TIP3   OH229583   6.772   6.173   5.931 -0.0261  0.0684 -0.0151
 2723TIP3    H129584   6.788   6.218   5.848 -0.7473  0.5358  0.0901
 2723TIP3    H229585   6.678   6.181   5.944  0.1088  0.1495  0.9365
 2724TIP3   OH229586   2.802   0.780   4.059  0.2052  0.3648 -0.0798
 2724TIP3    H129587   2.888   0.774   4.017 -0.6614 -1.6362 -1.7327
 2724TIP3    H229588   2.754   0.842   4.003  0.3600  0.9999  0.4818
 2725TIP3   OH229589   2.961   5.937  13.089 -0.0426  0.3015  0.3114
 2725TIP3    H129590   3.045   5.892  13.089  0.3510  0.9663  1.7748
 2725TIP3    H229591   2.915   5.902  13.166 -1.1401 -0.1094 -0.5180
 2726TIP3   OH229592   1.335   1.936  13.751 -0.6782  0.0927  0.4199
 2726TIP3    H129593   1.254   1.977  13.723 -0.3009  0.7172  0.2122
 2726TIP3    H229594   1.314   1.894  13.834 -1.1332  0.5158  0.5205
 2727TIP3   OH229595   3.636   3.766  17.089 -0.2794  0.8799  0.0468
 2727TIP3    H129596   3.663   3.854  17.113  1.8903 -0.2770  2.2708
 2727TIP3    H229597   3.698   3.740  17.020 -0.4781  0.8506 -0.1211
 2728TIP3   OH229598   3.709   2.105   0.026  0.1126 -0.3336 -0.5025
 2728TIP3    H129599   3.687   2.196   0.045 -0.0045 -0.3471 -0.5705
 2728TIP3    H229600   3.714   2.101  -0.070 -0.3089 -0.4962 -0.5198
 2729TIP3   OH229601   1.092   3.470  12.659  0.0064 -0.5164 -0.0976
 2729TIP3    H129602   1.083   3.540  12.594 -0.5868 -0.4089  0.0910
 2729TIP3    H229603   1.042   3.397  12.623 -1.4230 -0.0308  0.8106
 2730TIP3   OH229604   6.290   6.031  12.315 -0.8149 -0.3562  0.2344
 2730TIP3    H129605   6.294   6.009  12.222  0.2064 -0.2476  0.2436
 2730TIP3    H229606   6.253   6.119  12.318 -1.1501 -0.4826 -0.0390
 2731TIP3   OH229607   5.737   2.305  12.794 -0.7702 -0.1299  0.0148
 2731TIP3    H129608   5.828   2.335  12.791 -1.0247  1.0952  2.3546
 2731TIP3    H229609   5.702   2.328  12.708  1.1156 -0.7142 -0.9771
 2732TIP3   OH229610   2.694   1.486   3.412  0.4729 -0.0412  0.3645
 2732TIP3    H129611   2.690   1.523   3.500 -0.1684 -2.6520  1.5230
 2732TIP3    H229612   2.715   1.394   3.425  1.7327 -0.2537 -2.3283
 2733TIP3   OH229613   2.069   6.172   3.376  0.3518  0.5982  0.2785
 2733TIP3    H129614   2.045   6.122   3.298  3.1400  0.1230 -0.3819
 2733TIP3    H229615   2.052   6.263   3.352 -0.5840  0.3317 -0.1392
 2734TIP3   OH229616   2.071   6.582  11.565  0.3594  0.0546 -0.2578
 2734TIP3    H129617   1.988   6.627  11.579  0.2831 -0.4745  1.2721
 2734TIP3    H229618   2.050   6.489  11.575  1.1717 -0.0666  0.4915
 2735TIP3   OH229619   4.847   3.678  17.079  0.2569  0.4404 -0.4538
 2735TIP3    H129620   4.780   3.728  17.125  1.2597  0.5426  0.9541
 2735TIP3    H229621   4.896   3.634  17.148  1.8621  0.6606 -1.4081
 2736TIP3   OH229622   5.217   1.171  14.667 -0.2037  0.1344  0.3631
 2736TIP3    H129623   5.206   1.082  14.634 -1.0252  0.3830 -0.0691
 2736TIP3    H229624   5.294   1.205  14.621 -0.1175 -0.2184  0.2425
 2737TIP3   OH229625   1.935   3.547  16.735 -0.2348 -0.5636 -0.6691
 2737TIP3    H129626   1.976   3.463  16.716  0.2344 -0.5854  0.3765
 2737TIP3    H229627   1.954   3.563  16.827  1.1275  1.4837 -1.2278
 2738TIP3   OH229628   2.892   3.974  15.838 -0.1946 -0.5642 -0.0903
 2738TIP3    H129629   2.925   3.939  15.755  0.4612 -0.8996  0.2995
 2738TIP3    H229630   2.911   3.904  15.901  1.4445  0.6024  0.7820
 2739TIP3   OH229631   0.755   6.775   3.966 -0.7422  0.6710 -0.4927
 2739TIP3    H129632   0.805   6.850   3.934 -0.9542 -0.4653 -3.9985
 2739TIP3    H229633   0.821   6.709   3.988 -0.6184  1.1743  0.7373
 2740TIP3   OH229634   6.427   1.285  12.727 -0.1877  0.1234 -0.3580
 2740TIP3    H129635   6.378   1.309  12.648  0.3061 -0.8942 -0.9935
 2740TIP3    H229636   6.407   1.193  12.740 -1.0655  0.5160  1.3223
 2741TIP3   OH229637   5.040   4.251   5.887 -0.0991 -0.5355 -0.3058
 2741TIP3    H129638   4.975   4.300   5.836 -0.0333 -0.3713 -0.2332
 2741TIP3    H229639   5.114   4.311   5.896 -0.1368 -0.5345  0.0409
 2742TIP3   OH229640   4.444   2.396  15.489 -0.5130 -0.0736 -0.3142
 2742TIP3    H129641   4.450   2.385  15.394  1.6654  1.0089 -0.3592
 2742TIP3    H229642   4.530   2.427  15.515 -0.7349 -1.3445  2.1921
 2743TIP3   OH229643   4.267   3.215   1.560 -0.2357  0.0218  0.1909
 2743TIP3    H129644   4.184   3.260   1.544 -0.0627  0.2413 -0.1177
 2743TIP3    H229645   4.283   3.227   1.654 -0.9450 -0.7179  0.4196
 2744TIP3   OH229646   1.996   6.550  13.575 -0.0894 -0.1124  0.4330
 2744TIP3    H129647   2.014   6.551  13.481 -0.5298  0.4436  0.3444
 2744TIP3    H229648   1.918   6.496  13.584  0.7719 -1.3493  0.6522
 2745TIP3   OH229649   2.084   3.719  10.551 -0.4307 -0.1477 -0.1774
 2745TIP3    H129650   2.038   3.768  10.619  0.0596  0.9998 -0.6386
 2745TIP3    H229651   2.078   3.628  10.578  0.1251  0.3193  1.6304
 2746TIP3   OH229652   2.712   0.867  12.299  0.0500 -0.0207  0.1720
 2746TIP3    H129653   2.654   0.910  12.362 -0.5077 -1.2815  0.5592
 2746TIP3    H229654   2.794   0.915  12.304  0.3480 -0.6650  2.6050
 2747TIP3   OH229655   6.155   3.272  14.251  0.1992 -0.1473  0.3767
 2747TIP3    H129656   6.064   3.279  14.223  0.3548  1.0675  0.1484
 2747TIP3    H229657   6.206   3.298  14.174  0.7670 -1.3696  0.3200
 2748TIP3   OH229658   3.872   0.824  16.533 -0.6625  0.8443 -0.1079
 2748TIP3    H129659   3.951   0.771  16.545 -2.3441 -1.4500  1.7930
 2748TIP3    H229660   3.802   0.772  16.574 -3.0746  3.0198 -1.2117
 2749TIP3   OH229661   3.430   0.343   2.267  0.0185 -0.2286  0.5225
 2749TIP3    H129662   3.357   0.316   2.323  0.0619  1.2526  1.3295
 2749TIP3    H229663   3.467   0.419   2.310  1.4175 -0.3310 -0.4225
 2750TIP3   OH229664   6.329   4.801   0.022  0.0070 -0.4795 -0.4392
 2750TIP3    H129665   6.256   4.739   0.009 -0.5865 -0.0630  0.8214
 2750TIP3    H229666   6.358   4.821  -0.067 -0.7935 -1.3843 -0.9326
 2751TIP3   OH229667   4.760   5.867   0.623  0.8532 -0.0129  0.8095
 2751TIP3    H129668   4.847   5.890   0.590  1.0131 -0.0432  1.2017
 2751TIP3    H229669   4.760   5.900   0.713  0.7626 -0.7675  1.0877
 2752TIP3   OH229670   5.299   0.997  15.168 -0.2645  0.1296 -0.0199
 2752TIP3    H129671   5.343   1.042  15.096 -0.0121  1.2780  0.8233
 2752TIP3    H229672   5.365   0.938  15.204  0.0270  0.5198  0.0928
 2753TIP3   OH229673   2.454   3.857   6.448 -0.4611  0.1513 -0.0657
 2753TIP3    H129674   2.377   3.879   6.499 -0.6756  1.1974 -0.8229
 2753TIP3    H229675   2.438   3.767   6.419 -1.4466  0.3873 -0.2987
 2754TIP3   OH229676   2.711   0.817   5.201  0.2509  0.0319  0.5276
 2754TIP3    H129677   2.634   0.795   5.254  0.6882  1.2593  1.7603
 2754TIP3    H229678   2.707   0.759   5.126 -2.2014  0.4434  0.2657
 2755TIP3   OH229679   2.050   4.829   5.089 -0.4850 -0.6180 -0.1528
 2755TIP3    H129680   2.037   4.876   5.172 -1.4842 -0.7549 -0.2171
 2755TIP3    H229681   1.993   4.752   5.096 -0.5690 -0.6358 -0.9679
 2756TIP3   OH229682   3.862   0.793  15.717 -0.2349  0.2046 -0.7937
 2756TIP3    H129683   3.947   0.756  15.742 -0.5540  0.3216  0.5446
 2756TIP3    H229684   3.808   0.717  15.695 -0.5577 -0.1140  0.8998
 2757TIP3   OH229685   5.586   1.491  11.311  0.0866  0.4303 -0.0597
 2757TIP3    H129686   5.639   1.419  11.346  0.2569  0.5033 -0.1650
 2757TIP3    H229687   5.637   1.569  11.330 -1.2104  0.7891  2.2494
 2758TIP3   OH229688   1.779   4.843  16.127 -0.6777  0.1575 -0.2138
 2758TIP3    H129689   1.868   4.829  16.093 -0.1924  0.6752  0.7644
 2758TIP3    H229690   1.724   4.851  16.050 -0.0492 -1.2228 -0.8428
 2759TIP3   OH229691   2.288   5.621   4.212 -0.4025 -0.1222 -0.0116
 2759TIP3    H129692   2.282   5.716   4.204  1.4021 -0.0295 -0.4717
 2759TIP3    H229693   2.306   5.606   4.305  1.0657  0.1010 -0.2482
 2760TIP3   OH229694   1.368   1.818   6.328 -0.0864  0.5468  0.0103
 2760TIP3    H129695   1.315   1.879   6.277  0.1077  0.9643  0.3063
 2760TIP3    H229696   1.423   1.873   6.383  0.4314  0.1083 -0.0606
 2761TIP3   OH229697   1.199   5.816   2.625  0.0282  0.4453  0.2647
 2761TIP3    H129698   1.211   5.747   2.560 -0.4665 -0.7679  1.4235
 2761TIP3    H229699   1.105   5.820   2.639  0.2117 -0.4563  2.0560
 2762TIP3   OH229700   4.258   6.687  10.317  0.5399 -0.2497 -0.3061
 2762TIP3    H129701   4.224   6.604  10.286 -0.8234  1.1076 -2.7587
 2762TIP3    H229702   4.351   6.685  10.292 -0.3281  0.4848 -4.2825
 2763TIP3   OH229703   6.750   5.177  11.640 -0.2522  0.2554 -0.4850
 2763TIP3    H129704   6.701   5.132  11.709 -1.2497  0.3825 -1.0853
 2763TIP3    H229705   6.752   5.115  11.568  0.2684  0.3502 -0.5562
 2764TIP3   OH229706   5.605   1.499   6.052 -0.6730 -0.5422 -0.2154
 2764TIP3    H129707   5.684   1.457   6.017  1.0230  2.2653 -0.1211
 2764TIP3    H229708   5.570   1.549   5.979  0.8568  2.5007  0.9094
 2765TIP3   OH229709   0.384   2.271   4.033 -0.0027  0.8350 -0.0583
 2765TIP3    H129710   0.370   2.245   4.124  0.9046  1.0818  0.1642
 2765TIP3    H229711   0.391   2.367   4.037  2.4856  0.7300  0.0133
 2766TIP3   OH229712   0.237   3.502   3.904  0.6769 -0.0685  0.4042
 2766TIP3    H129713   0.166   3.566   3.904 -0.3211 -1.1473 -0.0953
 2766TIP3    H229714   0.267   3.500   3.813  0.0200 -1.0389  0.2015
 2767TIP3   OH229715   3.012   4.924   2.771 -0.5131 -0.4864  0.2543
 2767TIP3    H129716   3.031   4.994   2.709  1.1664 -2.4738 -1.6318
 2767TIP3    H229717   2.949   4.963   2.833 -1.2630  1.9957 -1.8900
 2768TIP3   OH229718   2.061   2.590  11.184 -0.0677  0.6455  0.4185
 2768TIP3    H129719   2.071   2.652  11.112 -1.0463 -0.7741 -0.9906
 2768TIP3    H229720   2.094   2.507  11.149 -1.7292 -0.3639  1.1523
 2769TIP3   OH229721   0.544   4.627  17.030 -0.2166  0.0259 -0.1557
 2769TIP3    H129722   0.449   4.615  17.033 -0.3348  0.9594  0.1929
 2769TIP3    H229723   0.561   4.663  16.943 -0.1309 -0.5248 -0.3686
 2770TIP3   OH229724   1.282   5.498   0.361 -0.2914  0.1132 -0.6516
 2770TIP3    H129725   1.225   5.526   0.433 -0.7482 -0.7561 -0.6659
 2770TIP3    H229726   1.348   5.444   0.403 -0.1906  0.1184 -0.8045
 2771TIP3   OH229727   2.962   1.894  14.061 -0.3891  0.3068 -0.0809
 2771TIP3    H129728   2.997   1.921  14.146  0.0695  1.8683 -0.7227
 2771TIP3    H229729   3.039   1.865  14.012 -0.5617 -0.0077 -0.1652
 2772TIP3   OH229730   6.774   4.980  11.154 -0.2573  0.3351 -0.2398
 2772TIP3    H129731   6.831   4.923  11.102 -0.6168  0.6692 -1.0117
 2772TIP3    H229732   6.832   5.020  11.219  0.1611 -0.2266 -0.2640
 2773TIP3   OH229733   3.820   6.708  15.246  0.2719 -0.8588 -0.1665
 2773TIP3    H129734   3.761   6.701  15.171  0.4409  0.4212 -0.4441
 2773TIP3    H229735   3.771   6.759  15.311  1.1283  0.4703 -0.5119
 2774TIP3   OH229736   4.378   2.305  13.762  0.8651 -0.4054  1.0072
 2774TIP3    H129737   4.316   2.303  13.689  2.0040 -1.2647  0.0090
 2774TIP3    H229738   4.325   2.286  13.839 -0.0635 -1.4956  0.1374
 2775TIP3   OH229739   4.359   1.855   4.442 -0.0429  0.0847 -0.1094
 2775TIP3    H129740   4.292   1.909   4.399 -1.4696 -1.4320  0.1071
 2775TIP3    H229741   4.402   1.809   4.370  1.0644  1.3110 -0.2798
 2776TIP3   OH229742   6.698   5.078  12.818 -0.2475  0.7826 -0.2520
 2776TIP3    H129743   6.671   5.016  12.750 -0.1142  1.0740 -0.5787
 2776TIP3    H229744   6.717   5.025  12.894 -2.4486  0.5963  0.2348
 2777TIP3   OH229745   3.216   4.908   3.047  0.3863 -0.1326 -0.0984
 2777TIP3    H129746   3.204   5.001   3.025 -0.4289  0.1327  1.3708
 2777TIP3    H229747   3.302   4.906   3.090 -0.4589  0.3454  1.7328
 2778TIP3   OH229748   1.986   3.220  11.762 -0.3770  0.5663 -0.2278
 2778TIP3    H129749   2.036   3.301  11.757 -0.6321  0.8598  1.4323
 2778TIP3    H229750   1.913   3.240  11.821 -1.6527 -0.2701 -1.4616
 2779TIP3   OH229751   0.470   2.782  15.145  0.3946 -0.8067 -0.0887
 2779TIP3    H129752   0.556   2.792  15.105 -0.2325 -0.2006 -1.3301
 2779TIP3    H229753   0.489   2.759  15.237  1.8591 -1.6061 -0.5522
 2780TIP3   OH229754   4.056   1.554   5.093  0.3476  0.1508 -0.0783
 2780TIP3    H129755   4.121   1.529   5.159 -0.2416 -1.2364  0.0116
 2780TIP3    H229756   3.982   1.495   5.108 -0.1353  0.3645 -1.4556
 2781TIP3   OH229757   4.942   3.229   2.802 -0.1508  0.4721 -0.5492
 2781TIP3    H129758   4.873   3.164   2.795 -0.1156  0.5285 -1.5550
 2781TIP3    H229759   4.900   3.312   2.777 -0.3066  0.9261  1.1343
 2782TIP3   OH229760   4.153   6.709   6.229 -0.2399  0.1553  0.3147
 2782TIP3    H129761   4.071   6.700   6.180 -0.4942 -2.3542  1.0644
 2782TIP3    H229762   4.127   6.700   6.321  0.6100  1.6970  0.7286
 2783TIP3   OH229763   0.027   3.855   4.714  0.0916  0.1404  0.5723
 2783TIP3    H129764   0.035   3.761   4.725 -2.1325 -0.3803 -1.5108
 2783TIP3    H229765  -0.031   3.883   4.785  0.1102 -0.1762  0.7113
 2784TIP3   OH229766   1.104   2.015   1.814  0.2873  0.2463 -0.9164
 2784TIP3    H129767   1.045   2.042   1.884  0.6398  1.0950 -0.9271
 2784TIP3    H229768   1.046   1.993   1.741 -0.0390  0.9189 -0.8728
 2785TIP3   OH229769   0.355   3.082  12.220  0.6974  0.1873  0.3237
 2785TIP3    H129770   0.407   3.012  12.259 -1.3860 -1.9460 -0.4548
 2785TIP3    H229771   0.300   3.114  12.291  0.8145  0.1898  0.4125
 2786TIP3   OH229772   1.205   2.791   1.270  0.0346 -0.2828 -0.3609
 2786TIP3    H129773   1.269   2.720   1.272  0.1162 -0.2280 -1.0230
 2786TIP3    H229774   1.248   2.862   1.223 -0.0181  0.2413  0.3614
 2787TIP3   OH229775   6.723   6.319   4.972  0.4379  0.3944  0.0150
 2787TIP3    H129776   6.699   6.383   5.038  1.1139  0.2000  0.4589
 2787TIP3    H229777   6.691   6.355   4.890 -2.3518 -0.3319  0.6692
 2788TIP3   OH229778   3.600   6.763  15.006  0.0649 -0.6074  0.0004
 2788TIP3    H129779   3.585   6.854  14.982 -0.6040 -0.4673  0.9410
 2788TIP3    H229780   3.526   6.716  14.969 -0.7962 -0.4375  1.4634
 2789TIP3   OH229781   0.318   1.331   5.576 -0.0229  0.7768 -0.2208
 2789TIP3    H129782   0.385   1.392   5.605 -0.6560  0.9833  0.8697
 2789TIP3    H229783   0.324   1.257   5.637  2.2182 -1.3868 -2.8035
 2790TIP3   OH229784   3.919   3.334  14.210 -0.1342 -0.4197  0.1355
 2790TIP3    H129785   4.004   3.328  14.167 -1.4156 -0.3695 -2.6422
 2790TIP3    H229786   3.872   3.255  14.182 -0.3191 -1.6369  3.4645
 2791TIP3   OH229787   5.779   5.544   0.099  0.1570 -0.5380  0.0477
 2791TIP3    H129788   5.825   5.624   0.125 -0.3789  0.2119 -1.2252
 2791TIP3    H229789   5.847   5.491   0.056  0.2826 -0.3146 -0.0321
 2792TIP3   OH229790   6.087   1.526  13.195  0.1141  0.2819 -0.2615
 2792TIP3    H129791   6.106   1.458  13.130 -0.0959  1.1980 -1.3210
 2792TIP3    H229792   6.012   1.573  13.159  0.0099  0.8387  0.6372
 2793TIP3   OH229793   1.711   6.190   1.779 -0.6038  0.5078  0.3283
 2793TIP3    H129794   1.767   6.131   1.728 -1.0985 -0.4879  0.9069
 2793TIP3    H229795   1.772   6.239   1.835 -0.1700  0.7080 -0.3148
 2794TIP3   OH229796   0.027   6.040  11.533 -0.5745  0.3384 -0.2732
 2794TIP3    H129797   0.093   6.107  11.546 -1.8123  1.4886  0.3391
 2794TIP3    H229798   0.046   5.974  11.599 -1.4888  1.8660  1.5991
 2795TIP3   OH229799   1.110   3.734  16.920  0.1042  0.3344 -0.4799
 2795TIP3    H129800   1.079   3.697  17.003  0.0965  0.6736 -0.3315
 2795TIP3    H229801   1.060   3.687  16.853  0.0674  0.1010 -0.2918
 2796TIP3   OH229802   1.436   4.123  15.017 -0.6013  0.1708  0.6234
 2796TIP3    H129803   1.503   4.157  14.958 -0.3533 -0.6270  0.4318
 2796TIP3    H229804   1.386   4.200  15.044  1.8533  1.1853  2.6811
 2797TIP3   OH229805   1.105   1.775   4.558  0.2861 -0.8290  0.8470
 2797TIP3    H129806   1.133   1.854   4.604  1.0259 -0.9551  0.6331
 2797TIP3    H229807   1.017   1.794   4.528  0.8949  0.4062 -0.2652
 2798TIP3   OH229808   4.508   1.852   0.341  0.2571 -0.2606 -0.5628
 2798TIP3    H129809   4.474   1.899   0.265  1.3405 -0.7662 -1.3965
 2798TIP3    H229810   4.575   1.793   0.304  0.5582 -0.7659  0.7413
 2799TIP3   OH229811   5.175   3.358   5.788  0.0698  0.0895  0.1375
 2799TIP3    H129812   5.207   3.348   5.878 -1.1916 -3.2811  0.3706
 2799TIP3    H229813   5.243   3.320   5.733  0.0546  0.4791 -0.1521
 2800TIP3   OH229814   2.111   4.003   2.749 -0.2757  0.5106 -0.0707
 2800TIP3    H129815   2.038   3.972   2.803  0.6248 -1.7460 -0.0067
 2800TIP3    H229816   2.187   4.001   2.808  0.4762 -0.7321 -1.0142
 2801TIP3   OH229817   6.295   2.425   0.469 -0.2420 -0.2421 -0.3910
 2801TIP3    H129818   6.227   2.435   0.402 -0.1241 -3.0093 -1.0312
 2801TIP3    H229819   6.353   2.500   0.454 -0.0616 -0.8603 -3.6489
 2802TIP3   OH229820   1.453   2.232   4.721 -0.5077 -0.2384  0.1342
 2802TIP3    H129821   1.524   2.197   4.667  0.4624 -0.8563  1.7082
 2802TIP3    H229822   1.455   2.177   4.800 -0.9995  1.4200  1.3484
 2803TIP3   OH229823   0.798   1.127   2.175  0.2341  0.8321 -0.2001
 2803TIP3    H129824   0.843   1.084   2.248  1.4325  1.2404 -0.6669
 2803TIP3    H229825   0.823   1.219   2.182  0.1163  0.9299 -0.9414
 2804TIP3   OH229826   2.581   0.691   1.135 -0.1951 -0.1648  0.0742
 2804TIP3    H129827   2.558   0.747   1.061 -0.5980 -0.2081  0.1642
 2804TIP3    H229828   2.670   0.661   1.115  0.0813  0.6121  0.0981
 2805TIP3   OH229829   1.517   0.699   2.025 -0.1675 -0.3553  0.3381
 2805TIP3    H129830   1.554   0.612   2.044  2.2252 -0.0844 -2.3677
 2805TIP3    H229831   1.472   0.689   1.941 -1.0053  0.7593  0.6284
 2806TIP3   OH229832   6.085   3.191   4.602  0.3300  0.3168 -0.6170
 2806TIP3    H129833   6.060   3.099   4.601 -2.5927  0.9814 -2.5654
 2806TIP3    H229834   6.018   3.233   4.656  0.9055  1.4547 -0.7540
 2807TIP3   OH229835   4.697   2.164  15.139 -0.1666  0.3983 -0.0083
 2807TIP3    H129836   4.623   2.224  15.142  0.2038  1.0574 -2.3565
 2807TIP3    H229837   4.760   2.200  15.200 -0.3858  1.8196 -0.5948
 2808TIP3   OH229838   3.913   4.169  15.567 -0.0385 -0.1177  0.6248
 2808TIP3    H129839   3.946   4.220  15.641 -0.9286  1.7903 -0.2162
 2808TIP3    H229840   3.875   4.234  15.509  0.9544 -1.5070 -1.7122
 2809TIP3   OH229841   0.489   5.554   3.844  0.0641 -0.3576  0.5305
 2809TIP3    H129842   0.519   5.562   3.753 -1.0126 -0.2026  0.1634
 2809TIP3    H229843   0.483   5.460   3.859  0.7587 -0.3896  0.6274
 2810TIP3   OH229844   3.400   1.050   3.733  0.2690  0.6755  0.6152
 2810TIP3    H129845   3.425   1.022   3.645 -1.1450 -1.5696  0.8522
 2810TIP3    H229846   3.333   0.987   3.761 -2.1320  3.5254  1.8279
 2811TIP3   OH229847   0.966   1.939   2.212 -0.2349  0.4777 -0.2880
 2811TIP3    H129848   0.924   2.004   2.155 -0.9783  0.0657 -0.2203
 2811TIP3    H229849   0.928   1.955   2.298 -1.5177 -0.9542 -0.5387
 2812TIP3   OH229850   3.887   2.009  16.574 -0.4238 -0.1047 -0.2005
 2812TIP3    H129851   3.899   2.099  16.606 -1.5364  0.6854 -1.8569
 2812TIP3    H229852   3.792   2.001  16.563 -0.1991 -0.8312 -1.8496
 2813TIP3   OH229853   0.242   4.867   5.891  0.1053 -0.2108 -0.1093
 2813TIP3    H129854   0.243   4.913   5.975 -0.3659  0.5144 -0.4895
 2813TIP3    H229855   0.193   4.787   5.907 -0.6550  0.2920  0.1298
 2814TIP3   OH229856   5.024   5.013   0.940  0.1883 -0.3302 -0.4775
 2814TIP3    H129857   4.966   5.047   1.009 -0.8101 -2.3662 -0.2317
 2814TIP3    H229858   4.990   5.050   0.859 -1.4132 -1.3450 -0.3146
 2815TIP3   OH229859   6.540   1.558   2.759 -0.1825  0.0124  0.1623
 2815TIP3    H129860   6.632   1.549   2.737  0.2961  1.1907  1.5735
 2815TIP3    H229861   6.503   1.471   2.743  0.2145  0.3981 -4.3552
 2816TIP3   OH229862   6.307   2.456   4.159  1.0907 -0.6784 -0.3938
 2816TIP3    H129863   6.344   2.529   4.109 -0.3242  0.8516  0.6916
 2816TIP3    H229864   6.218   2.483   4.179  0.8891 -2.2160  1.0410
 2817TIP3   OH229865   2.226   0.036  13.566  0.1136 -0.1016 -0.1891
 2817TIP3    H129866   2.240   0.026  13.660  0.2506 -1.3341 -0.3248
 2817TIP3    H229867   2.134   0.059  13.557  0.6523  2.5683  0.3791
 2818TIP3   OH229868   5.037   0.743   5.079  0.2212  0.2267 -0.3390
 2818TIP3    H129869   5.084   0.815   5.121 -0.1588 -0.1238  0.7296
 2818TIP3    H229870   4.991   0.783   5.006  0.4189  0.9842 -0.0527
 2819TIP3   OH229871   4.060   0.800   3.703  0.9140  0.0641  0.6509
 2819TIP3    H129872   4.028   0.880   3.745  2.7465  1.3384 -0.2581
 2819TIP3    H229873   4.006   0.791   3.624 -0.6951 -0.8159  1.7915
 2820TIP3   OH229874   2.020   1.547   3.042  0.0253  0.2993  0.3520
 2820TIP3    H129875   2.088   1.492   3.004 -1.2598  0.4340 -2.3447
 2820TIP3    H229876   2.017   1.624   2.985 -2.8070 -0.0132 -0.0664
 2821TIP3   OH229877   5.561   4.003   1.481 -0.6319 -0.4535  0.6396
 2821TIP3    H129878   5.525   4.030   1.566 -0.9883  2.4171 -0.2952
 2821TIP3    H229879   5.509   4.052   1.417 -0.1963 -2.3349 -1.2637
 2822TIP3   OH229880   5.407   1.218  14.017 -0.0116  0.1563  0.4181
 2822TIP3    H129881   5.462   1.139  14.008 -0.9014 -0.4827  0.4974
 2822TIP3    H229882   5.449   1.282  13.960  0.9546 -0.2448  0.6489
 2823TIP3   OH229883   2.106   4.678  16.193 -0.1899  0.1839  0.1768
 2823TIP3    H129884   2.016   4.657  16.217 -0.7518 -0.1126 -2.0293
 2823TIP3    H229885   2.100   4.712  16.104  1.7370  1.4879  0.4866
 2824TIP3   OH229886   3.676   4.063  15.915 -0.1076 -0.8622 -0.4348
 2824TIP3    H129887   3.649   4.033  16.002  1.3183  0.3109  0.4612
 2824TIP3    H229888   3.664   4.157  15.917  2.4926 -0.4358 -0.4690
 2825TIP3   OH229889   0.065   6.396   0.715 -0.1603 -0.6047 -0.0286
 2825TIP3    H129890   0.126   6.406   0.789 -1.7876  0.0073  1.3048
 2825TIP3    H229891   0.003   6.468   0.726 -1.5111 -1.5857 -0.9578
 2826TIP3   OH229892   2.781   1.737   3.782  0.2502  0.4262  0.4879
 2826TIP3    H129893   2.717   1.736   3.854 -0.6394  0.0189 -0.2899
 2826TIP3    H229894   2.830   1.656   3.792  0.3711  0.5395  0.8373
 2827TIP3   OH229895   1.793   0.943  14.024  0.2691  0.0639  0.2102
 2827TIP3    H129896   1.759   1.003  14.090 -0.9864 -0.8790  0.4426
 2827TIP3    H229897   1.845   0.999  13.966 -2.7855  1.8669 -0.9930
 2828TIP3   OH229898   0.100   2.107   5.583  0.7150 -0.1715 -0.5739
 2828TIP3    H129899   0.087   2.069   5.670  0.7888  2.3349  0.6190
 2828TIP3    H229900   0.194   2.099   5.568  1.3031  2.2182  1.1150
 2829TIP3   OH229901   5.533   4.951   3.589 -0.3089  0.0383 -0.4345
 2829TIP3    H129902   5.617   4.967   3.546 -0.4227 -0.1480 -0.7243
 2829TIP3    H229903   5.498   5.039   3.606 -0.7893  0.1234 -1.7505
 2830TIP3   OH229904   6.765   4.684   4.566 -0.2131 -0.0805 -0.8327
 2830TIP3    H129905   6.846   4.735   4.565 -1.1752  1.5872  0.3010
 2830TIP3    H229906   6.700   4.744   4.602 -0.9861 -2.7868  2.8593
 2831TIP3   OH229907   1.319   6.495   2.305  0.2524 -0.3745  0.2796
 2831TIP3    H129908   1.255   6.512   2.236 -0.3885 -0.8835  0.7357
 2831TIP3    H229909   1.276   6.433   2.363  1.4992 -1.4306  0.1248
 2832TIP3   OH229910   5.089   1.938  16.235 -0.1577  0.9088  0.3635
 2832TIP3    H129911   5.176   1.944  16.276 -0.0845 -1.7356  0.7499
 2832TIP3    H229912   5.029   1.926  16.308 -0.8585  2.3898  0.0673
 2833TIP3   OH229913   1.512   1.936  12.874 -0.6020  0.3919  0.7362
 2833TIP3    H129914   1.545   1.947  12.785 -0.8444 -1.5659  0.3426
 2833TIP3    H229915   1.476   2.021  12.898  0.7666  1.3517 -0.4801
 2834TIP3   OH229916   1.394   0.433  11.968  0.8042  0.2317 -0.8914
 2834TIP3    H129917   1.435   0.357  11.928 -0.8490 -0.0679 -2.1138
 2834TIP3    H229918   1.306   0.404  11.991  1.1318  0.9122  1.4480
 2835TIP3   OH229919   5.419   4.097   6.094 -0.3389  0.2108  0.1337
 2835TIP3    H129920   5.505   4.065   6.066 -1.0222 -0.7773 -0.9526
 2835TIP3    H229921   5.430   4.192   6.102  0.6023  0.2092 -0.9155
 2836TIP3   OH229922   4.473   3.886  12.535 -0.0210 -0.5783 -0.1726
 2836TIP3    H129923   4.561   3.898  12.571 -0.4649  0.1190  0.7322
 2836TIP3    H229924   4.467   3.793  12.517  0.1995 -0.9910  1.6969
 2837TIP3   OH229925   0.958   0.607   5.919  0.6779  0.1614 -0.6903
 2837TIP3    H129926   0.870   0.582   5.947  0.9442 -1.1304 -0.9504
 2837TIP3    H229927   0.999   0.642   5.998  0.5783 -1.0881 -0.0587
 2838TIP3   OH229928   1.387   4.355  16.258 -0.1261 -0.2182  0.1754
 2838TIP3    H129929   1.347   4.415  16.196  1.4246 -1.3253 -2.0235
 2838TIP3    H229930   1.423   4.411  16.327 -0.8073  1.1554 -0.5612
 2839TIP3   OH229931   0.214   3.141   1.183  0.1265  0.1397  0.1591
 2839TIP3    H129932   0.266   3.222   1.179 -0.4877  0.5011 -1.1700
 2839TIP3    H229933   0.279   3.071   1.187  0.7229  0.6132 -0.8145
 2840TIP3   OH229934   6.151   0.134  12.481  0.3152 -0.0226 -0.5580
 2840TIP3    H129935   6.165   0.212  12.429 -0.1377  1.5448  1.5237
 2840TIP3    H229936   6.070   0.095  12.446  0.2706  0.7092 -1.2926
 2841TIP3   OH229937   3.993   1.493   2.669  0.0676  0.0245 -0.1182
 2841TIP3    H129938   3.965   1.584   2.671  0.2943  0.1078 -0.5928
 2841TIP3    H229939   3.977   1.465   2.578  0.8289 -0.1440 -0.2034
 2842TIP3   OH229940   4.677   4.064  13.273 -0.2314  0.0584 -0.0093
 2842TIP3    H129941   4.680   4.155  13.301 -0.1145 -0.4187  1.6137
 2842TIP3    H229942   4.583   4.043  13.269 -0.2384  0.0313  0.3380
 2843TIP3   OH229943   2.060   6.310  11.770 -0.4135 -0.4548 -0.1642
 2843TIP3    H129944   2.035   6.283  11.681  1.2174  1.9833 -1.4768
 2843TIP3    H229945   1.985   6.361  11.800 -0.6971 -0.7169 -0.4087
 2844TIP3   OH229946   2.505   5.957   4.457  0.1468 -0.4393  0.4525
 2844TIP3    H129947   2.593   5.921   4.459 -0.0025 -0.9973 -1.2132
 2844TIP3    H229948   2.470   5.929   4.373 -1.5851 -0.1245  1.0324
 2845TIP3   OH229949   2.500   4.760  16.578 -0.0934  0.0083 -0.0973
 2845TIP3    H129950   2.536   4.844  16.551  1.6077 -0.5288  0.3616
 2845TIP3    H229951   2.419   4.782  16.624  0.9264  1.5141  1.0659
 2846TIP3   OH229952   3.845   2.950  15.721 -0.0400 -0.0053 -0.0576
 2846TIP3    H129953   3.780   2.885  15.695  2.8443 -2.7510 -1.2058
 2846TIP3    H229954   3.880   2.984  15.639  1.2676 -0.0888  0.4298
 2847TIP3   OH229955   5.307   3.370   6.041  0.0064  0.0586  0.5550
 2847TIP3    H129956   5.229   3.351   6.092  0.3323 -0.4350  0.8769
 2847TIP3    H229957   5.355   3.288   6.039 -1.2150 -0.7536 -2.7050
 2848TIP3   OH229958   6.197   4.147  11.077 -0.8479  0.5446 -0.0010
 2848TIP3    H129959   6.270   4.092  11.050 -0.9712 -0.3826  1.4201
 2848TIP3    H229960   6.235   4.206  11.142 -1.1572  0.7103  0.0315
 2849TIP3   OH229961   3.564   5.989  16.712 -0.4374 -0.3362 -0.1146
 2849TIP3    H129962   3.602   5.927  16.651  0.7863  0.3394 -0.0592
 2849TIP3    H229963   3.555   5.941  16.794 -1.6961 -1.1187 -0.6823
 2850TIP3   OH229964   4.295   5.162  15.659 -0.5562  0.5750  0.2978
 2850TIP3    H129965   4.387   5.187  15.650 -0.8045  1.4606  0.2016
 2850TIP3    H229966   4.270   5.131  15.572  0.1673 -1.4959  0.7707
 2851TIP3   OH229967   3.556   2.911  15.554  0.3712  0.6121  0.2936
 2851TIP3    H129968   3.465   2.908  15.526  0.4035  1.3197  0.0848
 2851TIP3    H229969   3.602   2.955  15.481  0.9201  0.0406  0.2822
 2852TIP3   OH229970   0.584   2.765   1.208 -0.2994  0.2164 -0.3371
 2852TIP3    H129971   0.538   2.715   1.140 -0.2412 -0.3387  0.0197
 2852TIP3    H229972   0.677   2.753   1.187 -0.2765 -0.1241 -0.0448
 2853TIP3   OH229973   6.160   1.089   2.458  0.2374  0.3881  0.3909
 2853TIP3    H129974   6.098   1.069   2.388  1.8001 -1.3591 -0.5948
 2853TIP3    H229975   6.198   1.173   2.434  0.1013  0.2341 -0.3928
 2854TIP3   OH229976   5.222   4.170  14.516  0.1177 -0.1388  0.2024
 2854TIP3    H129977   5.281   4.198  14.446  0.5606 -0.6949  0.3505
 2854TIP3    H229978   5.257   4.210  14.595  0.2949 -0.4610  0.2889
 2855TIP3   OH229979   3.758   1.530  11.192 -0.5633  0.4792  0.1534
 2855TIP3    H129980   3.852   1.543  11.203 -0.4356  0.7578 -1.1925
 2855TIP3    H229981   3.718   1.612  11.221 -0.3645  0.5335  0.2724
 2856TIP3   OH229982   3.891   6.501  11.228 -0.3728  0.2601 -0.0149
 2856TIP3    H129983   3.805   6.496  11.270  0.1724  2.1208  1.4764
 2856TIP3    H229984   3.874   6.484  11.136 -2.7136  2.5000 -0.1202
 2857TIP3   OH229985   0.436   1.422   2.623 -0.6192 -0.7025 -0.1507
 2857TIP3    H129986   0.415   1.502   2.576 -0.0911  0.0169  0.8025
 2857TIP3    H229987   0.530   1.411   2.611 -0.3677 -0.2121  1.1301
 2858TIP3   OH229988   3.369   2.806  13.318 -0.2664 -0.4361 -0.1166
 2858TIP3    H129989   3.400   2.885  13.274  1.5247 -1.0022  0.0611
 2858TIP3    H229990   3.346   2.835  13.406  1.5467 -0.3024  0.3438
 2859TIP3   OH229991   2.565   3.841  16.323 -0.2646 -0.1274  0.2854
 2859TIP3    H129992   2.645   3.788  16.322 -0.4180 -0.3809  1.1939
 2859TIP3    H229993   2.557   3.873  16.413  0.1975  2.0487 -0.3867
 2860TIP3   OH229994   4.261   5.344  16.911 -0.0343 -0.0048  0.1008
 2860TIP3    H129995   4.204   5.420  16.922  0.7111  0.5065  0.5006
 2860TIP3    H229996   4.291   5.350  16.820 -0.8986 -0.4958 -0.2386
 2861TIP3   OH229997   6.217   0.450  11.557  0.3353 -0.6920  0.7305
 2861TIP3    H129998   6.208   0.543  11.574  4.4279 -0.1908  1.1008
 2861TIP3    H229999   6.132   0.413  11.582 -1.0152  2.7041  1.7927
 2862TIP3   OH230000   2.923   3.231  13.012  0.5017 -0.2763  0.1140
 2862TIP3    H130001   2.959   3.236  12.924  0.0782  1.2059  0.0001
 2862TIP3    H230002   2.981   3.286  13.065  1.8935 -2.6264  1.2263
 2863TIP3   OH230003   5.797   2.827  11.605 -0.7114 -0.4345 -0.1418
 2863TIP3    H130004   5.785   2.779  11.523  0.2069  0.5083 -0.8719
 2863TIP3    H230005   5.751   2.910  11.591  0.3578  0.1789 -0.1467
 2864TIP3   OH230006   1.342   0.370  13.235  0.2123  0.2125 -0.5246
 2864TIP3    H130007   1.385   0.421  13.303 -1.6668  1.3155 -0.1014
 2864TIP3    H230008   1.250   0.366  13.261 -0.7090  1.1559 -3.2267
 2865TIP3   OH230009   1.467   5.208   5.845 -0.0460 -0.1349  0.0440
 2865TIP3    H130010   1.533   5.173   5.904  0.8529  0.7992 -0.3771
 2865TIP3    H230011   1.442   5.292   5.883  0.2471  0.2920 -0.6782
 2866TIP3   OH230012   2.615   5.431   1.449 -0.2209 -0.4601  0.0766
 2866TIP3    H130013   2.522   5.451   1.454 -0.3673 -1.0786 -0.0882
 2866TIP3    H230014   2.652   5.501   1.395 -0.4974  0.0785  0.5740
 2867TIP3   OH230015   0.233   4.197  16.723  0.7772 -0.4989  0.6035
 2867TIP3    H130016   0.264   4.108  16.710  2.4025 -0.0905  1.4617
 2867TIP3    H230017   0.311   4.251  16.714 -0.3739  0.9882 -1.1387
 2868TIP3   OH230018   2.986   2.728   5.517 -0.3928  0.4966 -0.5084
 2868TIP3    H130019   2.995   2.817   5.552 -1.9658  1.4966 -2.4302
 2868TIP3    H230020   3.017   2.734   5.427 -2.3195 -0.3777 -1.2893
 2869TIP3   OH230021   4.026   4.845  14.019  0.0294  0.5062  0.1175
 2869TIP3    H130022   4.024   4.852  13.924 -1.5883 -2.0115 -0.1506
 2869TIP3    H230023   3.934   4.845  14.045  0.4365  1.0447  1.6885
 2870TIP3   OH230024   6.645   6.362  11.728  0.3677  0.5382  0.0204
 2870TIP3    H130025   6.729   6.362  11.682  0.3759  0.9544  0.0310
 2870TIP3    H230026   6.588   6.414  11.672 -0.3226 -0.9997 -0.7683
 2871TIP3   OH230027   4.770   0.220   4.578  0.4648 -0.1243  0.4565
 2871TIP3    H130028   4.725   0.242   4.659  1.1546 -0.7243  1.0137
 2871TIP3    H230029   4.817   0.139   4.597 -0.1181 -0.8063 -0.8215
 2872TIP3   OH230030   1.590   0.073   4.415  0.4303 -0.2662 -0.1131
 2872TIP3    H130031   1.565   0.048   4.326  2.5708 -3.0932 -0.0731
 2872TIP3    H230032   1.659   0.139   4.402 -1.7334  2.1213 -0.3405
 2873TIP3   OH230033   0.909   6.353  13.876 -0.0781 -0.3113  0.2010
 2873TIP3    H130034   0.947   6.335  13.791  0.2278  0.6435  0.1268
 2873TIP3    H230035   0.915   6.270  13.923 -0.3021 -0.8615 -0.7158
 2874TIP3   OH230036   1.243   5.779   1.361 -0.5783  0.4393  0.1939
 2874TIP3    H130037   1.239   5.865   1.403 -0.0875  1.4013 -1.6413
 2874TIP3    H230038   1.209   5.794   1.273  1.0493 -0.8993 -0.6990
 2875TIP3   OH230039   6.605   3.266   2.161  0.2666 -0.8817  0.3679
 2875TIP3    H130040   6.643   3.285   2.246  0.8172  0.4271 -0.1364
 2875TIP3    H230041   6.578   3.352   2.127  1.6107 -1.1068 -1.4764
 2876TIP3   OH230042   2.986   1.021   1.109  0.5188  0.5047 -0.0896
 2876TIP3    H130043   3.059   1.021   1.047  0.1440  2.2837 -0.5791
 2876TIP3    H230044   2.910   1.042   1.056 -0.0302  0.7017  0.7682
 2877TIP3   OH230045   5.180   3.961   2.852 -0.3616 -0.1283  0.6651
 2877TIP3    H130046   5.128   3.920   2.782  1.2710 -1.4812  0.1859
 2877TIP3    H230047   5.159   4.054   2.846 -0.1779 -0.1874 -1.7168
 2878TIP3   OH230048   0.923   1.633   2.648  0.2419  0.5841 -0.1754
 2878TIP3    H130049   0.969   1.693   2.589 -0.9854 -0.1341 -1.9476
 2878TIP3    H230050   0.932   1.674   2.734  2.5378  1.4267 -0.7159
 2879TIP3   OH230051   0.142   2.892   6.196 -0.3322  0.9310 -0.1928
 2879TIP3    H130052   0.223   2.870   6.241 -0.1012  1.3005 -0.4230
 2879TIP3    H230053   0.093   2.946   6.258  0.0134  1.4921 -0.3975
 2880TIP3   OH230054   2.492   1.197  12.192  0.9527  0.0136  0.2883
 2880TIP3    H130055   2.480   1.106  12.164 -0.4586 -0.6504  2.6775
 2880TIP3    H230056   2.463   1.250  12.118  0.7470 -1.4967 -0.7526
 2881TIP3   OH230057   6.709   2.120   4.058  0.9535 -0.4020 -0.1366
 2881TIP3    H130058   6.783   2.067   4.030  0.0782 -2.1223  0.6123
 2881TIP3    H230059   6.673   2.156   3.977  0.0786 -3.0566 -1.0232
 2882TIP3   OH230060   2.476   0.906   5.585  0.0149 -0.3474  0.3502
 2882TIP3    H130061   2.386   0.882   5.564 -0.2650  0.0662  1.0594
 2882TIP3    H230062   2.468   0.983   5.641  0.8609  0.6791 -0.8939
 2883TIP3   OH230063   0.346   3.213  15.061  0.1116 -0.5092 -0.9998
 2883TIP3    H130064   0.361   3.120  15.043 -0.5022 -0.9284  0.4573
 2883TIP3    H230065   0.433   3.248  15.080  0.1053 -1.4129  0.9777
 2884TIP3   OH230066   0.528   6.377   4.596 -0.1829  0.0876  0.4567
 2884TIP3    H130067   0.517   6.460   4.550 -0.5774  0.3078  0.9299
 2884TIP3    H230068   0.622   6.370   4.611 -0.3211  1.6350  2.5037
 2885TIP3   OH230069   5.300   4.924  13.003 -1.0054 -0.3190 -0.0007
 2885TIP3    H130070   5.322   5.002  13.055 -0.5948 -0.6822  0.3792
 2885TIP3    H230071   5.263   4.959  12.922  1.0856  0.3516 -0.7468
 2886TIP3   OH230072   2.493   4.491   1.476 -0.0521 -0.1451 -0.3048
 2886TIP3    H130073   2.414   4.527   1.435 -0.2602 -1.2131 -0.8923
 2886TIP3    H230074   2.508   4.408   1.429  1.1156 -0.2076  0.1543
 2887TIP3   OH230075   2.080   5.760   5.115  0.0166 -0.2367  0.5394
 2887TIP3    H130076   2.131   5.701   5.059 -0.2493  1.2581 -1.3862
 2887TIP3    H230077   1.990   5.752   5.082 -1.2366 -3.0830  4.0901
 2888TIP3   OH230078   3.722   1.021   2.307 -0.2577  0.7834 -0.7399
 2888TIP3    H130079   3.672   1.102   2.314 -0.6766  0.4878 -0.2898
 2888TIP3    H230080   3.799   1.036   2.362 -1.6342 -0.0852  1.5696
 2889TIP3   OH230081   0.413   6.137   5.592 -1.0863 -0.4509  0.0310
 2889TIP3    H130082   0.387   6.049   5.564 -0.5783  0.0733 -2.3207
 2889TIP3    H230083   0.503   6.146   5.563 -1.3072  1.0404 -0.2598
 2890TIP3   OH230084   4.996   6.098   1.918  0.1705 -0.0342  0.0319
 2890TIP3    H130085   5.027   6.056   1.838  0.1061 -0.4756  0.2355
 2890TIP3    H230086   4.901   6.089   1.915  0.2313 -1.0266  0.6814
 2891TIP3   OH230087   6.500   0.685   0.956  0.3904 -0.4713 -0.0471
 2891TIP3    H130088   6.559   0.753   0.923  1.5395 -1.5124 -0.2358
 2891TIP3    H230089   6.555   0.633   1.015 -0.7748 -0.5645  1.0081
 2892TIP3   OH230090   4.579   2.962   5.062  0.3627 -0.2929  0.1167
 2892TIP3    H130091   4.567   3.009   4.980  0.0727  0.1809  0.4249
 2892TIP3    H230092   4.510   2.896   5.063  1.0435 -1.0444 -0.5241
 2893TIP3   OH230093   1.315   0.945  11.133  0.2665 -0.7566  0.0155
 2893TIP3    H130094   1.324   0.889  11.056 -0.6108 -1.0840  0.1329
 2893TIP3    H230095   1.310   0.884  11.207  0.3333 -0.4820  0.2486
 2894TIP3   OH230096   2.875   1.381  16.653 -0.4570 -0.0763 -0.2293
 2894TIP3    H130097   2.900   1.432  16.576 -1.0580 -1.3750 -1.3171
 2894TIP3    H230098   2.959   1.358  16.695 -0.1140  0.3554 -0.6684
 2895TIP3   OH230099   2.265   3.404   4.789 -0.0839 -0.2422 -0.6997
 2895TIP3    H130100   2.185   3.359   4.817 -0.1007 -1.7017 -2.8004
 2895TIP3    H230101   2.333   3.372   4.849 -0.7230 -0.5056 -0.1118
 2896TIP3   OH230102   2.782   3.447   4.993  0.5718  0.0323 -0.0035
 2896TIP3    H130103   2.817   3.504   5.061 -0.2618 -0.5918  0.9721
 2896TIP3    H230104   2.848   3.378   4.984  1.4528  0.9495 -0.9966
 2897TIP3   OH230105   4.728   5.983  15.409  0.4657 -0.5095  0.1163
 2897TIP3    H130106   4.715   6.008  15.500 -0.2379  0.0427 -0.1331
 2897TIP3    H230107   4.766   6.061  15.368 -0.3306 -0.3444 -0.3245
 2898TIP3   OH230108   5.956   1.456   0.481 -0.3496  0.9476 -0.4375
 2898TIP3    H130109   5.978   1.456   0.388 -1.2877  1.3313 -0.6770
 2898TIP3    H230110   5.870   1.414   0.485 -0.1341  0.5646  0.3108
 2899TIP3   OH230111   2.680   4.075  17.028  0.5209 -0.1752  0.0449
 2899TIP3    H130112   2.644   4.036  16.948 -0.5704  0.5726  0.1428
 2899TIP3    H230113   2.714   4.160  16.999  1.8884 -0.6991  0.0332
 2900TIP3   OH230114   5.238   5.862  16.123 -0.9152 -0.3646 -0.4877
 2900TIP3    H130115   5.198   5.939  16.163 -0.2799 -0.6058  0.6521
 2900TIP3    H230116   5.239   5.882  16.029  1.3161  2.0801 -0.0714
 2901TIP3   OH230117   2.237   3.745  14.983  0.2990  0.0818 -0.1315
 2901TIP3    H130118   2.236   3.764  15.077  0.2213  0.0012 -0.1155
 2901TIP3    H230119   2.324   3.773  14.954  0.5134 -0.3757  0.0653
 2902TIP3   OH230120   5.004   5.690   2.077 -0.2988  0.2180  0.1795
 2902TIP3    H130121   5.023   5.629   2.148 -0.5721 -0.6804 -0.5095
 2902TIP3    H230122   4.930   5.652   2.031 -0.2272  0.8703 -0.5034
 2903TIP3   OH230123   5.074   0.781  14.234 -0.1490 -0.3912  0.1757
 2903TIP3    H130124   5.052   0.797  14.142  0.2419 -2.6028 -0.3531
 2903TIP3    H230125   5.151   0.836  14.250  0.3289 -0.6637 -1.0962
 2904TIP3   OH230126   4.865   6.362   3.151  0.2633  0.1658 -0.1553
 2904TIP3    H130127   4.860   6.308   3.072  2.1231  0.0178 -0.2299
 2904TIP3    H230128   4.839   6.450   3.122 -0.4541 -0.1895 -0.5931
 2905TIP3   OH230129   0.750   6.587   0.282 -0.1154  0.0602  0.1303
 2905TIP3    H130130   0.836   6.612   0.315 -0.0460 -0.6395  0.5126
 2905TIP3    H230131   0.710   6.539   0.355  0.1732 -1.8514 -0.9204
 2906TIP3   OH230132   1.288   2.527   2.379 -0.2056  0.2335  0.0304
 2906TIP3    H130133   1.326   2.615   2.383  1.0509 -0.3334  1.0217
 2906TIP3    H230134   1.262   2.508   2.469 -0.8736 -0.2467 -0.2587
 2907TIP3   OH230135   1.838   6.202  12.596 -0.3731  0.6714 -0.4837
 2907TIP3    H130136   1.838   6.287  12.551 -1.4536  0.3988 -1.0228
 2907TIP3    H230137   1.757   6.160  12.568 -0.1360 -0.3006  0.2475
 2908TIP3   OH230138   1.802   0.060   1.300 -0.2973  0.2814  0.1497
 2908TIP3    H130139   1.889   0.029   1.325 -0.3521 -0.9852 -1.0778
 2908TIP3    H230140   1.751   0.060   1.382  0.7531  0.7314  0.8179
 2909TIP3   OH230141   5.484   2.093  16.328 -0.6463  0.6665  0.2685
 2909TIP3    H130142   5.488   2.139  16.244 -0.3271  0.1893  0.0193
 2909TIP3    H230143   5.391   2.092  16.351 -0.8340  0.1066 -0.4757
 2910TIP3   OH230144   2.315   1.098   4.543  0.0154 -0.1474 -0.1676
 2910TIP3    H130145   2.249   1.076   4.609  3.1426 -1.4646  2.8128
 2910TIP3    H230146   2.325   1.018   4.492 -0.1164 -0.2180 -0.0833
 2911TIP3   OH230147   1.177   1.994   4.689 -0.4091  0.4412 -0.1902
 2911TIP3    H130148   1.150   2.049   4.763  1.7869  0.7894  0.4224
 2911TIP3    H230149   1.238   2.049   4.640 -0.6846 -0.3326 -1.4224
 2912TIP3   OH230150   2.756   6.445  14.137 -0.8914  0.1443  0.1828
 2912TIP3    H130151   2.713   6.428  14.054 -1.6684  0.4410  0.5117
 2912TIP3    H230152   2.816   6.517  14.119 -0.1213 -0.6332 -0.4074
 2913TIP3   OH230153   2.664   1.817  16.464  0.6559  0.1999 -0.0370
 2913TIP3    H130154   2.635   1.734  16.502  2.9590 -0.1171  1.1836
 2913TIP3    H230155   2.604   1.832  16.391 -2.0526 -0.7069  1.8566
 2914TIP3   OH230156   3.445   1.458  14.567  0.2277  1.0100 -0.1595
 2914TIP3    H130157   3.491   1.498  14.493  2.0026 -1.9095 -0.8291
 2914TIP3    H230158   3.352   1.464  14.544  0.6247  1.8976 -1.6609
 2915TIP3   OH230159   1.066   3.372  14.003  0.0930  0.8341 -0.2460
 2915TIP3    H130160   1.085   3.432  14.076 -1.1405 -0.2488  1.0093
 2915TIP3    H230161   0.975   3.391  13.981 -0.0492 -0.0134 -0.3829
 2916TIP3   OH230162   0.676   3.943   4.968  0.1242 -0.2166 -0.6610
 2916TIP3    H130163   0.641   4.031   4.956 -0.1105 -0.1588  0.3666
 2916TIP3    H230164   0.753   3.939   4.911  2.0330  1.7512  1.5707
 2917TIP3   OH230165   0.636   5.534   2.032 -0.4201 -0.3262 -0.3304
 2917TIP3    H130166   0.633   5.546   1.937  1.1380 -0.7582 -0.4700
 2917TIP3    H230167   0.688   5.608   2.063  0.6087 -1.1466 -0.0402
 2918TIP3   OH230168   2.310   6.199  15.403 -0.4245 -0.1780 -0.3772
 2918TIP3    H130169   2.234   6.145  15.382 -0.3305 -0.1785 -0.7364
 2918TIP3    H230170   2.381   6.160  15.353 -0.1338 -0.3181  0.1394
 2919TIP3   OH230171   5.602   4.176  13.096 -0.0762 -0.2621  0.2529
 2919TIP3    H130172   5.595   4.262  13.053  2.4420 -0.1600 -0.1302
 2919TIP3    H230173   5.512   4.148  13.109 -0.9683  1.1348 -2.2562
 2920TIP3   OH230174   0.334   1.547  11.992 -0.2135 -0.0440  0.5623
 2920TIP3    H130175   0.303   1.531  12.081  1.3036 -0.1086  1.1062
 2920TIP3    H230176   0.345   1.460  11.954  1.7935 -0.1808  1.3027
 2921TIP3   OH230177   6.418   5.432   6.475  0.3443  0.0592  0.3561
 2921TIP3    H130178   6.421   5.509   6.531  1.0183 -0.9194  1.7265
 2921TIP3    H230179   6.418   5.358   6.536 -0.9509 -1.0264 -0.8927
 2922TIP3   OH230180   3.246   4.402   2.930 -0.0229 -0.2045 -0.5183
 2922TIP3    H130181   3.259   4.336   2.862  1.4786 -0.0904 -0.3601
 2922TIP3    H230182   3.156   4.386   2.960  0.1222 -1.8456 -0.8313
 2923TIP3   OH230183   4.615   1.571   0.835 -0.5938  0.1554 -0.2543
 2923TIP3    H130184   4.536   1.518   0.833  0.0267 -0.9367  1.5587
 2923TIP3    H230185   4.585   1.660   0.853 -1.4166 -0.1942  0.1129
 2924TIP3   OH230186   3.887   6.027  13.996 -0.6008  0.4872  0.2015
 2924TIP3    H130187   3.797   5.997  14.007 -0.8066  0.7098 -0.7675
 2924TIP3    H230188   3.906   6.010  13.904  0.8425 -0.8756  0.7118
 2925TIP3   OH230189   1.282   4.312  15.125 -0.1007  0.4295  0.2481
 2925TIP3    H130190   1.296   4.380  15.059  0.7600 -0.3570 -0.4061
 2925TIP3    H230191   1.194   4.328  15.158  0.2611  2.1380  0.4454
 2926TIP3   OH230192   3.355   4.359  17.086  0.2880 -0.3452 -0.8111
 2926TIP3    H130193   3.264   4.388  17.085  0.1432 -0.4249  2.0796
 2926TIP3    H230194   3.356   4.284  17.145  2.4326  0.6115  0.5089
 2927TIP3   OH230195   0.400   5.957  14.723  0.3234 -0.0152 -0.2889
 2927TIP3    H130196   0.443   5.963  14.637  0.0669  0.3227 -0.3948
 2927TIP3    H230197   0.348   6.037  14.730 -0.6762 -0.6283 -0.3754
 2928TIP3   OH230198   0.743   6.155   4.658  0.1212 -0.5800 -0.5610
 2928TIP3    H130199   0.761   6.225   4.720 -0.8014 -1.9655  1.3999
 2928TIP3    H230200   0.829   6.125   4.630  0.5361  0.7504 -0.7664
 2929TIP3   OH230201   1.926   1.962   5.954 -0.2354  0.1548  0.7825
 2929TIP3    H130202   1.833   1.965   5.934 -0.4315 -0.7549  1.4531
 2929TIP3    H230203   1.940   1.872   5.985  0.8928  0.2380  0.5407
 2930TIP3   OH230204   3.856   4.699   5.044 -0.2050  0.0184  0.4602
 2930TIP3    H130205   3.828   4.788   5.067 -1.6999 -0.4536  0.5449
 2930TIP3    H230206   3.817   4.684   4.958  0.9263 -0.1863 -0.0337
 2931TIP3   OH230207   3.586   5.899   2.226  0.8763  0.3305  0.5533
 2931TIP3    H130208   3.540   5.948   2.295  0.4323 -0.0930  0.5658
 2931TIP3    H230209   3.649   5.961   2.191 -0.2591  1.2121 -0.0202
 2932TIP3   OH230210   1.448   2.278   2.322  0.5462  0.0344 -0.3019
 2932TIP3    H130211   1.407   2.364   2.308  1.0875  0.7521  2.1143
 2932TIP3    H230212   1.540   2.299   2.340  0.7984 -1.1209 -0.2036
 2933TIP3   OH230213   3.786   0.277   0.695  0.1576  0.9648  0.0461
 2933TIP3    H130214   3.778   0.346   0.760  2.9242  0.7363  0.7681
 2933TIP3    H230215   3.714   0.217   0.713 -0.0259  1.7006  1.9075
 2934TIP3   OH230216   1.329   1.176   5.579 -0.0334 -0.3396  0.4258
 2934TIP3    H130217   1.246   1.194   5.623  0.8542  3.5479  0.8144
 2934TIP3    H230218   1.304   1.165   5.487 -0.9341  2.6165  0.2210
 2935TIP3   OH230219   3.095   2.529  15.343  0.8812 -0.0293  0.5984
 2935TIP3    H130220   3.157   2.596  15.313 -1.2770  0.9445 -2.1796
 2935TIP3    H230221   3.145   2.448  15.344  2.4460  0.8739 -0.5525
 2936TIP3   OH230222   2.593   5.759  15.952 -0.3148 -0.0563  0.6227
 2936TIP3    H130223   2.682   5.751  15.916 -1.1532 -0.7463 -1.4598
 2936TIP3    H230224   2.580   5.853  15.960  0.1089  0.1264 -0.4865
 2937TIP3   OH230225   0.426   2.875  10.446 -0.2862 -0.4100  0.1837
 2937TIP3    H130226   0.488   2.882  10.373 -0.4638 -0.3529  0.0364
 2937TIP3    H230227   0.481   2.855  10.522  0.0015  0.4571  0.2157
 2938TIP3   OH230228   1.026   4.420   1.912 -0.3484  0.0428  0.1431
 2938TIP3    H130229   0.967   4.345   1.921  0.2024 -0.5455 -1.0461
 2938TIP3    H230230   0.970   4.490   1.878  0.0887 -1.2854 -3.7363
 2939TIP3   OH230231   1.271   1.127   4.141  0.4088  0.4705 -0.1098
 2939TIP3    H130232   1.267   1.130   4.236  1.6936 -0.5532 -0.0105
 2939TIP3    H230233   1.298   1.215   4.115 -1.6475  1.3021  0.3220
 2940TIP3   OH230234   5.568   4.452  13.017  0.5449 -0.7879  0.8769
 2940TIP3    H130235   5.505   4.507  13.064  1.2196 -0.0419  0.9305
 2940TIP3    H230236   5.641   4.511  12.998  0.7111 -1.3377 -0.2341
 2941TIP3   OH230237   2.719   0.167  16.036 -0.3367  0.3580  0.1096
 2941TIP3    H130238   2.632   0.194  16.007 -0.7758  0.7437  1.6818
 2941TIP3    H230239   2.741   0.093  15.979 -1.3541  0.7437 -0.8178
 2942TIP3   OH230240   0.488   2.295   2.736 -0.0604  0.5324  0.1809
 2942TIP3    H130241   0.451   2.243   2.808  0.5459  2.0046  1.6192
 2942TIP3    H230242   0.522   2.230   2.675  0.2738 -0.7858  1.6993
 2943TIP3   OH230243   3.748   5.073  12.339  0.3765 -0.4216 -0.5304
 2943TIP3    H130244   3.839   5.084  12.368  0.9607 -1.2359 -1.9122
 2943TIP3    H230245   3.744   5.117  12.254 -0.3968 -0.7757 -0.6887
 2944TIP3   OH230246   2.979   6.757   4.659  0.2077  0.0282  0.6137
 2944TIP3    H130247   2.938   6.676   4.628  0.1717 -0.6318  2.2860
 2944TIP3    H230248   3.067   6.756   4.620  0.7687 -1.6209  1.8039
 2945TIP3   OH230249   3.538   6.549   2.403  0.5231 -0.2515  0.0756
 2945TIP3    H130250   3.574   6.591   2.481 -0.0345  0.3510  0.0206
 2945TIP3    H230251   3.591   6.582   2.330 -0.4705  1.0962 -0.0767
 2946TIP3   OH230252   1.090   5.572  16.554 -0.2984 -0.1764 -0.7877
 2946TIP3    H130253   1.102   5.575  16.459 -0.3170  0.3277 -0.7753
 2946TIP3    H230254   1.041   5.652  16.575  1.0900  0.5507 -0.1589
 2947TIP3   OH230255   5.257   1.586  15.704 -0.2804  0.3460 -0.2979
 2947TIP3    H130256   5.335   1.620  15.748  0.4652 -2.0472  0.3860
 2947TIP3    H230257   5.186   1.604  15.765  0.2722 -0.3108  0.5574
 2948TIP3   OH230258   0.320   4.304  10.779  0.3986 -0.1466  0.3774
 2948TIP3    H130259   0.286   4.393  10.778  1.2814  0.2015 -0.0101
 2948TIP3    H230260   0.415   4.315  10.772  0.5164 -1.1200  0.3091
 2949TIP3   OH230261   0.645   0.713  11.853  0.6310  0.5577 -0.6726
 2949TIP3    H130262   0.656   0.729  11.946 -0.5148  1.0777 -0.6129
 2949TIP3    H230263   0.704   0.640  11.834  0.1443 -0.2136  0.6621
 2950TIP3   OH230264   4.081   2.507  14.746 -0.2124  0.4690  0.6802
 2950TIP3    H130265   4.099   2.430  14.800 -2.1540 -0.1259  0.5595
 2950TIP3    H230266   4.067   2.472  14.658  1.7041  1.3023  0.0037
 2951TIP3   OH230267   2.781   3.553   1.284  0.0196  0.6562  0.3364
 2951TIP3    H130268   2.861   3.507   1.255 -0.9727 -1.0898  0.2218
 2951TIP3    H230269   2.763   3.616   1.214  1.7431  1.6878  0.7670
 2952TIP3   OH230270   5.375   4.247  12.829  0.1190 -0.4187  0.1294
 2952TIP3    H130271   5.400   4.326  12.876 -0.0096 -0.0757 -0.3750
 2952TIP3    H230272   5.284   4.262  12.803  0.0638 -0.7727  0.1095
 2953TIP3   OH230273   5.848   3.215   2.105 -0.5758 -0.5295  0.0198
 2953TIP3    H130274   5.871   3.136   2.056  0.3206  0.1950 -0.7965
 2953TIP3    H230275   5.773   3.191   2.157 -1.0395 -1.5979 -1.0937
 2954TIP3   OH230276   1.237   3.371  15.204 -0.6416 -0.6655  0.2065
 2954TIP3    H130277   1.302   3.401  15.268 -1.4282 -0.0928  0.7666
 2954TIP3    H230278   1.238   3.276  15.211 -1.0218 -0.5961  1.3973
 2955TIP3   OH230279   3.347   5.058  13.489  0.0094 -0.1443 -0.6658
 2955TIP3    H130280   3.422   5.066  13.430  0.2956 -2.1459 -0.6467
 2955TIP3    H230281   3.272   5.086  13.437  0.5952  0.7422 -1.0664
 2956TIP3   OH230282   1.196   4.516   5.756 -0.1299 -1.0841 -0.1608
 2956TIP3    H130283   1.250   4.537   5.832  0.4520 -0.7813 -0.6413
 2956TIP3    H230284   1.236   4.438   5.719  0.4469 -0.4394 -0.9407
 2957TIP3   OH230285   2.150   2.358   2.880 -0.3903 -0.1388 -0.2474
 2957TIP3    H130286   2.137   2.265   2.897  0.7391 -0.7415 -2.3192
 2957TIP3    H230287   2.096   2.375   2.802 -1.1534  1.1481  0.5228
 2958TIP3   OH230288   5.835   2.516   2.819  0.0942 -0.2052 -0.0966
 2958TIP3    H130289   5.886   2.468   2.885 -2.1934  0.8755  2.6446
 2958TIP3    H230290   5.756   2.463   2.807 -0.7654  0.9977  0.1558
 2959TIP3   OH230291   0.672   2.536   5.576 -0.3987 -0.0165 -0.4949
 2959TIP3    H130292   0.632   2.609   5.529  1.2317  0.8772 -0.5727
 2959TIP3    H230293   0.604   2.469   5.579 -2.1664  1.7379  0.1618
 2960TIP3   OH230294   1.631   5.120  16.748 -0.1295 -0.1031 -0.0891
 2960TIP3    H130295   1.548   5.166  16.753  0.9551  1.8353  1.4711
 2960TIP3    H230296   1.628   5.056  16.820  0.4316  1.3522  1.3044
 2961TIP3   OH230297   5.212   3.847  13.091 -0.1662 -0.3838 -0.0622
 2961TIP3    H130298   5.212   3.782  13.021 -0.5688 -1.4322  0.8703
 2961TIP3    H230299   5.254   3.802  13.165 -1.3165  0.0688  0.9064
 2962TIP3   OH230300   2.358   4.336   3.626  0.1020  0.0518  0.2539
 2962TIP3    H130301   2.268   4.311   3.607  0.2929 -0.5034  0.0288
 2962TIP3    H230302   2.396   4.258   3.667  0.0655  0.7996  1.7672
 2963TIP3   OH230303   1.497   4.484  16.472 -0.1216  0.1006  0.2732
 2963TIP3    H130304   1.580   4.520  16.440  0.6464 -2.6647 -1.2094
 2963TIP3    H230305   1.441   4.560  16.486  1.8911  1.9133 -0.8886
 2964TIP3   OH230306   2.730   2.101  11.783  0.2093  0.4514 -0.2445
 2964TIP3    H130307   2.731   2.175  11.721 -0.5476 -0.2422 -1.1218
 2964TIP3    H230308   2.641   2.102  11.819  1.2409  2.2127  2.6032
 2965TIP3   OH230309   5.314   0.769   4.438 -0.4784 -0.3588 -0.2382
 2965TIP3    H130310   5.289   0.677   4.448  1.8835 -1.2005 -1.2566
 2965TIP3    H230311   5.275   0.796   4.355 -1.1979 -0.4160  0.0747
 2966TIP3   OH230312   1.079   2.702   4.998  0.5264  0.1028 -0.3515
 2966TIP3    H130313   1.019   2.717   5.071  4.1090  0.6713  2.7672
 2966TIP3    H230314   1.086   2.607   4.992  0.0381  0.0491 -0.1364
 2967TIP3   OH230315   5.470   5.768   3.765 -0.2125  0.0170  0.2275
 2967TIP3    H130316   5.487   5.842   3.706  0.9815 -0.2167  0.2459
 2967TIP3    H230317   5.557   5.745   3.799 -0.4926 -1.7195 -0.1809
 2968TIP3   OH230318   2.270   0.125   3.370 -0.0234 -0.4874 -0.3266
 2968TIP3    H130319   2.327   0.184   3.420  0.5942 -0.9791 -0.4415
 2968TIP3    H230320   2.184   0.165   3.376  0.4166  0.5335 -0.5556
 2969TIP3   OH230321   2.418   2.120   4.025 -0.1966 -0.3597  0.4691
 2969TIP3    H130322   2.389   2.142   3.936 -2.7371 -0.9547  1.0744
 2969TIP3    H230323   2.511   2.100   4.015 -0.0290  1.1181 -1.7616
 2970TIP3   OH230324   6.082   1.588  15.002  0.0482 -0.3594  0.2493
 2970TIP3    H130325   6.007   1.618  15.053  0.3388  0.6082  0.1383
 2970TIP3    H230326   6.130   1.669  14.981  0.3807 -0.8231 -0.8337
 2971TIP3   OH230327   5.459   5.287  13.638 -0.2666  0.3730 -0.4014
 2971TIP3    H130328   5.468   5.322  13.550  3.7220 -3.5807 -1.9727
 2971TIP3    H230329   5.403   5.210  13.628  1.6915 -1.1852 -0.0502
 2972TIP3   OH230330   4.092   2.856   1.097 -0.0723  0.0545 -0.1451
 2972TIP3    H130331   4.135   2.779   1.135 -1.3752 -0.9581 -0.6673
 2972TIP3    H230332   4.101   2.845   1.003 -0.0433  0.6915 -0.2251
 2973TIP3   OH230333   4.158   4.345  11.083 -0.2185  0.6049 -0.5251
 2973TIP3    H130334   4.238   4.349  11.030  0.3119 -1.2974  0.0287
 2973TIP3    H230335   4.151   4.252  11.108 -0.3501  1.3774  2.7876
 2974TIP3   OH230336   4.090   5.109  16.863 -0.0186 -0.4619 -0.0058
 2974TIP3    H130337   4.164   5.165  16.887  0.8473 -0.9922 -1.3251
 2974TIP3    H230338   4.085   5.045  16.934  1.2290 -0.8240 -0.2252
 2975TIP3   OH230339   2.458   3.604  16.721  0.3046  0.3543  0.1571
 2975TIP3    H130340   2.379   3.659  16.719 -0.3809 -0.5735  0.6068
 2975TIP3    H230341   2.518   3.650  16.780 -0.0172  0.9254  0.0470
 2976TIP3   OH230342   5.773   5.288   6.315 -0.2831 -0.4638 -0.6023
 2976TIP3    H130343   5.711   5.349   6.355  0.1619 -0.1245 -0.4188
 2976TIP3    H230344   5.810   5.240   6.390  0.9505  0.5466 -0.5289
 2977TIP3   OH230345   4.746   0.640  16.804  0.4999 -0.0919 -0.9373
 2977TIP3    H130346   4.796   0.581  16.747  0.6149 -0.6262 -0.2932
 2977TIP3    H230347   4.708   0.583  16.871 -2.0753  0.0825 -2.1234
 2978TIP3   OH230348   2.169   3.278   3.886  0.0849  0.3991  0.4276
 2978TIP3    H130349   2.207   3.290   3.973  1.1649 -0.0151  0.0203
 2978TIP3    H230350   2.077   3.257   3.904  0.7952 -2.0945  1.6095
 2979TIP3   OH230351   2.072   2.219  13.668 -0.1546 -0.0959  0.4209
 2979TIP3    H130352   2.064   2.175  13.752  1.8250 -1.6523 -0.1306
 2979TIP3    H230353   2.163   2.250  13.665 -0.2948  0.2831 -0.9709
 2980TIP3   OH230354   1.684   6.344  12.986  0.6254 -0.1652  0.4305
 2980TIP3    H130355   1.747   6.279  12.956 -0.0186 -0.0809 -1.2184
 2980TIP3    H230356   1.608   6.331  12.930  0.1172  1.3544  0.7292
 2981TIP3   OH230357   6.582   3.633  16.255  0.6103 -0.0898  0.5946
 2981TIP3    H130358   6.609   3.550  16.294 -0.1396 -1.0324 -0.8271
 2981TIP3    H230359   6.642   3.645  16.181  0.6966  0.6359  0.7749
 2982TIP3   OH230360   2.788   5.562  13.526  0.6526  0.2436  0.3859
 2982TIP3    H130361   2.871   5.517  13.508 -0.7422 -2.0721 -0.6116
 2982TIP3    H230362   2.758   5.525  13.608 -0.9178 -1.3745 -0.8537
 2983TIP3   OH230363   5.971   3.772   2.333 -0.4974  0.0124 -0.0084
 2983TIP3    H130364   6.017   3.706   2.280  0.0672  1.2452 -1.1035
 2983TIP3    H230365   6.033   3.844   2.341 -1.3341  0.6789  0.6356
 2984TIP3   OH230366   2.306   1.840  14.262 -0.1506 -0.3512  0.4477
 2984TIP3    H130367   2.253   1.834  14.341  0.9313 -1.1307  1.1488
 2984TIP3    H230368   2.395   1.856  14.294  0.2479 -0.3225 -0.6335
 2985TIP3   OH230369   5.857   3.899   3.158 -0.1330 -0.4010 -0.1381
 2985TIP3    H130370   5.831   3.852   3.079 -0.1002 -0.1029 -0.3297
 2985TIP3    H230371   5.774   3.915   3.204 -0.2306  0.0151 -0.4483
 2986TIP3   OH230372   3.682   1.490   0.572 -0.1941 -0.7588  0.4776
 2986TIP3    H130373   3.630   1.499   0.492 -1.4862 -3.0040  0.9943
 2986TIP3    H230374   3.640   1.551   0.633 -1.2365 -1.3662  0.3962
 2987TIP3   OH230375   3.898   3.227  11.241 -0.0789  0.7887 -0.2957
 2987TIP3    H130376   3.949   3.293  11.194  0.0615  1.4407  0.7324
 2987TIP3    H230377   3.942   3.144  11.221  1.8105  1.3873  1.0289
 2988TIP3   OH230378   6.753   4.217   5.041  0.2068 -0.2219 -0.2072
 2988TIP3    H130379   6.779   4.129   5.069  1.2779  0.9349  2.8286
 2988TIP3    H230380   6.720   4.259   5.120 -1.4946  1.7358 -1.8375
 2989TIP3   OH230381   5.942   1.621   4.262 -0.4350 -0.4023  0.2252
 2989TIP3    H130382   5.870   1.579   4.309 -2.7405  1.9569 -0.9408
 2989TIP3    H230383   5.969   1.693   4.320  2.5291 -2.4209  1.5818
 2990TIP3   OH230384   0.285   4.711   2.816  0.1000 -0.0056 -0.2023
 2990TIP3    H130385   0.342   4.641   2.848  0.3115 -0.6819 -1.9795
 2990TIP3    H230386   0.344   4.783   2.793  0.1557 -0.3110 -1.0401
 2991TIP3   OH230387   3.852   5.277   1.659 -0.1126 -0.3699  0.0727
 2991TIP3    H130388   3.945   5.273   1.639 -0.3450  1.1410 -1.5832
 2991TIP3    H230389   3.837   5.204   1.720  2.5661  0.7845  2.3260
 2992TIP3   OH230390   1.177   1.448  13.974 -0.0358 -0.2680 -0.4622
 2992TIP3    H130391   1.112   1.518  13.968  0.2765  0.0823  0.1919
 2992TIP3    H230392   1.242   1.480  14.037 -1.6176 -2.4655  2.5715
 2993TIP3   OH230393   2.404   1.152   1.116  0.4638 -0.0012 -0.1128
 2993TIP3    H130394   2.388   1.066   1.075  1.3820  0.0042 -0.5162
 2993TIP3    H230395   2.373   1.215   1.051 -0.7439 -0.0172  0.4217
 2994TIP3   OH230396   1.550   6.451   2.529 -0.3069 -0.0273  0.1227
 2994TIP3    H130397   1.570   6.545   2.520 -1.2970  0.2335  0.5508
 2994TIP3    H230398   1.520   6.425   2.442 -4.4618  1.1784  0.9547
 2995TIP3   OH230399   1.974   3.432   1.495 -0.2220  0.4258  0.4664
 2995TIP3    H130400   2.053   3.407   1.543  0.1172  0.8560  0.1390
 2995TIP3    H230401   1.907   3.372   1.527  0.1712  0.2347  0.9482
 2996TIP3   OH230402   6.229   2.239   4.681 -0.1576  0.1517 -0.4148
 2996TIP3    H130403   6.244   2.203   4.769  1.1188 -1.2106 -1.1413
 2996TIP3    H230404   6.231   2.334   4.693 -3.2392  0.1444  1.5267
 2997TIP3   OH230405   3.355   2.665   2.896  0.0749  0.5814  0.1839
 2997TIP3    H130406   3.285   2.715   2.855 -0.2102 -0.4926 -0.7017
 2997TIP3    H230407   3.400   2.728   2.953  0.8673  2.3247 -2.2111
 2998TIP3   OH230408   0.635   1.522  10.364 -0.3567  0.3366 -0.3244
 2998TIP3    H130409   0.681   1.536  10.447  0.7120  1.2304 -1.0329
 2998TIP3    H230410   0.652   1.430  10.343 -0.2242  0.2339  0.2093
 2999TIP3   OH230411   0.652   1.749  16.533 -0.0623 -0.0396  0.6080
 2999TIP3    H130412   0.579   1.794  16.577 -0.1247 -1.7700  2.4137
 2999TIP3    H230413   0.681   1.684  16.597  2.2410 -0.2669 -0.5810
 3000TIP3   OH230414   1.770   3.760  13.578 -0.4292  0.9182  0.1393
 3000TIP3    H130415   1.701   3.706  13.617 -0.7674  1.2510  0.0089
 3000TIP3    H230416   1.818   3.795  13.653  0.3850 -0.2943  0.2223
 3001TIP3   OH230417   4.881   1.929   0.977  0.5683 -0.1849 -0.2467
 3001TIP3    H130418   4.918   1.915   1.064  1.0272 -0.6655 -0.5124
 3001TIP3    H230419   4.918   2.013   0.948  0.2400  0.0854  0.1049
 3002TIP3   OH230420   6.401   3.167   3.001 -1.0589 -0.2071 -0.3086
 3002TIP3    H130421   6.367   3.257   3.000 -0.7353  0.0078  1.8872
 3002TIP3    H230422   6.328   3.114   3.032 -0.6006 -0.3406  0.5756
 3003TIP3   OH230423   6.387   0.428  14.001  0.9039  0.0209 -0.2121
 3003TIP3    H130424   6.459   0.479  13.965 -1.8371  4.2691 -0.3116
 3003TIP3    H230425   6.339   0.396  13.925  1.2399 -0.7078 -0.1368
 3004TIP3   OH230426   4.794   3.006  16.824 -0.3557 -0.3027 -0.1997
 3004TIP3    H130427   4.833   2.920  16.810 -0.2342  0.1365 -3.0703
 3004TIP3    H230428   4.866   3.067  16.812 -0.3113  0.2768  2.3877
 3005TIP3   OH230429   2.158   5.713   5.896  0.1471  0.2225 -0.4245
 3005TIP3    H130430   2.198   5.697   5.810 -0.2310  2.0639 -0.9816
 3005TIP3    H230431   2.197   5.646   5.953  1.5753 -0.0639 -1.6683
 3006TIP3   OH230432   4.400   1.292  16.241  0.2077  0.4278 -0.4472
 3006TIP3    H130433   4.334   1.245  16.291  1.0363  0.6511  0.9225
 3006TIP3    H230434   4.352   1.359  16.194 -0.3987  1.9107  2.0844
 3007TIP3   OH230435   5.841   6.393   5.159 -0.4042 -0.6023  0.0640
 3007TIP3    H130436   5.800   6.309   5.181 -1.8657 -0.1520 -0.7795
 3007TIP3    H230437   5.821   6.406   5.066  0.5371  0.2875 -0.0313
 3008TIP3   OH230438   0.247   3.884  15.227  0.1445 -0.0495 -0.0651
 3008TIP3    H130439   0.289   3.868  15.142 -1.8682 -2.0642 -0.7694
 3008TIP3    H230440   0.273   3.810  15.281 -0.4514  0.0110  0.3111
 3009TIP3   OH230441   0.923   6.175   4.267  0.3586 -0.5354  0.0840
 3009TIP3    H130442   0.831   6.170   4.241  0.6194  1.3106 -1.3936
 3009TIP3    H230443   0.969   6.124   4.199  0.7150  1.4446 -1.2293
 3010TIP3   OH230444   2.804   4.591  11.385 -0.1062 -0.5974 -0.5160
 3010TIP3    H130445   2.874   4.580  11.449  0.1497  0.9699 -0.5029
 3010TIP3    H230446   2.724   4.567  11.433  0.1521 -0.0380  0.2157
 3011TIP3   OH230447   5.352   3.598  11.572  0.1315 -0.2777  0.1337
 3011TIP3    H130448   5.321   3.686  11.595 -0.2714  0.2561 -2.1731
 3011TIP3    H230449   5.392   3.565  11.652 -0.3020  1.7435  1.2585
 3012TIP3   OH230450   1.259   6.513   5.063 -0.7018  0.5114  0.2456
 3012TIP3    H130451   1.214   6.444   5.014 -0.3882 -0.6096  1.4896
 3012TIP3    H230452   1.330   6.468   5.109 -0.9665  1.5181  1.7087
 3013TIP3   OH230453   2.073   3.885  12.289 -0.1738  0.2365  0.6172
 3013TIP3    H130454   2.126   3.807  12.272 -0.7816 -0.4038  1.5936
 3013TIP3    H230455   2.110   3.923  12.369  0.4027  1.2163 -0.0943
 3014TIP3   OH230456   3.601   2.636   2.769  0.1262  0.2001  0.4388
 3014TIP3    H130457   3.656   2.634   2.847  1.2616 -0.8200 -0.3310
 3014TIP3    H230458   3.512   2.648   2.802  0.6757  0.7537  1.8050
 3015TIP3   OH230459   3.240   1.374   3.916 -0.6439 -0.4002 -0.3691
 3015TIP3    H130460   3.324   1.329   3.924  0.1609  1.1258  0.1661
 3015TIP3    H230461   3.224   1.412   4.002 -0.2880  1.9734 -1.2655
 3016TIP3   OH230462   0.698   3.635   2.575 -0.1974  0.1571  0.1698
 3016TIP3    H130463   0.739   3.554   2.544 -0.0198  0.6774 -1.0164
 3016TIP3    H230464   0.721   3.639   2.668 -0.6775 -1.4276  0.3914
 3017TIP3   OH230465   6.672   5.555  14.972  0.2277 -1.1340 -0.1720
 3017TIP3    H130466   6.648   5.647  14.965 -0.0626 -1.1393  0.6946
 3017TIP3    H230467   6.620   5.521  15.045  0.3135 -1.9918 -0.4902
 3018TIP3   OH230468   3.345   4.746  14.151 -0.0695 -0.4410 -0.2743
 3018TIP3    H130469   3.312   4.747  14.241 -0.0873 -0.1756 -0.2810
 3018TIP3    H230470   3.272   4.778  14.098  0.5499  1.2701 -0.1571
 3019TIP3   OH230471   5.401   6.585  10.821  0.5031  0.0711  0.4570
 3019TIP3    H130472   5.352   6.614  10.744  0.5157  0.7696  0.6982
 3019TIP3    H230473   5.481   6.546  10.785 -0.0061 -0.6500  0.0815
 3020TIP3   OH230474   2.454   3.629  16.161 -0.2263  0.2246  0.2788
 3020TIP3    H130475   2.363   3.632  16.133 -0.4045  0.8315  0.9049
 3020TIP3    H230476   2.467   3.710  16.210  1.1815  1.0615 -1.3874
 3021TIP3   OH230477   0.011   2.073  10.452 -0.6754  0.4277  0.0400
 3021TIP3    H130478   0.097   2.115  10.446 -0.8346  0.6419 -0.7627
 3021TIP3    H230479   0.014   2.026  10.536  1.2027 -1.7604 -1.1214
 3022TIP3   OH230480   4.721   6.387  14.901  0.4647  0.3378  0.1283
 3022TIP3    H130481   4.746   6.411  14.812  0.9595  0.5390  0.3125
 3022TIP3    H230482   4.628   6.368  14.896  0.0007  2.3982 -0.0411
 3023TIP3   OH230483   4.056   5.135  13.864 -0.2649 -0.8142  0.0963
 3023TIP3    H130484   4.041   5.058  13.810  0.7083  0.2855 -1.8731
 3023TIP3    H230485   3.971   5.179  13.868 -0.2079 -0.5517 -1.1852
 3024TIP3   OH230486   3.635   4.053  15.393  0.0604  0.3817 -0.2561
 3024TIP3    H130487   3.544   4.023  15.381 -0.2956  2.0464 -2.3019
 3024TIP3    H230488   3.630   4.115  15.466 -0.1472 -0.6241  0.6037
 3025TIP3   OH230489   3.626   3.637   4.005  0.7618 -0.2548 -0.7475
 3025TIP3    H130490   3.577   3.598   4.077  2.7771 -0.3571  0.6572
 3025TIP3    H230491   3.623   3.572   3.935 -0.0891 -0.7538 -0.2640
 3026TIP3   OH230492   0.397   4.647  15.813  0.2730  0.4167 -0.4161
 3026TIP3    H130493   0.336   4.601  15.755 -0.5733  0.9534  0.0309
 3026TIP3    H230494   0.472   4.588  15.819 -0.9833 -1.2073  0.5493
 3027TIP3   OH230495   3.888   6.547   5.488 -0.1197 -0.1295 -0.0506
 3027TIP3    H130496   3.879   6.641   5.505 -1.8103 -0.2447 -0.1404
 3027TIP3    H230497   3.939   6.514   5.562  0.5724  0.8625 -0.0660
 3028TIP3   OH230498   1.520   1.729  14.901  0.4602  0.7146 -0.1796
 3028TIP3    H130499   1.457   1.759  14.836 -0.9411 -0.9820  0.3259
 3028TIP3    H230500   1.605   1.747  14.861 -0.2645 -1.9994 -3.4379
 3029TIP3   OH230501   3.269   2.407   2.891  0.7612  0.4159 -0.2422
 3029TIP3    H130502   3.179   2.429   2.865  0.4753  0.3674  0.6583
 3029TIP3    H230503   3.312   2.492   2.901  0.4348  0.4990  0.5802
 3030TIP3   OH230504   6.293   0.428   3.553 -0.0128  0.3211 -0.2737
 3030TIP3    H130505   6.336   0.504   3.514 -1.4758 -0.4783 -3.8481
 3030TIP3    H230506   6.199   0.446   3.545 -0.3816 -1.2341  0.0808
 3031TIP3   OH230507   5.430   1.341  16.986  0.1299 -0.1199 -0.8345
 3031TIP3    H130508   5.357   1.307  17.037  1.4705  0.1276  1.3986
 3031TIP3    H230509   5.426   1.436  16.997  0.8280 -0.1105 -0.5957
 3032TIP3   OH230510   2.177   2.511  14.328 -0.0369 -0.8041 -0.0533
 3032TIP3    H130511   2.090   2.506  14.368 -0.5507  0.2504 -0.9884
 3032TIP3    H230512   2.238   2.496  14.401 -0.9295  1.4425  1.2544
 3033TIP3   OH230513   6.297   5.775  12.876  0.2116 -0.2647 -0.3649
 3033TIP3    H130514   6.299   5.721  12.797 -0.3095  2.1040 -2.1048
 3033TIP3    H230515   6.208   5.765  12.910  1.2747 -3.8138  1.9524
 3034TIP3   OH230516   2.506   2.267  13.170  0.2535 -0.5731  0.3783
 3034TIP3    H130517   2.478   2.243  13.082 -0.5805 -2.7675  1.1613
 3034TIP3    H230518   2.424   2.290  13.216  0.4946 -0.8000  0.9368
 3035TIP3   OH230519   5.425   4.210  16.056  0.4202 -0.1038 -0.1010
 3035TIP3    H130520   5.417   4.270  15.982 -2.0948 -0.2856 -0.0787
 3035TIP3    H230521   5.392   4.126  16.022  1.8619 -0.9397  0.4769
 3036TIP3   OH230522   1.856   5.431   3.010 -0.2709 -1.0963  0.3293
 3036TIP3    H130523   1.802   5.420   3.088 -3.2519 -1.6477 -1.6692
 3036TIP3    H230524   1.918   5.500   3.034 -0.8979 -1.3850  3.2241
 3037TIP3   OH230525   4.211   3.974  15.575  0.8138 -0.4287 -0.2956
 3037TIP3    H130526   4.229   4.009  15.488  0.8622 -1.8784 -0.9075
 3037TIP3    H230527   4.117   3.986  15.588  0.7632 -0.4364 -0.6648
 3038TIP3   OH230528   2.407   0.412  14.360  0.1828 -0.3469  0.4051
 3038TIP3    H130529   2.329   0.455  14.395 -0.4609 -0.5240 -0.7494
 3038TIP3    H230530   2.476   0.434  14.422 -0.6956  0.1336  1.2555
 3039TIP3   OH230531   5.605   4.898   2.110  0.2500 -0.2214  0.2243
 3039TIP3    H130532   5.670   4.836   2.144  0.9847  0.1568 -0.4504
 3039TIP3    H230533   5.552   4.845   2.050  0.7324 -0.2544 -0.1782
 3040TIP3   OH230534   4.538   4.507  16.136 -0.9275 -0.4099  0.0635
 3040TIP3    H130535   4.631   4.508  16.159 -1.0748 -0.7608  0.6811
 3040TIP3    H230536   4.527   4.426  16.086 -0.8290 -0.1756 -0.3489
 3041TIP3   OH230537   0.445   6.716   5.671 -0.3491  0.2256 -0.2297
 3041TIP3    H130538   0.349   6.707   5.671 -0.2622 -1.1069  0.9368
 3041TIP3    H230539   0.463   6.781   5.603 -2.1705  1.6731  0.5798
 3042TIP3   OH230540   5.771   5.136   0.703  0.0751 -0.2449 -0.5315
 3042TIP3    H130541   5.687   5.179   0.687 -0.5586 -1.6636 -1.1803
 3042TIP3    H230542   5.806   5.119   0.615  0.3151 -1.0050 -0.2986
 3043TIP3   OH230543   3.009   2.194   4.941 -0.6133  0.6305 -0.3105
 3043TIP3    H130544   2.916   2.204   4.919 -1.3114 -2.4274  0.7817
 3043TIP3    H230545   3.045   2.143   4.868 -0.8172 -1.6862  1.1342
 3044TIP3   OH230546   1.986   2.943   0.851 -0.2674  0.2244  0.1643
 3044TIP3    H130547   2.030   2.985   0.777  0.7192  0.6309  0.9477
 3044TIP3    H230548   2.040   2.966   0.926 -0.3369 -1.5031  0.7921
 3045TIP3   OH230549   5.549   2.969   3.394 -1.0658 -0.5716  0.5040
 3045TIP3    H130550   5.534   2.888   3.345 -1.5837 -0.8338  1.0775
 3045TIP3    H230551   5.464   3.014   3.390 -0.7857 -0.0583  0.2020
 3046TIP3   OH230552   1.714   6.642  12.703  0.0784 -0.5002  0.0256
 3046TIP3    H130553   1.659   6.688  12.766 -0.9517 -1.6707  0.0116
 3046TIP3    H230554   1.797   6.691  12.703  0.3346 -0.7800  2.7180
 3047TIP3   OH230555   4.922   1.768  16.446  0.1358 -0.6125 -0.8046
 3047TIP3    H130556   4.843   1.752  16.497  0.5570 -0.6457 -0.1395
 3047TIP3    H230557   4.899   1.743  16.357 -1.0318  0.6716 -0.8990
 3048TIP3   OH230558   0.023   4.968  13.052  0.5540  0.5615 -0.8849
 3048TIP3    H130559   0.016   5.049  13.104  1.8140 -0.8946  1.7783
 3048TIP3    H230560   0.117   4.951  13.048  0.2651 -1.4244 -0.2614
 3049TIP3   OH230561   3.631   3.103  10.976 -0.8009 -0.0428  0.0768
 3049TIP3    H130562   3.582   3.099  10.894  0.7410 -2.1636 -0.8147
 3049TIP3    H230563   3.717   3.135  10.952 -0.5793  0.1048  1.0134
 3050TIP3   OH230564   2.624   4.597  15.542 -0.0960  0.2915  0.1908
 3050TIP3    H130565   2.545   4.618  15.593 -0.7704  0.0927 -0.7469
 3050TIP3    H230566   2.615   4.648  15.462 -0.3598 -1.3547 -0.8822
 3051TIP3   OH230567   6.499   4.998   3.177  0.1057 -0.2725 -0.3363
 3051TIP3    H130568   6.426   5.001   3.115  1.5107 -0.4220 -2.0745
 3051TIP3    H230569   6.478   4.924   3.234 -1.0745 -0.3332 -0.8098
 3052TIP3   OH230570   0.999   4.658   1.616 -0.3314 -0.6336 -0.0909
 3052TIP3    H130571   1.026   4.746   1.644  2.3614 -1.4076  0.0416
 3052TIP3    H230572   0.927   4.635   1.675  0.6358  0.4893  1.6345
 3053TIP3   OH230573   6.031   6.245   2.327 -0.6759  0.0452  0.1895
 3053TIP3    H130574   6.046   6.177   2.262 -0.2072  1.1450 -0.9073
 3053TIP3    H230575   6.116   6.289   2.335 -1.5548  2.1474 -1.1228
 3054TIP3   OH230576   5.971   3.848   4.312  0.1479 -0.2457 -0.7823
 3054TIP3    H130577   6.061   3.878   4.321  0.5112 -1.4061 -0.2442
 3054TIP3    H230578   5.933   3.903   4.244  0.5100  1.9134  0.6735
 3055TIP3   OH230579   3.391   3.997   2.904  0.0973 -0.1677  0.3987
 3055TIP3    H130580   3.346   4.075   2.870  2.4489  0.2628 -2.0295
 3055TIP3    H230581   3.353   3.925   2.855  0.0215 -0.1853  0.4822
 3056TIP3   OH230582   0.608   2.428   2.232  0.3544  0.1553 -0.2824
 3056TIP3    H130583   0.524   2.450   2.191  0.1284  2.7862  1.3856
 3056TIP3    H230584   0.592   2.438   2.326  2.0055 -1.4365  0.2163
 3057TIP3   OH230585   0.491   3.224   5.836 -0.2631 -0.0164 -0.1125
 3057TIP3    H130586   0.469   3.162   5.766  0.3960 -1.7541  1.1274
 3057TIP3    H230587   0.433   3.198   5.909  0.1793  0.7000  0.5012
 3058TIP3   OH230588   5.476   3.143  13.875  0.0584 -0.3653  0.2414
 3058TIP3    H130589   5.511   3.161  13.788  0.7094 -1.0087  0.3625
 3058TIP3    H230590   5.489   3.049  13.888 -1.1268 -0.5048  0.5636
 3059TIP3   OH230591   3.918   2.094  12.919 -0.2777 -0.3281  0.4322
 3059TIP3    H130592   3.959   2.119  13.002 -0.6535  1.6225  0.0720
 3059TIP3    H230593   3.824   2.095  12.938 -0.3314 -3.6175  0.9357
 3060TIP3   OH230594   4.631   1.384   6.341 -0.6016 -0.4267 -0.2883
 3060TIP3    H130595   4.665   1.473   6.339  0.0669 -0.6626  0.2280
 3060TIP3    H230596   4.601   1.371   6.431  1.6679 -1.5722  0.3632
 3061TIP3   OH230597   1.067   2.717   0.613  0.1540 -0.0387  0.0619
 3061TIP3    H130598   1.022   2.664   0.547 -0.7695  0.3700  0.3406
 3061TIP3    H230599   1.020   2.801   0.612  1.5105  0.7323 -0.2811
 3062TIP3   OH230600   1.800   6.241  15.663  0.0627 -0.3914  0.0016
 3062TIP3    H130601   1.870   6.213  15.604  0.1356  1.1083 -0.6667
 3062TIP3    H230602   1.845   6.272  15.742  0.0656 -0.6441  0.1014
 3063TIP3   OH230603   5.704   0.088   5.088  0.2359  0.1474 -0.1370
 3063TIP3    H130604   5.677   0.152   5.155  2.2675 -0.3906  1.2985
 3063TIP3    H230605   5.659   0.007   5.113 -0.2160  0.3372 -0.3365
 3064TIP3   OH230606   2.747   3.952  11.384 -0.0100 -0.5011 -0.1539
 3064TIP3    H130607   2.777   3.911  11.303 -0.1476 -2.8419  0.8691
 3064TIP3    H230608   2.766   4.045  11.374  0.9435 -0.8933 -2.4150
 3065TIP3   OH230609   5.365   0.256  13.935 -0.1948  0.1552 -0.0347
 3065TIP3    H130610   5.298   0.309  13.976 -0.3636  0.0326 -0.1498
 3065TIP3    H230611   5.440   0.315  13.924 -0.3281  0.3254 -0.0254
 3066TIP3   OH230612   1.939   5.586   2.541  0.5499 -0.1999  0.3237
 3066TIP3    H130613   2.017   5.624   2.582  1.7123 -1.0004 -1.0753
 3066TIP3    H230614   1.915   5.513   2.599  0.8511  0.0294  0.7472
 3067TIP3   OH230615   3.388   0.718   2.166  0.1800 -0.2162  0.8885
 3067TIP3    H130616   3.368   0.692   2.256 -0.1718 -1.1683  0.5456
 3067TIP3    H230617   3.473   0.762   2.172  0.4196 -0.7576  1.6008
 3068TIP3   OH230618   1.177   6.484  10.597 -0.8311 -0.1594 -0.1462
 3068TIP3    H130619   1.091   6.517  10.624 -0.6405 -1.6477  2.5702
 3068TIP3    H230620   1.239   6.549  10.631 -0.7072 -0.9192  1.1054
 3069TIP3   OH230621   3.166   0.792  10.875  0.2014 -0.2642  0.1415
 3069TIP3    H130622   3.166   0.736  10.953 -0.9776  0.1299  0.4326
 3069TIP3    H230623   3.252   0.776  10.835  0.5572 -0.9817  1.1468
 3070TIP3   OH230624   6.206   2.410   1.573 -0.4865 -0.3699 -0.3056
 3070TIP3    H130625   6.175   2.420   1.483  1.2797 -0.4784 -0.9604
 3070TIP3    H230626   6.223   2.500   1.602  2.6779 -0.4338 -1.5282
 3071TIP3   OH230627   4.897   3.323  11.718 -0.1268 -0.2073  0.0503
 3071TIP3    H130628   4.957   3.371  11.660 -0.8250 -2.2913 -2.6142
 3071TIP3    H230629   4.952   3.261  11.764  0.1356 -0.1851 -0.2277
 3072TIP3   OH230630   0.829   6.099   3.872 -0.3079 -0.3567  0.4431
 3072TIP3    H130631   0.745   6.141   3.885 -0.1123 -0.1575  1.0750
 3072TIP3    H230632   0.812   6.006   3.887  0.0223 -0.0957  2.8298
 3073TIP3   OH230633   6.791   3.810  13.315 -0.1590 -0.2805  0.3286
 3073TIP3    H130634   6.786   3.903  13.337 -1.2896  0.1764 -1.6160
 3073TIP3    H230635   6.704   3.776  13.337 -1.2825  0.1591 -2.8945
 3074TIP3   OH230636   4.625   5.978   1.228  0.2552 -0.3141 -0.5959
 3074TIP3    H130637   4.642   5.884   1.220 -1.5174 -0.5965 -1.6879
 3074TIP3    H230638   4.712   6.018   1.232  1.1482 -1.8008 -2.9182
 3075TIP3   OH230639   5.544   6.384  14.757 -0.0257  0.1404 -0.2459
 3075TIP3    H130640   5.580   6.436  14.829  0.5382 -0.5449 -0.0160
 3075TIP3    H230641   5.488   6.319  14.800  1.6586 -1.3951 -0.2209
 3076TIP3   OH230642   5.712   3.730  14.341 -0.1417 -0.3950  0.2548
 3076TIP3    H130643   5.643   3.694  14.397  0.2469 -0.0167  0.9921
 3076TIP3    H230644   5.665   3.769  14.268 -0.7147 -0.1280  0.7523
 3077TIP3   OH230645   6.567   3.445   2.904 -0.6805  0.7818 -0.0435
 3077TIP3    H130646   6.548   3.474   2.815 -1.6123  0.4148  0.0220
 3077TIP3    H230647   6.549   3.522   2.959  0.1852  1.0998 -0.1883
 3078TIP3   OH230648   2.432   0.823   1.359  0.0237 -0.4694 -0.4093
 3078TIP3    H130649   2.360   0.803   1.419 -0.7798  0.2328 -1.1048
 3078TIP3    H230650   2.450   0.741   1.314 -0.9354 -0.4825 -0.8185
 3079TIP3   OH230651   6.059   5.227  16.795  0.7396  0.3496  0.3297
 3079TIP3    H130652   5.987   5.290  16.791 -1.0476 -1.5677  0.5283
 3079TIP3    H230653   6.106   5.239  16.712 -0.7795  0.6026 -0.5327
 3080TIP3   OH230654   6.755   4.489  15.181  0.6441 -0.3946  0.2422
 3080TIP3    H130655   6.666   4.463  15.156  0.8837  0.3665 -1.5988
 3080TIP3    H230656   6.811   4.439  15.121  1.5156 -1.1980  1.6739
 3081TIP3   OH230657   2.637   5.995   3.999 -0.6721  0.0011 -0.1024
 3081TIP3    H130658   2.641   5.932   3.927 -0.4674  1.2211 -1.1834
 3081TIP3    H230659   2.548   6.030   3.995  0.2486  2.3589 -1.8141
 3082TIP3   OH230660   5.282   5.100   4.479  0.4407  0.4183  0.2292
 3082TIP3    H130661   5.260   5.069   4.567  1.3300  0.0614  0.3335
 3082TIP3    H230662   5.302   5.021   4.430 -2.4528  0.3590 -1.0374
 3083TIP3   OH230663   6.026   6.303  15.875 -0.4338  0.2438 -0.1296
 3083TIP3    H130664   5.981   6.377  15.835 -1.6637  1.3384  3.0537
 3083TIP3    H230665   5.956   6.242  15.898  0.2338 -0.3571  0.3465
 3084TIP3   OH230666   5.613   1.258   2.773  0.2875 -0.4254  0.5765
 3084TIP3    H130667   5.677   1.246   2.843  0.9330  0.1483  0.1026
 3084TIP3    H230668   5.666   1.275   2.695 -0.4466  0.2649  0.2124
 3085TIP3   OH230669   0.007   3.602   2.642  0.0760  1.1331 -0.0711
 3085TIP3    H130670  -0.041   3.561   2.714  0.2210  1.5547  0.2690
 3085TIP3    H230671  -0.061   3.627   2.579 -0.1791  1.8747  0.4843
 3086TIP3   OH230672   6.296   0.273   2.025 -0.4567  0.3087 -0.3303
 3086TIP3    H130673   6.262   0.293   1.938 -2.0537  0.3258  0.2663
 3086TIP3    H230674   6.233   0.211   2.062 -0.7973  1.5979  1.4431
 3087TIP3   OH230675   6.160   3.633  12.579 -0.2910  0.0506 -0.4062
 3087TIP3    H130676   6.134   3.687  12.504 -1.8337 -0.1392 -0.0520
 3087TIP3    H230677   6.256   3.630  12.575 -0.3076  0.6274 -1.9486
 3088TIP3   OH230678   3.678   3.779  15.370 -0.2826  0.1765  0.2485
 3088TIP3    H130679   3.750   3.795  15.309  0.1934  0.0271  0.7629
 3088TIP3    H230680   3.673   3.859  15.423  1.4722 -0.9281  2.1862
 3089TIP3   OH230681   3.016   3.250  15.424 -0.0726 -0.3360  0.7362
 3089TIP3    H130682   2.956   3.251  15.498  1.2621  0.1933  1.8454
 3089TIP3    H230683   3.093   3.203  15.455  0.9761  0.8837  0.0871
 3090TIP3   OH230684   6.382   6.472  14.313  0.2095 -0.2886 -0.1426
 3090TIP3    H130685   6.356   6.560  14.286 -0.8648 -0.2598  0.8952
 3090TIP3    H230686   6.320   6.414  14.269 -1.2803 -0.2689  1.7987
 3091TIP3   OH230687   1.114   4.402  10.867  0.1149  0.4023 -0.0723
 3091TIP3    H130688   1.173   4.354  10.809 -0.3190 -0.4084  0.1366
 3091TIP3    H230689   1.166   4.476  10.899  1.2516 -0.6667  0.6433
 3092TIP3   OH230690   1.809   5.191   4.038  0.0002 -0.4516  0.7469
 3092TIP3    H130691   1.840   5.226   4.122  0.1593 -1.1058  0.9732
 3092TIP3    H230692   1.716   5.176   4.051 -0.3158  0.9384  0.2692
 3093TIP3   OH230693   4.189   4.385  13.887  0.2962 -0.0284  0.1108
 3093TIP3    H130694   4.209   4.393  13.980 -0.4924  0.0350  0.2876
 3093TIP3    H230695   4.116   4.323  13.883 -0.3436  0.7313 -0.3668
 3094TIP3   OH230696   0.849   5.529  12.117  0.6191 -0.6275  0.4787
 3094TIP3    H130697   0.796   5.531  12.037  0.2557 -2.3882  0.6421
 3094TIP3    H230698   0.855   5.621  12.144 -0.2413 -0.1330 -0.9156
 3095TIP3   OH230699   4.785   5.361   1.471  0.2736  0.3394  0.4262
 3095TIP3    H130700   4.842   5.380   1.545 -2.1261 -1.3329  2.9195
 3095TIP3    H230701   4.755   5.272   1.486 -0.7190  0.0883 -2.3691
 3096TIP3   OH230702   5.644   5.564   3.371  0.6523 -0.0592 -0.1194
 3096TIP3    H130703   5.610   5.526   3.452  2.0203 -1.9657 -0.3567
 3096TIP3    H230704   5.601   5.514   3.302  2.1390 -0.9333 -0.4537
 3097TIP3   OH230705   0.136   6.573   1.321 -0.2759  0.4254 -0.2112
 3097TIP3    H130706   0.216   6.601   1.276  1.1270 -1.8544  0.6988
 3097TIP3    H230707   0.156   6.580   1.414 -0.2069 -2.2909  0.0720
 3098TIP3   OH230708   5.983   0.197  14.799 -0.2148  0.1706  0.6589
 3098TIP3    H130709   5.968   0.291  14.808 -0.5422  0.1246  0.6140
 3098TIP3    H230710   6.075   0.189  14.775 -0.1466  0.4710  0.8187
 3099TIP3   OH230711   2.394   6.327   2.869  0.4126  0.3142 -0.7403
 3099TIP3    H130712   2.393   6.415   2.907 -1.3313  0.0517 -0.0523
 3099TIP3    H230713   2.486   6.303   2.864  0.8279  1.4062  0.9468
 3100TIP3   OH230714   3.921   3.581   1.755  0.8670  0.1949 -0.2415
 3100TIP3    H130715   3.858   3.624   1.813 -0.3614  0.1847 -1.5158
 3100TIP3    H230716   4.002   3.581   1.805 -0.0620  0.4515  1.3553
 3101TIP3   OH230717   3.737   1.410   3.606 -0.0417  0.1377 -0.6370
 3101TIP3    H130718   3.758   1.496   3.569  0.8697 -0.1614 -0.8407
 3101TIP3    H230719   3.687   1.429   3.685  0.7142  0.8858 -0.3222
 3102TIP3   OH230720   6.223   0.481   3.943  0.8050 -0.0502  0.1864
 3102TIP3    H130721   6.152   0.502   4.004  1.6348 -1.0461  1.5622
 3102TIP3    H230722   6.181   0.426   3.876  0.0130  0.5165  0.1982
 3103TIP3   OH230723   2.712   1.082  14.185  0.6070 -0.2941  0.6333
 3103TIP3    H130724   2.668   1.165  14.202  0.6876 -0.4168  1.4637
 3103TIP3    H230725   2.795   1.087  14.232  2.1756  0.4816 -2.0091
 3104TIP3   OH230726   1.479   0.595   1.079 -0.1926 -0.1632 -0.1640
 3104TIP3    H130727   1.389   0.625   1.086  0.6463  2.2464  2.0097
 3104TIP3    H230728   1.493   0.543   1.158  0.1461 -1.1738 -0.8634
 3105TIP3   OH230729   3.552   2.740  13.713 -0.5416 -0.2016  0.6805
 3105TIP3    H130730   3.509   2.700  13.788  0.9612 -1.9635  0.6959
 3105TIP3    H230731   3.531   2.682  13.640  0.7908 -0.4640  0.4726
 3106TIP3   OH230732   0.462   2.036  14.618 -0.0564 -0.0519 -0.3300
 3106TIP3    H130733   0.463   2.086  14.700 -1.8253  0.5671 -0.6380
 3106TIP3    H230734   0.460   2.103  14.549 -1.5081 -0.5165 -0.7715
 3107TIP3   OH230735   2.348   5.888   4.665  0.1287 -0.4411  0.4117
 3107TIP3    H130736   2.333   5.948   4.738 -0.0967 -0.6646  0.5515
 3107TIP3    H230737   2.392   5.941   4.599 -0.9412  0.1353  0.1510
 3108TIP3   OH230738   5.429   3.158  14.998  0.0966 -0.9874  0.7960
 3108TIP3    H130739   5.522   3.154  14.977 -0.0179  0.8375 -0.2575
 3108TIP3    H230740   5.424   3.131  15.089  1.8614  0.3415  1.3409
 3109TIP3   OH230741   3.835   1.638   4.221  0.1158  0.3487 -0.0572
 3109TIP3    H130742   3.852   1.653   4.315  0.1203 -1.4219  0.2583
 3109TIP3    H230743   3.909   1.585   4.192 -0.5099 -0.1325 -0.7847
 3110TIP3   OH230744   3.171   5.499   3.772  0.0369  0.0615 -0.1275
 3110TIP3    H130745   3.109   5.536   3.709 -1.2921  0.0674  1.1424
 3110TIP3    H230746   3.223   5.437   3.721  0.0357  1.1785 -1.5563
 3111TIP3   OH230747   0.988   2.342   1.722 -0.1089 -0.6797  0.4003
 3111TIP3    H130748   1.016   2.433   1.712 -0.8877 -0.6082 -1.6612
 3111TIP3    H230749   1.057   2.300   1.773  0.1622  1.1037  1.5591
 3112TIP3   OH230750   1.866   5.026   0.030  0.3989  0.3606  0.0052
 3112TIP3    H130751   1.920   5.071  -0.035  1.6924  0.8613  1.3560
 3112TIP3    H230752   1.927   5.004   0.101 -0.6713 -1.4266  0.4479
 3113TIP3   OH230753   0.501   4.126  14.505  0.2228 -0.4190 -0.0919
 3113TIP3    H130754   0.539   4.201  14.550 -0.3904  0.6111 -1.2155
 3113TIP3    H230755   0.536   4.131  14.416 -2.1154  0.3366 -1.0487
 3114TIP3   OH230756   5.110   4.862   0.222  0.0776 -0.5337 -0.5869
 3114TIP3    H130757   5.200   4.893   0.233  0.1053 -0.5703 -0.7093
 3114TIP3    H230758   5.073   4.864   0.310 -0.7332  2.3135 -0.8884
 3115TIP3   OH230759   0.151   2.727  16.245  0.3024  0.3265 -0.8617
 3115TIP3    H130760   0.097   2.694  16.317  0.7176  0.2056 -0.5977
 3115TIP3    H230761   0.240   2.698  16.267  0.2872 -0.6469 -1.9611
 3116TIP3   OH230762   2.319   6.398   4.446 -0.5771 -0.0333  0.0720
 3116TIP3    H130763   2.362   6.315   4.462  1.5196  0.6013 -1.8110
 3116TIP3    H230764   2.367   6.437   4.373 -1.8140  2.6100  0.5429
 3117TIP3   OH230765   4.420   6.134   1.346  0.6804 -0.1802  0.3425
 3117TIP3    H130766   4.440   6.213   1.295  0.4544 -0.0447  0.4663
 3117TIP3    H230767   4.490   6.073   1.322  1.7195  0.5630  1.3611
 3118TIP3   OH230768   2.181   5.718  14.447  0.1864  0.1120 -0.7837
 3118TIP3    H130769   2.215   5.771  14.375  0.0605  1.0409 -0.1757
 3118TIP3    H230770   2.258   5.677  14.485  0.3308  0.1706 -1.0116
 3119TIP3   OH230771   2.675   0.223   5.518  0.5022 -0.1360 -0.0273
 3119TIP3    H130772   2.704   0.157   5.455 -0.4601 -0.2074 -0.4069
 3119TIP3    H230773   2.756   0.260   5.553  1.0487 -0.3023 -1.0860
 3120TIP3   OH230774   5.189   3.887   2.290 -0.2115  0.1369  0.0037
 3120TIP3    H130775   5.276   3.847   2.293 -0.0896  0.3931 -0.1248
 3120TIP3    H230776   5.169   3.908   2.382 -1.0993 -1.9776  0.3672
 3121TIP3   OH230777   3.519   1.564   4.841  0.4928  0.3668 -0.1841
 3121TIP3    H130778   3.595   1.572   4.899 -0.3289  0.3313  0.9325
 3121TIP3    H230779   3.528   1.477   4.802  2.3867  1.3371 -2.0944
 3122TIP3   OH230780   5.534   0.446  14.064 -0.6064  0.4419 -0.3541
 3122TIP3    H130781   5.567   0.526  14.024  2.3556  0.3277  1.5468
 3122TIP3    H230782   5.501   0.473  14.150 -1.9447 -0.0536 -0.6860
 3123TIP3   OH230783   5.542   0.057   5.383 -0.0608  0.4725  0.1213
 3123TIP3    H130784   5.556  -0.008   5.314 -1.0302  1.6521 -1.2526
 3123TIP3    H230785   5.538   0.141   5.336 -0.1486  1.3884  1.6920
 3124TIP3   OH230786   2.616   2.856  14.380 -0.3727  0.4161  0.1240
 3124TIP3    H130787   2.540   2.897  14.339 -0.3958 -1.5288 -1.9115
 3124TIP3    H230788   2.586   2.768  14.403  1.1694 -0.2768 -0.4442
 3125TIP3   OH230789   0.801   3.513  12.126 -0.4347 -0.1232 -0.3810
 3125TIP3    H130790   0.879   3.529  12.073 -1.0311 -0.6856 -1.4738
 3125TIP3    H230791   0.834   3.483  12.210  0.5378 -1.5102 -1.2149
 3126TIP3   OH230792   0.382   3.343  14.309  0.6221  0.4121 -0.3778
 3126TIP3    H130793   0.334   3.282  14.253 -0.7479  2.0107 -1.0318
 3126TIP3    H230794   0.314   3.388  14.359  1.7187  0.1283  1.4708
 3127TIP3   OH230795   4.260   0.342  14.776 -0.1303  0.6638  0.2427
 3127TIP3    H130796   4.207   0.338  14.855  0.1893  0.4980  0.4482
 3127TIP3    H230797   4.267   0.435  14.757 -0.4090  0.6920  0.2707
 3128TIP3   OH230798   0.171   4.361  14.736 -0.3358  0.4478  0.3497
 3128TIP3    H130799   0.257   4.401  14.719  0.0355 -1.0591 -1.5938
 3128TIP3    H230800   0.112   4.403  14.672 -0.9269  0.9758  1.2178
 3129TIP3   OH230801   1.956   0.640  17.085 -0.0219  1.1769  0.0981
 3129TIP3    H130802   1.955   0.631  17.181  2.7743 -0.1341  0.0844
 3129TIP3    H230803   1.908   0.564  17.053 -2.0125  2.2250  0.3789
 3130TIP3   OH230804   5.341   0.755  16.670 -0.0851  0.5556  0.5168
 3130TIP3    H130805   5.300   0.670  16.679  0.6283  0.2035  0.4884
 3130TIP3    H230806   5.416   0.753  16.730 -0.3983  1.3765  0.9614
 3131TIP3   OH230807   6.728   2.229   2.463  0.5349  0.1615  0.3457
 3131TIP3    H130808   6.822   2.217   2.471  0.7429  1.4060  0.0202
 3131TIP3    H230809   6.704   2.278   2.542 -0.0319 -1.0412  0.9490
 3132TIP3   OH230810   4.311   0.670  16.373  0.2550 -0.1627  0.2796
 3132TIP3    H130811   4.325   0.654  16.279  0.0373  1.6279 -0.0928
 3132TIP3    H230812   4.372   0.610  16.417 -1.2937 -2.7327 -0.8974
 3133TIP3   OH230813   0.795   0.598  15.719  0.3300 -0.4775 -0.4537
 3133TIP3    H130814   0.885   0.567  15.718  0.5045  0.0328 -0.7397
 3133TIP3    H230815   0.742   0.518  15.713  0.7521 -0.8058  0.1182
 3134TIP3   OH230816   6.622   2.622   1.215  0.2544  0.1966  0.1007
 3134TIP3    H130817   6.612   2.700   1.161  0.5720  1.0600  1.2556
 3134TIP3    H230818   6.703   2.581   1.183  0.4282  0.6796 -0.0800
 3135TIP3   OH230819   6.183   5.512   6.687  0.1954 -0.1610  0.2986
 3135TIP3    H130820   6.231   5.562   6.754  0.2690  0.6313 -0.3266
 3135TIP3    H230821   6.184   5.422   6.719  2.6780 -0.3139 -0.0151
 3136TIP3   OH230822   3.837   4.441   5.180 -0.8455  0.3757 -0.6021
 3136TIP3    H130823   3.865   4.355   5.212 -0.9950  0.3789 -0.4615
 3136TIP3    H230824   3.776   4.422   5.110 -0.6626  0.3676 -0.7586
 3137TIP3   OH230825   5.224   6.480  14.468 -0.2145  0.3843 -0.1812
 3137TIP3    H130826   5.228   6.571  14.437 -0.8094  0.9862  1.3816
 3137TIP3    H230827   5.256   6.484  14.558  0.6600 -1.1420 -0.3883
 3138TIP3   OH230828   0.525   6.419   5.567  0.1983  0.4184 -0.3926
 3138TIP3    H130829   0.592   6.373   5.516  1.5000  1.0287  0.6782
 3138TIP3    H230830   0.458   6.353   5.585  0.4455 -0.1882 -1.5789
 3139TIP3   OH230831   2.708   5.584   2.556  0.5090 -0.4225  0.7100
 3139TIP3    H130832   2.638   5.520   2.544  0.0590  0.0046  1.0444
 3139TIP3    H230833   2.663   5.667   2.569  1.0544 -0.2384  1.5147
 3140TIP3   OH230834   2.298   4.264   5.035  0.4149 -0.2768  0.0727
 3140TIP3    H130835   2.222   4.239   5.088  2.3040  0.1110  3.1714
 3140TIP3    H230836   2.300   4.359   5.039 -0.2672 -0.0997 -2.1424
 3141TIP3   OH230837   6.441   5.259   5.365 -0.2894 -0.6324 -0.0761
 3141TIP3    H130838   6.468   5.212   5.443 -1.3846 -0.3499  0.4851
 3141TIP3    H230839   6.374   5.320   5.395  1.1565  1.4157 -0.7354
 3142TIP3   OH230840   0.716   3.386   5.818 -0.3250  0.0783  0.2083
 3142TIP3    H130841   0.742   3.367   5.908  2.7074 -1.7085 -0.8653
 3142TIP3    H230842   0.644   3.325   5.800  1.9668 -2.9002  0.2467
 3143TIP3   OH230843   6.095   5.203  12.202  0.0162 -0.5104  0.0762
 3143TIP3    H130844   6.016   5.150  12.192 -0.4120 -0.0633  0.9242
 3143TIP3    H230845   6.067   5.292  12.181  0.6270 -0.5473 -0.9253
 3144TIP3   OH230846   0.868   6.605   3.175 -0.5712  0.3430  0.2540
 3144TIP3    H130847   0.869   6.671   3.244 -1.6838  2.3382 -1.4826
 3144TIP3    H230848   0.850   6.523   3.220 -0.3468  1.4017  2.4090
 3145TIP3   OH230849   0.216   0.509   3.083  0.1864  0.2939 -0.5167
 3145TIP3    H130850   0.193   0.477   2.996 -0.0312  0.4539 -0.5177
 3145TIP3    H230851   0.295   0.459   3.107  0.1309  0.1075 -0.7205
 3146TIP3   OH230852   2.290   5.604   2.541  0.3686 -0.2849  0.1501
 3146TIP3    H130853   2.286   5.573   2.631  2.5985 -0.5184  0.2242
 3146TIP3    H230854   2.306   5.526   2.489  1.2726  0.1075 -0.1852
 3147TIP3   OH230855   1.500   2.851  15.695 -0.2237 -0.1874 -0.0616
 3147TIP3    H130856   1.407   2.856  15.672 -0.3951  1.9553  0.9042
 3147TIP3    H230857   1.501   2.859  15.791  1.0047  1.2067 -0.1601
 3148TIP3   OH230858   5.083   2.594   3.886 -0.3957  0.8701 -0.9191
 3148TIP3    H130859   4.999   2.629   3.857 -0.2280 -0.0973 -2.7135
 3148TIP3    H230860   5.110   2.536   3.815  2.1028  1.6488 -0.6894
 3149TIP3   OH230861   5.401   5.287   2.637 -0.6031 -0.1698 -0.3609
 3149TIP3    H130862   5.368   5.377   2.644 -1.3035 -0.3248 -1.4267
 3149TIP3    H230863   5.419   5.276   2.543  0.7978 -0.6949 -0.0596
 3150TIP3   OH230864   1.610   3.257   4.817  0.3591  0.2060  0.2625
 3150TIP3    H130865   1.620   3.164   4.794 -0.8554  0.3068 -0.7720
 3150TIP3    H230866   1.680   3.301   4.769 -0.2572  0.0369 -0.8268
 3151TIP3   OH230867   6.708   3.541  17.097 -0.1899  0.2567 -0.4301
 3151TIP3    H130868   6.734   3.529  17.189  2.1103 -1.3975 -1.1933
 3151TIP3    H230869   6.614   3.557  17.101 -0.3549 -0.7606  2.1557
 3152TIP3   OH230870   5.835   3.277  15.076  0.2763 -0.3463  0.5166
 3152TIP3    H130871   5.927   3.285  15.100  0.1815  1.3925  0.4202
 3152TIP3    H230872   5.831   3.302  14.984 -0.5084  1.4880  0.9987
 3153TIP3   OH230873   0.606   3.483  14.328  0.4741 -0.4714  0.1462
 3153TIP3    H130874   0.686   3.443  14.294 -0.1119 -0.6922 -1.0285
 3153TIP3    H230875   0.537   3.421  14.304  0.1241 -1.1988  2.7424
 3154TIP3   OH230876   6.009   2.253   0.063 -0.8717 -0.6390 -0.7079
 3154TIP3    H130877   6.033   2.271  -0.028 -2.2406 -1.2423 -1.2195
 3154TIP3    H230878   6.044   2.166   0.080  0.7354  0.0892 -0.1221
 3155TIP3   OH230879   6.474   2.633   0.371  0.2113 -0.2874  0.3261
 3155TIP3    H130880   6.552   2.585   0.397  0.1486  0.3481  1.7553
 3155TIP3    H230881   6.458   2.604   0.281  1.3089 -1.4269  0.4596
 3156TIP3   OH230882   6.255   4.765  14.582 -0.2742 -0.2799 -0.1599
 3156TIP3    H130883   6.263   4.845  14.530  1.1320 -0.2767  0.0254
 3156TIP3    H230884   6.254   4.794  14.673 -1.0025 -0.3990 -0.1252
 3157TIP3   OH230885   1.526   0.776  14.507  0.1764 -0.1687 -0.1423
 3157TIP3    H130886   1.487   0.855  14.471  1.0982 -0.2668 -1.4321
 3157TIP3    H230887   1.575   0.738  14.434 -1.2132 -2.5847  0.0757
 3158TIP3   OH230888   2.092   1.852  12.533 -0.3410  0.0248  0.0046
 3158TIP3    H130889   2.142   1.776  12.503  0.1935 -0.2056  1.3738
 3158TIP3    H230890   2.003   1.819  12.546  0.1605 -0.7458  1.8137
 3159TIP3   OH230891   1.180   6.307  13.289  0.0661  0.3938 -0.4660
 3159TIP3    H130892   1.247   6.239  13.299 -0.0919  0.5055  1.5993
 3159TIP3    H230893   1.179   6.325  13.195  0.3451 -2.2174 -1.0527
 3160TIP3   OH230894   1.114   0.709   1.572  1.0077 -0.1127 -0.0825
 3160TIP3    H130895   1.024   0.692   1.600  0.7954 -0.4997 -0.9610
 3160TIP3    H230896   1.111   0.795   1.531  0.4544 -1.1699 -2.4280
 3161TIP3   OH230897   4.482   5.064   0.043 -0.3385  0.4913 -0.3439
 3161TIP3    H130898   4.524   5.085  -0.041  0.4541  0.7267  0.0905
 3161TIP3    H230899   4.523   4.982   0.071  0.2991  1.0371  0.3765
 3162TIP3   OH230900   0.181   2.374   5.675  0.3052  0.0354  0.6985
 3162TIP3    H130901   0.115   2.336   5.616  1.5165  1.9952 -2.1690
 3162TIP3    H230902   0.156   2.466   5.683  1.6507  0.3978  1.0163
 3163TIP3   OH230903   5.637   2.403  11.871 -0.2310  0.2003 -0.1807
 3163TIP3    H130904   5.668   2.325  11.827  1.9636  0.9478 -0.0857
 3163TIP3    H230905   5.705   2.469  11.855 -1.8368  2.0203 -0.0012
 3164TIP3   OH230906   2.576   5.007  16.517  0.5464 -0.1473  0.4056
 3164TIP3    H130907   2.537   5.012  16.430 -1.3514  0.3058  1.2432
 3164TIP3    H230908   2.616   5.093  16.530 -0.3117  0.2488  0.4799
 3165TIP3   OH230909   0.803   4.579   2.300  0.3313 -0.1386  0.2321
 3165TIP3    H130910   0.754   4.552   2.378 -0.1515  0.0396 -0.0012
 3165TIP3    H230911   0.886   4.532   2.306  0.4519  0.1755  1.0464
 3166TIP3   OH230912   2.959   1.531   2.345  0.1520 -0.2238  0.1257
 3166TIP3    H130913   3.051   1.531   2.319 -0.2381 -1.7491 -1.4040
 3166TIP3    H230914   2.926   1.444   2.321 -1.6781  0.2463  0.7216
 3167TIP3   OH230915   5.011   0.836  13.972 -0.0134  0.4898 -0.6987
 3167TIP3    H130916   4.954   0.782  13.917 -1.4323  0.6595  0.5384
 3167TIP3    H230917   5.018   0.919  13.924 -2.1905  1.0595 -0.1344
 3168TIP3   OH230918   0.475   5.289   4.387 -0.3572 -0.2695  0.6333
 3168TIP3    H130919   0.569   5.298   4.400 -0.4999  2.3542  0.4564
 3168TIP3    H230920   0.436   5.364   4.433 -2.1881 -0.2844 -0.7287
 3169TIP3   OH230921   2.365   2.743  13.535  0.2361 -0.1108  0.0952
 3169TIP3    H130922   2.378   2.696  13.617 -0.1672 -0.6046 -0.1249
 3169TIP3    H230923   2.283   2.790  13.547  0.3605  0.1076  0.1068
 3170TIP3   OH230924   4.115   3.448  16.341  0.4273  0.9667  0.3146
 3170TIP3    H130925   4.038   3.392  16.333  0.2179  1.3375 -0.3589
 3170TIP3    H230926   4.153   3.449  16.254  1.7050  0.0966  0.8221
 3171TIP3   OH230927   6.566   6.404   4.427  0.0570  0.6814 -0.4481
 3171TIP3    H130928   6.478   6.383   4.398  0.4156 -0.3783 -0.7911
 3171TIP3    H230929   6.605   6.451   4.354 -0.2959  1.3938 -0.1928
 3172TIP3   OH230930   2.212   2.182   1.608 -0.0263  0.0636 -0.5634
 3172TIP3    H130931   2.274   2.123   1.651  1.0140  1.3944 -0.1813
 3172TIP3    H230932   2.174   2.130   1.538  0.7854 -1.0902 -0.1741
 3173TIP3   OH230933   1.242   3.710  11.829  0.0684 -1.0855  0.5496
 3173TIP3    H130934   1.271   3.628  11.790  2.0762  0.5367 -1.5939
 3173TIP3    H230935   1.171   3.740  11.773 -0.2540 -1.0216  0.9801
 3174TIP3   OH230936   1.581   5.382  13.362  0.2805  0.6883 -0.2530
 3174TIP3    H130937   1.609   5.380  13.271  0.1714 -1.2033 -0.2844
 3174TIP3    H230938   1.662   5.379  13.413  0.2957  0.4734 -0.2915
 3175TIP3   OH230939   4.742   6.553  11.604  0.5189  0.9169 -0.0944
 3175TIP3    H130940   4.691   6.529  11.527  0.6404 -0.0923  0.1223
 3175TIP3    H230941   4.831   6.567  11.571  0.3940  1.3308 -0.2617
 3176TIP3   OH230942   4.957   6.431   5.433 -0.2202 -0.0866  0.3671
 3176TIP3    H130943   5.025   6.497   5.446  0.1980 -0.7144  1.6297
 3176TIP3    H230944   4.971   6.368   5.505 -2.5637  0.1304  1.1087
 3177TIP3   OH230945   3.833   5.121   1.257 -0.2833 -0.2509  0.8261
 3177TIP3    H130946   3.835   5.045   1.315 -0.6695  0.2054  1.4483
 3177TIP3    H230947   3.811   5.195   1.314  1.6062  0.6050  0.5205
 3178TIP3   OH230948   5.662   0.939   4.144 -0.0407  0.3291  0.2596
 3178TIP3    H130949   5.706   1.009   4.192 -0.3074 -0.1882  1.2703
 3178TIP3    H230950   5.576   0.976   4.122  0.3626  0.8384 -0.5097
 3179TIP3   OH230951   6.332   6.211  10.710 -0.7920  0.3941  0.3211
 3179TIP3    H130952   6.275   6.244  10.641 -0.3296  1.0158  0.2293
 3179TIP3    H230953   6.398   6.279  10.721 -0.0837 -0.3051  0.4469
 3180TIP3   OH230954   2.556   6.463  11.910 -0.3084 -0.0417  0.4503
 3180TIP3    H130955   2.497   6.451  11.984 -1.4584  2.0100 -0.0416
 3180TIP3    H230956   2.556   6.558  11.895  0.3799 -0.3346 -1.7774
 3181TIP3   OH230957   3.139   2.364   3.503  0.2797  0.7129  0.1340
 3181TIP3    H130958   3.209   2.360   3.568  1.4707  0.2895 -1.1169
 3181TIP3    H230959   3.175   2.420   3.434 -0.0030 -0.7048 -1.2052
 3182TIP3   OH230960   1.796   2.940   0.420  0.0496  0.6790 -0.0583
 3182TIP3    H130961   1.761   3.005   0.480 -2.6203  1.0991 -1.9035
 3182TIP3    H230962   1.847   2.991   0.357 -0.6582  0.8142 -0.5373
 3183TIP3   OH230963   3.965   0.167   0.517  0.2693  0.7062  0.1393
 3183TIP3    H130964   3.902   0.221   0.564 -0.3710  0.1377 -0.0534
 3183TIP3    H230965   4.041   0.224   0.504  0.1919  1.0846  1.2570
 3184TIP3   OH230966   2.196   5.123  11.767 -0.0103 -0.1157  0.4490
 3184TIP3    H130967   2.247   5.184  11.714 -1.6987  0.6784 -0.3282
 3184TIP3    H230968   2.148   5.179  11.828  0.9924 -0.9374  2.0782
 3185TIP3   OH230969   3.421   3.342  16.141 -0.2783  0.3033 -0.3331
 3185TIP3    H130970   3.350   3.296  16.095 -0.0317 -1.0002  0.5372
 3185TIP3    H230971   3.379   3.381  16.217 -0.2095  0.1851 -0.2348
 3186TIP3   OH230972   1.970   6.426   3.341  0.2235  0.9717  0.3952
 3186TIP3    H130973   2.053   6.474   3.346  0.3873  0.8649 -1.0315
 3186TIP3    H230974   1.908   6.480   3.390  0.0932  3.3913 -2.1943
 3187TIP3   OH230975   5.313   4.925  15.269  0.2148 -0.0219  0.3511
 3187TIP3    H130976   5.272   4.976  15.199 -0.0481 -0.6428  0.0389
 3187TIP3    H230977   5.400   4.963  15.279 -0.1553  0.8086  0.4783
 3188TIP3   OH230978   0.938   6.445   5.787 -0.0333 -0.1438 -0.5142
 3188TIP3    H130979   0.936   6.394   5.706 -0.1534  0.3337 -0.8169
 3188TIP3    H230980   0.849   6.480   5.796  0.3201  0.8990 -0.8949
 3189TIP3   OH230981   3.806   4.423  15.371 -0.3078  1.2948  0.3496
 3189TIP3    H130982   3.866   4.440  15.298 -1.7042  2.2073 -0.6475
 3189TIP3    H230983   3.724   4.398  15.329 -1.0911  1.6604  1.6069
 3190TIP3   OH230984   2.779   3.870   4.655 -0.0934 -0.3781 -0.1162
 3190TIP3    H130985   2.825   3.854   4.737  0.2796 -0.8243 -0.4101
 3190TIP3    H230986   2.788   3.965   4.641  1.0242 -0.5035 -0.3338
 3191TIP3   OH230987   0.622   2.317  15.115  0.4897 -0.7314  0.4970
 3191TIP3    H130988   0.599   2.395  15.065 -1.3527 -1.7779 -0.4012
 3191TIP3    H230989   0.718   2.318  15.118  0.5302  1.3206  0.1840
 3192TIP3   OH230990   6.350   3.889  16.588 -0.7769 -0.6488  0.4955
 3192TIP3    H130991   6.263   3.864  16.618 -0.6477 -1.3171  0.3407
 3192TIP3    H230992   6.398   3.806  16.582  0.2885 -0.1658  1.8675
 3193TIP3   OH230993   3.940   3.148   2.747 -0.5235 -0.6307 -0.6654
 3193TIP3    H130994   3.935   3.054   2.729  0.1898 -0.7282 -0.3943
 3193TIP3    H230995   3.870   3.187   2.695  0.1332 -1.1397 -1.9712
 3194TIP3   OH230996   1.528   2.014   3.937  0.1709  0.2593  0.0481
 3194TIP3    H130997   1.600   2.077   3.931  0.8465 -0.3896  1.0234
 3194TIP3    H230998   1.544   1.967   4.019 -1.5975  0.3597  0.4882
 3195TIP3   OH230999   4.000   0.659   0.561 -0.0023  0.6842 -0.0078
 3195TIP3    H131000   3.925   0.693   0.609 -1.5072 -0.4259 -1.4484
 3195TIP3    H231001   3.998   0.706   0.478  1.2303  1.0152  0.1359
 3196TIP3   OH231002   3.190   5.381   5.493  0.9916  0.3203 -0.4357
 3196TIP3    H131003   3.151   5.296   5.512 -2.0514  1.9067  1.0085
 3196TIP3    H231004   3.221   5.414   5.577  0.1159  1.5422 -0.5617
 3197TIP3   OH231005   1.730   3.593   0.918 -0.3624  0.3234 -0.1821
 3197TIP3    H131006   1.819   3.582   0.885 -0.5269 -0.4585 -0.3901
 3197TIP3    H231007   1.724   3.532   0.991 -1.1797 -0.7083 -1.0888
 3198TIP3   OH231008   4.140   3.570   1.909 -0.1173  0.0083 -0.1528
 3198TIP3    H131009   4.128   3.551   2.002  2.7669 -2.1728 -0.0597
 3198TIP3    H231010   4.191   3.651   1.907 -1.9647  1.2329 -0.0037
 3199TIP3   OH231011   4.181   5.234   2.004 -0.5403 -0.4022 -0.1159
 3199TIP3    H131012   4.275   5.215   2.013 -0.4050  0.4574  0.3676
 3199TIP3    H231013   4.138   5.167   2.057 -0.0524  0.8256  1.9185
 3200TIP3   OH231014   6.529   2.787   3.677  0.1476  0.1498  0.2071
 3200TIP3    H131015   6.451   2.731   3.684  1.7725 -2.2393  0.6923
 3200TIP3    H231016   6.511   2.861   3.735 -0.0686 -2.5796  4.0395
 3201TIP3   OH231017   2.319   0.871  16.402 -0.0916  0.5208 -0.2636
 3201TIP3    H131018   2.388   0.897  16.341  0.9668  1.6239  1.3312
 3201TIP3    H231019   2.342   0.781  16.426  1.4189  1.1876  0.9820
 3202TIP3   OH231020   1.645   2.498  14.233 -0.0740 -0.6388  0.1065
 3202TIP3    H131021   1.556   2.533  14.231  0.7909  1.8200 -0.0892
 3202TIP3    H231022   1.647   2.439  14.308 -1.7660 -0.4597  0.3251
 3203TIP3   OH231023   6.192   2.124   1.618  0.8809 -0.9799  0.0648
 3203TIP3    H131024   6.277   2.104   1.657  1.6060  0.5554 -0.6552
 3203TIP3    H231025   6.188   2.219   1.614  0.3532 -1.0315 -2.4971
 3204TIP3   OH231026   0.016   3.130  11.946 -0.7689  0.5792  0.0853
 3204TIP3    H131027   0.020   3.047  11.897 -1.2995  0.0526  0.9054
 3204TIP3    H231028   0.108   3.149  11.967 -0.6914 -0.2630  0.6044
 3205TIP3   OH231029   2.877   1.521  13.843  0.5035 -0.5241  0.0934
 3205TIP3    H131030   2.902   1.597  13.791 -0.5219  0.2684  0.7339
 3205TIP3    H231031   2.913   1.539  13.930  0.5797 -0.9518  0.1516
 3206TIP3   OH231032   1.013   3.642  11.090  0.1643  0.7908 -0.3496
 3206TIP3    H131033   1.003   3.678  11.002  1.4318  0.4661 -0.6546
 3206TIP3    H231034   0.924   3.628  11.121 -0.3369  2.6071 -0.8687
 3207TIP3   OH231035   5.314   0.146  11.737 -0.0088 -0.4623 -0.2053
 3207TIP3    H131036   5.364   0.198  11.674 -0.3985 -0.6135 -0.6466
 3207TIP3    H231037   5.267   0.082  11.683 -0.6649 -0.3313  0.1986
 3208TIP3   OH231038   1.702   4.841   1.672  0.1679 -0.3804  0.2989
 3208TIP3    H131039   1.632   4.901   1.697 -0.8049 -0.8889 -1.1198
 3208TIP3    H231040   1.782   4.892   1.685 -0.6276  1.2857 -0.9285
 3209TIP3   OH231041   1.977   5.776   2.747 -0.2022 -0.1503  0.5655
 3209TIP3    H131042   1.884   5.755   2.757 -0.5798  1.8437  1.8528
 3209TIP3    H231043   2.017   5.751   2.830  0.4419 -0.9289  0.0463
 3210TIP3   OH231044   6.728   2.138  14.620 -0.2797  0.1366  0.1947
 3210TIP3    H131045   6.650   2.190  14.597 -0.1541 -0.0789 -0.7802
 3210TIP3    H231046   6.714   2.112  14.711 -1.0866  0.5623  0.2029
 3211TIP3   OH231047   4.934   2.886   2.297 -0.0074  0.0988  0.1578
 3211TIP3    H131048   4.876   2.962   2.289 -0.7565 -0.6121 -1.7859
 3211TIP3    H231049   4.968   2.891   2.386 -1.3610  1.7559  0.6325
 3212TIP3   OH231050   4.286   5.353   2.438 -0.2248 -0.2548 -0.6205
 3212TIP3    H131051   4.220   5.409   2.479  0.9295  2.4557 -2.2269
 3212TIP3    H231052   4.368   5.400   2.448  0.9477 -1.9845 -1.5197
 3213TIP3   OH231053   6.674   3.090  13.145 -0.4036 -0.1150  0.7633
 3213TIP3    H131054   6.648   3.112  13.056 -0.7915  1.9094  1.3338
 3213TIP3    H231055   6.756   3.042  13.135  0.2752  1.2671 -0.6599
 3214TIP3   OH231056   4.108   4.991  13.077  0.4486  0.1804 -0.5214
 3214TIP3    H131057   4.144   4.905  13.057  1.2266 -0.0734  1.6962
 3214TIP3    H231058   4.053   4.977  13.153  1.6920  1.8199  0.7666
 3215TIP3   OH231059   6.692   3.009   1.900 -0.2842  0.2474  0.2483
 3215TIP3    H131060   6.697   2.918   1.928 -0.8425 -0.1287 -0.8309
 3215TIP3    H231061   6.598   3.029   1.899 -0.3814 -0.0407 -2.1369
 3216TIP3   OH231062   2.267   3.496   3.299  0.3121  0.2280 -0.0671
 3216TIP3    H131063   2.186   3.533   3.333  0.0461  1.0461 -1.5102
 3216TIP3    H231064   2.279   3.539   3.214  2.2853  0.1778  0.1377
 3217TIP3   OH231065   2.180   3.744   1.650 -0.1686  0.7397  0.1176
 3217TIP3    H131066   2.237   3.771   1.578 -0.0263  0.3640  0.0876
 3217TIP3    H231067   2.092   3.755   1.617 -0.1108 -0.9130 -0.6889
 3218TIP3   OH231068   1.408   2.992  13.337 -0.4263 -0.5383  0.2744
 3218TIP3    H131069   1.502   2.990  13.356 -0.4766 -2.6241  0.5083
 3218TIP3    H231070   1.403   3.015  13.244  0.2663  0.1276  0.3891
 3219TIP3   OH231071   2.276   1.271  12.913 -0.1841 -0.5295 -0.4676
 3219TIP3    H131072   2.295   1.362  12.892 -0.0584 -0.0422  1.5639
 3219TIP3    H231073   2.336   1.249  12.984 -1.2899 -1.6864  0.1688
 3220TIP3   OH231074   3.149   5.384   2.650  0.2407  0.2321 -0.7290
 3220TIP3    H131075   3.095   5.460   2.672 -1.2504 -1.3296  1.3817
 3220TIP3    H231076   3.231   5.398   2.697 -1.1871 -0.8276  2.3357
 3221TIP3   OH231077   4.415   1.657  17.018  0.5453 -0.1062  0.2061
 3221TIP3    H131078   4.463   1.574  17.014  0.7181  0.0378 -1.0627
 3221TIP3    H231079   4.344   1.647  16.954  0.7332  0.8247 -0.1609
 3222TIP3   OH231080   1.850   3.639   2.098  0.2762 -0.0354  0.1162
 3222TIP3    H131081   1.830   3.554   2.136 -1.5681  0.5749  0.6186
 3222TIP3    H231082   1.946   3.642   2.095  0.3875 -1.9648  0.3919
 3223TIP3   OH231083   4.233   5.200   2.909 -0.0747  0.2140 -0.2112
 3223TIP3    H131084   4.249   5.267   2.976  0.5150  0.5662 -0.6940
 3223TIP3    H231085   4.317   5.191   2.863  0.0300 -1.3081  0.2341
 3224TIP3   OH231086   6.540   1.343  15.336  0.2021  0.3220 -0.1689
 3224TIP3    H131087   6.618   1.287  15.337 -0.2512 -0.5000 -3.0833
 3224TIP3    H231088   6.471   1.289  15.373  0.6311  0.5150  0.9735
 3225TIP3   OH231089   3.261   5.724   0.381  0.3078 -0.1368 -0.1301
 3225TIP3    H131090   3.303   5.708   0.465  0.5771  0.0408 -0.2270
 3225TIP3    H231091   3.192   5.659   0.375 -1.0178  1.0820  1.1165
 3226TIP3   OH231092   3.818   1.050  14.310  0.1913 -0.5076 -0.9319
 3226TIP3    H131093   3.871   1.044  14.389 -0.0815 -0.9170 -0.7714
 3226TIP3    H231094   3.865   0.998  14.245 -0.7574 -2.1787 -0.3515
 3227TIP3   OH231095   0.416   0.408  14.977 -0.5202  0.2432 -0.0525
 3227TIP3    H131096   0.422   0.502  14.993 -1.1629  0.1980  0.4951
 3227TIP3    H231097   0.438   0.368  15.061 -1.8626 -0.0500  0.1748
 3228TIP3   OH231098   2.112   0.592   2.062  0.0741  0.2632  0.1049
 3228TIP3    H131099   2.093   0.518   2.004  0.7500 -0.1887  0.4504
 3228TIP3    H231100   2.166   0.651   2.010  0.5009 -0.0401  0.2002
 3229TIP3   OH231101   3.182   5.480  13.611 -0.2265 -0.0074 -0.1229
 3229TIP3    H131102   3.203   5.487  13.518 -3.6912  0.0489 -1.0188
 3229TIP3    H231103   3.187   5.569  13.643 -0.8177  0.2471 -0.7172
 3230TIP3   OH231104   2.824   5.375  17.177  0.1069 -0.2385 -0.3127
 3230TIP3    H131105   2.767   5.305  17.143  1.3277 -1.0056 -0.8177
 3230TIP3    H231106   2.913   5.343  17.163  0.6796  0.9189  0.5290
 3231TIP3   OH231107   0.208   1.820   4.294  0.3963  0.0332  0.3030
 3231TIP3    H131108   0.286   1.855   4.252  0.1489 -0.9307 -1.0352
 3231TIP3    H231109   0.183   1.746   4.239 -0.9969 -0.1677  1.1648
 3232TIP3   OH231110   5.142   0.244  11.913 -0.7665 -0.5665  0.7126
 3232TIP3    H131111   5.117   0.161  11.954  0.1091 -1.7107 -0.9600
 3232TIP3    H231112   5.178   0.219  11.828  0.9576  1.4208  0.7808
 3233TIP3   OH231113   5.769   4.591  14.974  0.2447 -0.2825 -0.4855
 3233TIP3    H131114   5.835   4.651  15.010  0.0472 -0.0423 -0.5193
 3233TIP3    H231115   5.803   4.504  14.993  0.5945 -0.1606 -0.5432
 3234TIP3   OH231116   2.947   2.645  12.306  0.0967  0.0859  0.0415
 3234TIP3    H131117   2.913   2.614  12.222  0.4046 -1.6283  0.5116
 3234TIP3    H231118   3.029   2.596  12.318 -0.0633  0.1263  1.4412
 3235TIP3   OH231119   0.902   4.080   0.850 -0.0556 -0.7003  0.3054
 3235TIP3    H131120   0.956   4.014   0.893 -1.3182 -2.1282 -0.1957
 3235TIP3    H231121   0.941   4.089   0.763  0.3012 -0.5797  0.4794
 3236TIP3   OH231122   4.286   2.507   6.571  0.0118 -0.8010  0.7493
 3236TIP3    H131123   4.267   2.546   6.656 -4.0418  0.6014 -0.5529
 3236TIP3    H231124   4.364   2.553   6.540  0.8586 -0.5058  3.1288
 3237TIP3   OH231125   5.211   2.131  16.410 -0.0384  0.4119  0.1538
 3237TIP3    H131126   5.259   2.190  16.469 -0.2692 -2.2645  3.3367
 3237TIP3    H231127   5.120   2.135  16.441 -0.0853 -1.4181  0.3465
 3238TIP3   OH231128   3.594   4.819   1.232 -0.5671  0.4525  0.3566
 3238TIP3    H131129   3.594   4.886   1.163  4.1061  1.0545  0.6282
 3238TIP3    H231130   3.568   4.739   1.187  2.0854  0.8644 -2.2290
 3239TIP3   OH231131   2.429   5.212  14.217  0.0464 -0.3487  0.5461
 3239TIP3    H131132   2.400   5.136  14.166  1.6634 -0.8794  0.3633
 3239TIP3    H231133   2.518   5.190  14.244  0.5709  1.5082  0.4487
 3240TIP3   OH231134   5.047   5.411  13.141 -0.4818  0.1856 -0.3319
 3240TIP3    H131135   5.069   5.364  13.061 -1.1606  2.0534 -1.7122
 3240TIP3    H231136   5.012   5.495  13.110 -1.7592  0.5682  1.8993
 3241TIP3   OH231137   3.792   4.808   0.147  0.3409  0.3922 -0.3079
 3241TIP3    H131138   3.762   4.725   0.110  2.8841  0.5336 -2.9981
 3241TIP3    H231139   3.711   4.857   0.165 -1.1542 -1.8684 -0.4899
 3242TIP3   OH231140   6.512   4.562  16.221  0.1068  0.0392 -0.2817
 3242TIP3    H131141   6.594   4.513  16.217 -0.0403 -0.5444  2.1388
 3242TIP3    H231142   6.538   4.649  16.252 -0.2419 -0.6316  2.1555
 3243TIP3   OH231143   3.633   4.632  15.482 -0.0835  1.1504 -0.5581
 3243TIP3    H131144   3.686   4.564  15.441 -0.4219 -0.2895  1.2143
 3243TIP3    H231145   3.544   4.617  15.449 -0.4978 -0.4732  1.0998
 3244TIP3   OH231146   3.383   2.703  10.618  0.1073 -0.1676 -0.7604
 3244TIP3    H131147   3.368   2.754  10.538 -0.2873  1.6567  0.4173
 3244TIP3    H231148   3.298   2.701  10.662  0.1215 -1.8741 -0.7524
 3245TIP3   OH231149   2.688   4.810  13.828 -0.0529  0.2512  0.0589
 3245TIP3    H131150   2.621   4.872  13.799  1.3385  1.5389 -0.5533
 3245TIP3    H231151   2.770   4.860  13.825  0.7891 -0.8877  1.9865
 3246TIP3   OH231152   1.165   6.251  12.716  0.1811 -0.0754 -0.1287
 3246TIP3    H131153   1.195   6.177  12.662  0.5746  0.5704 -0.8191
 3246TIP3    H231154   1.072   6.259  12.696 -0.3543 -1.6400  1.4801
 3247TIP3   OH231155   2.907   3.293   3.845  0.2492  0.0256 -0.0717
 3247TIP3    H131156   2.860   3.342   3.777 -1.1026 -0.1419  0.7159
 3247TIP3    H231157   2.866   3.206   3.844  0.7432 -0.2169  0.4408
 3248TIP3   OH231158   1.094   4.911   0.063 -0.2598 -0.7032  0.4619
 3248TIP3    H131159   1.017   4.937   0.113  1.0371  0.8133  1.7732
 3248TIP3    H231160   1.062   4.897  -0.025 -2.2232 -1.2216  1.2070
 3249TIP3   OH231161   2.638   5.695  14.172  0.1316  0.2382 -0.7119
 3249TIP3    H131162   2.603   5.732  14.091 -0.3507  1.9693  0.2375
 3249TIP3    H231163   2.717   5.649  14.145  0.0240  0.8397 -2.1497
 3250TIP3   OH231164   1.830   0.885  10.479  0.6594 -0.3622  0.3309
 3250TIP3    H131165   1.763   0.898  10.546  1.2845  1.9590  0.5948
 3250TIP3    H231166   1.826   0.792  10.459 -1.8045 -0.5083  1.1915
 3251TIP3   OH231167   0.919   5.642   3.919 -0.0336 -0.5390 -0.7093
 3251TIP3    H131168   0.859   5.569   3.904 -0.2464 -0.2441 -1.3496
 3251TIP3    H231169   0.966   5.619   3.998 -1.0618 -0.7353 -0.1309
 3252TIP3   OH231170   6.613   4.868  13.393  0.4117 -0.1995  0.1822
 3252TIP3    H131171   6.536   4.875  13.336  0.1103  0.0499  0.6139
 3252TIP3    H231172   6.688   4.878  13.334  0.1784 -2.4275 -0.5662
 3253TIP3   OH231173   5.461   2.683   3.442 -0.0209  0.2174 -0.4104
 3253TIP3    H131174   5.551   2.654   3.453  0.6215  1.1405 -2.6443
 3253TIP3    H231175   5.408   2.614   3.482  1.6414 -0.4580  0.7089
 3254TIP3   OH231176   3.345   3.192  15.259  0.2422  0.3740  0.2440
 3254TIP3    H131177   3.321   3.163  15.347  1.7543 -0.1972  0.5042
 3254TIP3    H231178   3.328   3.286  15.259 -1.3337  0.1151  0.5863
 3255TIP3   OH231179   6.095   4.418  13.487 -0.0537  0.5557  0.1849
 3255TIP3    H131180   6.187   4.424  13.462 -0.2579 -0.0713 -0.7521
 3255TIP3    H231181   6.060   4.347  13.434 -1.1797  1.0453  0.2489
 3256TIP3   OH231182   2.994   2.999   1.119 -0.2850 -0.0636 -0.2967
 3256TIP3    H131183   2.963   2.918   1.079  1.0942  0.4072 -2.5231
 3256TIP3    H231184   2.920   3.031   1.170 -1.4419 -1.8231 -0.7884
 3257TIP3   OH231185   2.857   1.984  16.351  0.2421  0.3445 -0.3858
 3257TIP3    H131186   2.813   1.912  16.397  2.3078 -1.4815 -1.1025
 3257TIP3    H231187   2.800   2.003  16.276  0.8408 -2.4620 -1.7064
 3258TIP3   OH231188   4.268   2.812   5.106 -0.0221  0.6978  0.3910
 3258TIP3    H131189   4.236   2.901   5.088  0.6936  0.8916  0.0165
 3258TIP3    H231190   4.196   2.755   5.081 -0.2426  1.1438 -0.0085
 3259TIP3   OH231191   0.069   2.587  14.304 -0.6060  0.0546  0.1300
 3259TIP3    H131192   0.067   2.538  14.223  0.9598  0.2650 -0.0737
 3259TIP3    H231193   0.063   2.521  14.373 -0.6066 -0.2395 -0.1526
 3260TIP3   OH231194   0.781   4.021   4.162  0.2437  0.0525 -0.7061
 3260TIP3    H131195   0.787   3.934   4.201 -1.6077 -0.7730 -2.1311
 3260TIP3    H231196   0.720   4.069   4.218  0.6016  0.1751 -0.4124
 3261TIP3   OH231197   0.029   2.983  11.423 -0.0934 -0.3371 -0.1326
 3261TIP3    H131198  -0.061   3.010  11.438  0.4240  1.2701  0.3172
 3261TIP3    H231199   0.073   3.062  11.390  0.8812 -1.4049 -1.4918
 3262TIP3   OH231200   4.022   3.777   3.205 -0.3488  0.5074 -0.1113
 3262TIP3    H131201   3.993   3.772   3.296  1.0011  1.8508  0.4448
 3262TIP3    H231202   4.108   3.735   3.205  0.2988  1.7681 -0.4202
 3263TIP3   OH231203   6.250   4.067   2.990  0.0363  0.5129  0.6253
 3263TIP3    H131204   6.339   4.101   2.988 -0.0632  0.8103 -1.7116
 3263TIP3    H231205   6.204   4.122   3.054  0.7024  2.6795 -0.6490
 3264TIP3   OH231206   6.212   0.644   0.815 -0.0997  0.1515 -0.1616
 3264TIP3    H131207   6.149   0.610   0.878 -0.5074  2.1477  0.5877
 3264TIP3    H231208   6.186   0.735   0.802  2.8936  1.2253  0.5284
 3265TIP3   OH231209   3.256   0.894   1.068 -0.3464 -0.1735  0.0489
 3265TIP3    H131210   3.266   0.874   1.161  0.0205 -0.9181 -0.1492
 3265TIP3    H231211   3.243   0.809   1.026  0.9360  0.0126 -0.7681
 3266TIP3   OH231212   2.029   3.015  16.824 -0.5921  0.5852  0.0900
 3266TIP3    H131213   2.006   3.071  16.898  0.7182  0.3698  0.6936
 3266TIP3    H231214   2.106   2.967  16.854 -0.4404 -0.0045 -1.1837
 3267TIP3   OH231215   1.622   4.689   1.430  0.2755 -0.1605  0.4313
 3267TIP3    H131216   1.662   4.775   1.444 -0.9395  0.6255 -0.6469
 3267TIP3    H231217   1.529   4.708   1.414 -0.0814 -1.7090  0.4895
 3268TIP3   OH231218   6.106   6.032  14.979  0.0596  0.0734  0.3299
 3268TIP3    H131219   6.048   5.999  14.910  0.0131 -0.3716  0.5763
 3268TIP3    H231220   6.071   6.119  14.999  0.1064  0.2289 -0.2398
 3269TIP3   OH231221   3.415   2.138  14.718  0.0903 -0.0141 -0.1224
 3269TIP3    H131222   3.505   2.139  14.686 -0.3970 -1.7989 -1.7586
 3269TIP3    H231223   3.363   2.170  14.644 -0.8022 -1.2394 -0.0532
 3270TIP3   OH231224   3.941   4.907  13.280 -0.5078 -0.1722  0.2136
 3270TIP3    H131225   3.881   4.834  13.263 -1.6257  0.6549  0.4768
 3270TIP3    H231226   3.884   4.984  13.283  0.8931  1.1038 -2.5605
 3271TIP3   OH231227   6.257   1.271   3.787  0.1424  0.8857  0.4993
 3271TIP3    H131228   6.248   1.278   3.692  0.9319  0.8748  0.4162
 3271TIP3    H231229   6.267   1.178   3.804 -0.1893  0.8709  0.6110
 3272TIP3   OH231230   6.609   4.981   5.896 -0.1110 -0.4396 -0.4807
 3272TIP3    H131231   6.687   5.033   5.879 -0.5981 -0.0434 -1.6421
 3272TIP3    H231232   6.560   5.030   5.961 -0.1621  0.1434 -0.9485
 3273TIP3   OH231233   4.364   2.156   1.525 -0.0523  0.8457 -0.0058
 3273TIP3    H131234   4.366   2.170   1.620 -1.1655 -1.2256  0.3779
 3273TIP3    H231235   4.289   2.099   1.511  0.2896  0.8527 -2.1163
 3274TIP3   OH231236   1.464   5.114  13.836  0.3217  0.0461 -0.1490
 3274TIP3    H131237   1.411   5.035  13.846  1.2101 -0.7631 -1.4833
 3274TIP3    H231238   1.454   5.160  13.919 -0.4905 -1.2963  0.5410
 3275TIP3   OH231239   0.304   4.945   2.329  0.1663  0.1040 -0.0616
 3275TIP3    H131240   0.314   4.969   2.237 -0.3315  0.5971  0.0057
 3275TIP3    H231241   0.230   4.999   2.360  0.1095 -0.3066  0.5338
 3276TIP3   OH231242   4.018   3.987   4.802  0.6330  0.1385 -0.7293
 3276TIP3    H131243   3.977   4.068   4.772 -0.0023 -0.8654 -2.7110
 3276TIP3    H231244   4.108   3.992   4.769  0.8025  0.3144 -0.2588
 3277TIP3   OH231245   1.990   4.824   2.226  0.1706  0.4094 -0.8245
 3277TIP3    H131246   1.996   4.729   2.225 -0.6057  0.3510 -1.7015
 3277TIP3    H231247   1.981   4.849   2.134  1.8716  1.4610 -0.7455
 3278TIP3   OH231248   5.225   1.797  16.859 -0.0237 -0.2839 -0.3465
 3278TIP3    H131249   5.268   1.805  16.774 -2.9606  1.2334 -1.8378
 3278TIP3    H231250   5.256   1.872  16.909  0.1715 -0.0297 -0.8481
 3279TIP3   OH231251   0.251   4.135  12.410  0.2736 -0.2224  0.0469
 3279TIP3    H131252   0.169   4.122  12.458  1.5289 -0.3467  2.2985
 3279TIP3    H231253   0.265   4.052  12.365 -1.3216  0.1559 -1.2306
 3280TIP3   OH231254   3.986   0.616  16.161  0.1294  0.2440  0.5596
 3280TIP3    H131255   4.000   0.564  16.240 -0.0393 -0.6028  0.0487
 3280TIP3    H231256   4.032   0.568  16.092 -0.7363  0.3075 -0.0872
 3281TIP3   OH231257   4.570   5.365  15.369 -0.2006  0.2535  0.2544
 3281TIP3    H131258   4.643   5.417  15.402  0.6962 -0.4048 -0.6145
 3281TIP3    H231259   4.493   5.398  15.416 -0.0282  3.5914 -1.4934
 3282TIP3   OH231260   2.508   5.500   3.823  0.1239 -0.4030  0.7435
 3282TIP3    H131261   2.597   5.493   3.858  0.0086 -1.4565  0.8693
 3282TIP3    H231262   2.509   5.448   3.743 -0.1666  0.2715  0.2959
 3283TIP3   OH231263   5.741   5.634   2.356 -0.1425 -0.9678  0.3000
 3283TIP3    H131264   5.743   5.724   2.325  0.9191 -1.1081 -0.0828
 3283TIP3    H231265   5.739   5.641   2.452 -2.3826 -0.5420  0.2834
 3284TIP3   OH231266   2.066   6.129   0.394  0.0277  0.0349 -0.4601
 3284TIP3    H131267   2.136   6.181   0.433  0.8916 -1.0812 -0.4775
 3284TIP3    H231268   2.011   6.193   0.348 -0.4770  1.2871  1.7228
 3285TIP3   OH231269   2.151   2.968   1.066  0.4884 -0.5778 -0.0224
 3285TIP3    H131270   2.098   2.954   1.145 -0.5703 -2.0601 -0.9540
 3285TIP3    H231271   2.194   2.885   1.051  0.0400 -0.5788 -1.4547
 3286TIP3   OH231272   0.877   3.521   1.630 -0.0143  0.1878  0.4127
 3286TIP3    H131273   0.832   3.565   1.558  1.4251 -0.4169 -0.8992
 3286TIP3    H231274   0.832   3.553   1.709 -2.4633 -0.0660 -0.7701
 3287TIP3   OH231275   3.752   4.268  13.644 -0.3047 -0.0810  0.1328
 3287TIP3    H131276   3.669   4.256  13.598 -1.3394  0.4449  1.7529
 3287TIP3    H231277   3.804   4.324  13.587 -1.9679  1.4803  0.0566
 3288TIP3   OH231278   4.071   6.639  15.274 -0.1313 -0.3026 -0.5544
 3288TIP3    H131279   4.066   6.581  15.351  0.5611 -0.6067 -0.7281
 3288TIP3    H231280   3.980   6.657  15.252 -0.3484 -0.7432 -0.0558
 3289TIP3   OH231281   2.707   1.738   2.521 -0.5310  0.0524  0.5500
 3289TIP3    H131282   2.613   1.746   2.504 -0.1523  0.9172 -1.3405
 3289TIP3    H231283   2.728   1.647   2.498 -0.5622  0.4251 -1.0936
 3290TIP3   OH231284   0.505   0.989   5.416 -0.2192  0.3434 -0.0626
 3290TIP3    H131285   0.531   0.978   5.325 -0.5634  0.6840 -0.2041
 3290TIP3    H231286   0.580   1.031   5.458  0.3532 -0.7586  0.0517
 3291TIP3   OH231287   4.965   2.585  13.516 -0.0445 -0.1345  0.5142
 3291TIP3    H131288   4.996   2.506  13.472 -1.1134  0.3472 -1.2146
 3291TIP3    H231289   5.040   2.615  13.568  1.1522 -0.9682 -0.6744
 3292TIP3   OH231290   6.072   0.813   5.765  0.3480  0.8890  0.2714
 3292TIP3    H131291   6.091   0.888   5.708 -0.3051  0.7452 -0.1566
 3292TIP3    H231292   6.124   0.742   5.728  1.5452  1.2974  1.1245
 3293TIP3   OH231293   1.435   5.689  15.914  0.3003  0.1352 -0.0060
 3293TIP3    H131294   1.499   5.646  15.971  0.9636 -0.3796 -1.1117
 3293TIP3    H231295   1.351   5.651  15.940  0.8069 -1.4851 -0.5950
 3294TIP3   OH231296   4.675   4.832   2.312 -0.0747 -0.4376  0.0578
 3294TIP3    H131297   4.741   4.854   2.246  2.3565 -1.8590  1.8445
 3294TIP3    H231298   4.604   4.894   2.297  1.3882  0.8051 -2.3491
 3295TIP3   OH231299   4.233   3.150   2.914  0.2227 -0.0233 -0.1536
 3295TIP3    H131300   4.151   3.136   2.866 -0.0043 -0.5020  0.3525
 3295TIP3    H231301   4.301   3.150   2.847 -0.1380 -0.1938 -0.5216
 3296TIP3   OH231302   6.367   3.943   6.094  0.6173 -0.3903 -0.1638
 3296TIP3    H131303   6.365   3.852   6.066 -0.2378 -0.2077 -0.7579
 3296TIP3    H231304   6.298   3.949   6.160 -1.2720  0.3648 -2.0421
 3297TIP3   OH231305   2.792   5.884   3.455 -0.0394  0.7250 -0.0535
 3297TIP3    H131306   2.709   5.932   3.447  0.1624  1.2024  0.6958
 3297TIP3    H231307   2.765   5.792   3.463 -0.6023  1.0055  1.8089
 3298TIP3   OH231308   1.426   4.379   2.293  0.0511 -0.2420  0.3920
 3298TIP3    H131309   1.372   4.322   2.239 -1.4177  0.4196  1.0777
 3298TIP3    H231310   1.514   4.341   2.289  0.1381 -0.0066 -2.7361
 3299TIP3   OH231311   0.031   0.697   6.288  0.2032  0.0204 -0.1757
 3299TIP3    H131312  -0.015   0.633   6.234 -1.2421  2.0510 -1.4924
 3299TIP3    H231313   0.095   0.736   6.229 -1.3460  2.2262 -0.4952
 3300TIP3   OH231314   2.524   1.600  16.514  0.5772 -0.1059 -0.2423
 3300TIP3    H131315   2.454   1.620  16.576  0.2531 -2.3713  0.1899
 3300TIP3    H231316   2.480   1.589  16.430  0.4066 -1.3991  0.0046
 3301TIP3   OH231317   3.632   0.675  16.648 -0.3972  0.2476  0.0199
 3301TIP3    H131318   3.634   0.717  16.561  4.4636  1.4069  0.4384
 3301TIP3    H231319   3.581   0.736  16.702  3.1776  4.0387 -0.3438
 3302TIP3   OH231320   3.464   4.414  11.857 -0.5842  0.5025  0.1288
 3302TIP3    H131321   3.456   4.358  11.934  1.0335 -1.7788 -1.2136
 3302TIP3    H231322   3.544   4.384  11.814 -1.0569  2.1299 -2.0911
 3303TIP3   OH231323   1.775   4.120  14.481 -0.3036  0.1494  0.4141
 3303TIP3    H131324   1.856   4.145  14.526  1.7258 -1.5601 -1.9724
 3303TIP3    H231325   1.759   4.193  14.421  0.3544 -0.1430 -0.1339
 3304TIP3   OH231326   6.228   1.541   5.429  0.1672 -0.3700 -0.2183
 3304TIP3    H131327   6.145   1.500   5.403  0.1108 -0.4945  0.1495
 3304TIP3    H231328   6.227   1.538   5.525  1.5881 -2.3598 -0.2127
 3305TIP3   OH231329   2.288   6.784  14.948  0.7574  0.1594 -0.1915
 3305TIP3    H131330   2.351   6.847  14.914  0.6285  0.3780 -0.0258
 3305TIP3    H231331   2.297   6.708  14.890 -1.6615  1.6284 -2.7459
 3306TIP3   OH231332   5.502   3.902  11.904  0.8510 -0.1339  0.1666
 3306TIP3    H131333   5.479   3.905  11.996  2.8902  0.3577  0.7143
 3306TIP3    H231334   5.533   3.813  11.889  1.1586 -0.0214  0.1283
 3307TIP3   OH231335   6.176   4.292  16.519 -1.1150  0.3564 -0.1831
 3307TIP3    H131336   6.236   4.315  16.448 -0.7876 -0.5507 -0.2155
 3307TIP3    H231337   6.233   4.277  16.594 -1.3376 -0.0688 -0.0986
 3308TIP3   OH231338   6.547   3.130  11.384 -0.9842  0.0748  0.0585
 3308TIP3    H131339   6.458   3.101  11.361 -1.7812  2.9422 -0.9045
 3308TIP3    H231340   6.576   3.181  11.309  1.1813 -0.0850  0.7220
 3309TIP3   OH231341   6.525   5.171   5.669  0.4476 -0.0931  0.0625
 3309TIP3    H131342   6.442   5.178   5.717 -0.6759 -0.7098 -1.6757
 3309TIP3    H231343   6.566   5.091   5.702 -0.5906 -0.8320 -0.3761
 3310TIP3   OH231344   1.045   4.096   4.147 -0.3792 -0.3196  0.0701
 3310TIP3    H131345   0.962   4.048   4.140 -0.7016  0.2848 -0.3214
 3310TIP3    H231346   1.102   4.037   4.196 -0.4374 -1.5412 -1.2546
 3311TIP3   OH231347   3.196   6.636  14.040 -0.6847  0.2802  0.1366
 3311TIP3    H131348   3.237   6.556  14.071 -1.8564 -0.0668  0.8454
 3311TIP3    H231349   3.243   6.658  13.960  0.8537 -0.1030  0.9103
 3312TIP3   OH231350   1.472   2.284  11.967 -0.1403  0.0991  0.2091
 3312TIP3    H131351   1.478   2.235  12.049 -0.1988 -0.1744  0.0498
 3312TIP3    H231352   1.401   2.241  11.919  1.2440 -1.0425 -0.8756
 3313TIP3   OH231353   1.609   0.898  11.939 -0.1179 -0.4945  0.5624
 3313TIP3    H131354   1.612   0.807  11.969  2.4864  0.0074  2.0779
 3313TIP3    H231355   1.646   0.895  11.851 -2.2179 -1.1326 -0.3835
 3314TIP3   OH231356   5.721   3.461   2.042  0.3901 -0.0713  0.0584
 3314TIP3    H131357   5.726   3.455   2.138 -0.9242 -0.3821  0.1278
 3314TIP3    H231358   5.780   3.392   2.011  0.0518 -0.6499  0.6688
 3315TIP3   OH231359   4.811   5.010   3.016 -0.1775 -0.4154 -0.0296
 3315TIP3    H131360   4.870   4.937   3.036 -0.9957 -0.6536  1.6576
 3315TIP3    H231361   4.740   4.969   2.966 -0.5725 -0.7529  0.8048
 3316TIP3   OH231362   3.583   2.654   5.312 -0.4480 -0.5165 -0.5236
 3316TIP3    H131363   3.522   2.641   5.384  1.5228  0.5983  1.4376
 3316TIP3    H231364   3.534   2.707   5.249 -1.9692 -0.9167  0.2653
 3317TIP3   OH231365   4.990   2.058  15.339  0.2373  0.0459  0.7139
 3317TIP3    H131366   5.046   2.010  15.278  1.0378  1.6814  0.0864
 3317TIP3    H231367   4.936   1.991  15.380  0.5380 -1.2488 -0.8959
 3318TIP3   OH231368   1.694   3.703  12.308 -0.4674 -0.3690 -0.4126
 3318TIP3    H131369   1.725   3.755  12.382  0.4112 -0.2039 -0.8831
 3318TIP3    H231370   1.637   3.637  12.348 -0.2223 -0.1194  0.3800
 3319TIP3   OH231371   0.274   5.464  11.666 -0.0723  0.4677  0.1558
 3319TIP3    H131372   0.295   5.373  11.685  1.7623  0.6187 -0.9432
 3319TIP3    H231373   0.203   5.485  11.727 -0.4317 -1.6287  0.5285
 3320TIP3   OH231374   1.399   5.042   5.359 -0.3218 -0.1107 -0.1318
 3320TIP3    H131375   1.458   4.973   5.389  0.5130  1.8921  3.4205
 3320TIP3    H231376   1.454   5.100   5.307 -0.7342 -1.3504 -2.0504
 3321TIP3   OH231377   0.948   6.292  17.201  0.5000 -0.7905 -0.3638
 3321TIP3    H131378   0.956   6.274  17.107  1.4177  1.3757 -0.7449
 3321TIP3    H231379   0.906   6.377  17.206 -0.1372 -1.1637  1.2416
 3322TIP3   OH231380   0.947   6.370  11.961  0.2125 -0.1375 -0.1258
 3322TIP3    H131381   0.980   6.305  11.899 -0.3695  1.1397 -1.8790
 3322TIP3    H231382   0.851   6.365  11.953  0.1084 -0.2591  1.0272
 3323TIP3   OH231383   0.554   1.170   2.768  0.2919 -0.2650  0.9098
 3323TIP3    H131384   0.511   1.148   2.851 -0.8632  1.7477  0.9026
 3323TIP3    H231385   0.586   1.259   2.780 -0.4753  0.3240 -0.9931
 3324TIP3   OH231386   0.889   5.147   3.955 -0.2004  0.4180 -0.1396
 3324TIP3    H131387   0.856   5.188   4.035 -0.6449 -1.3017  0.6194
 3324TIP3    H231388   0.984   5.148   3.965 -0.2756 -1.8796  1.6095
 3325TIP3   OH231389   2.730   2.785  11.345  0.1218 -0.0505 -0.4279
 3325TIP3    H131390   2.765   2.701  11.375 -1.8766 -0.5067  0.8050
 3325TIP3    H231391   2.667   2.762  11.277 -3.0948 -0.0514  2.2617
 3326TIP3   OH231392   1.828   6.263  13.833  0.4328 -0.5798 -0.0035
 3326TIP3    H131393   1.833   6.336  13.895 -0.9849  0.2344 -0.7876
 3326TIP3    H231394   1.790   6.302  13.754  0.2904 -2.0396 -0.6763
 3327TIP3   OH231395   1.848   3.779  11.257  0.1199  0.3933 -0.3647
 3327TIP3    H131396   1.930   3.730  11.265 -0.6766 -1.0510 -0.7166
 3327TIP3    H231397   1.863   3.839  11.184  0.8564  0.1354 -0.4302
 3328TIP3   OH231398   2.905   2.781   2.839 -0.2484  0.1432  0.2673
 3328TIP3    H131399   2.905   2.805   2.746 -0.8415 -2.6546 -0.5742
 3328TIP3    H231400   2.823   2.733   2.851 -0.0716  0.2603  2.1840
 3329TIP3   OH231401   3.390   4.925   3.538  0.2852  0.1319  0.2219
 3329TIP3    H131402   3.353   4.943   3.624  0.7363 -1.9685  0.9208
 3329TIP3    H231403   3.392   5.010   3.494  1.8228  1.6821  2.9789
 3330TIP3   OH231404   1.281   5.371   4.352  0.4268  0.4547  0.0515
 3330TIP3    H131405   1.346   5.439   4.370 -1.0869  2.3073 -1.0536
 3330TIP3    H231406   1.204   5.397   4.402  0.2210 -1.2588  0.7061
 3331TIP3   OH231407   6.249   2.985  13.461 -0.0567  0.3802 -0.3026
 3331TIP3    H131408   6.170   3.037  13.445 -0.6925  0.4816  2.7012
 3331TIP3    H231409   6.310   3.046  13.502  1.2638  0.0255 -1.6352
 3332TIP3   OH231410   1.507   4.307   5.024  0.7692 -0.5563 -0.2473
 3332TIP3    H131411   1.578   4.354   5.068 -0.2246  1.5155 -0.7084
 3332TIP3    H231412   1.550   4.258   4.954  1.9433 -0.9846  0.7268
 3333TIP3   OH231413   1.430   0.781   4.102 -0.3388 -1.1205  0.6253
 3333TIP3    H131414   1.486   0.821   4.169 -0.2329  0.8931 -0.5725
 3333TIP3    H231415   1.341   0.808   4.125 -0.2175  0.3229 -0.4677
 3334TIP3   OH231416   6.242   1.215   0.104  0.6000 -0.6214 -0.7426
 3334TIP3    H131417   6.228   1.152   0.174 -1.0429 -1.4973 -1.7649
 3334TIP3    H231418   6.155   1.254   0.089  1.0650  0.0851 -1.7544
 3335TIP3   OH231419   4.947   2.913   2.581  0.0054 -0.2539  0.0372
 3335TIP3    H131420   4.889   2.860   2.635 -1.3779  0.8428 -0.3108
 3335TIP3    H231421   5.035   2.890   2.610 -0.5510 -2.3251  0.2451
 3336TIP3   OH231422   5.163   1.418  14.008  0.0766  0.3063 -0.0668
 3336TIP3    H131423   5.138   1.445  14.097  0.1295 -0.2239  0.1147
 3336TIP3    H231424   5.215   1.338  14.022 -1.6473 -0.9834 -0.6863
 3337TIP3   OH231425   4.197   4.185  10.613  0.0045  0.5100 -0.5487
 3337TIP3    H131426   4.251   4.253  10.572 -0.1727 -0.2021 -2.0396
 3337TIP3    H231427   4.160   4.137  10.539  0.0508 -1.1476  0.4763
 3338TIP3   OH231428   4.290   0.016  12.999  0.1465 -0.8242 -0.1420
 3338TIP3    H131429   4.304  -0.063  12.946 -0.8077  0.0232 -1.7229
 3338TIP3    H231430   4.377   0.038  13.032  0.6975 -1.6072 -1.0338
 3339TIP3   OH231431   1.546   2.163  15.278 -0.0257  0.2087  0.4644
 3339TIP3    H131432   1.615   2.099  15.262  0.5673  0.7438  0.8609
 3339TIP3    H231433   1.585   2.227  15.338 -0.3065  1.4383 -0.6146
 3340TIP3   OH231434   1.571   0.942   4.291 -0.1195 -0.2784  0.4479
 3340TIP3    H131435   1.490   0.924   4.338 -0.4590 -0.0563 -0.0508
 3340TIP3    H231436   1.586   1.036   4.302 -0.9895  0.0696 -1.1102
 3341TIP3   OH231437   0.700   4.129   0.325  0.6166  0.3585 -0.1527
 3341TIP3    H131438   0.738   4.214   0.304  1.5517  0.2806  1.1073
 3341TIP3    H231439   0.608   4.148   0.345  0.4034  0.8082 -1.4565
 3342TIP3   OH231440   6.267   5.331   2.192 -0.6579  0.4075 -0.0658
 3342TIP3    H131441   6.348   5.383   2.198 -0.9888  0.8000  1.4658
 3342TIP3    H231442   6.274   5.269   2.264 -0.2769 -1.7433 -1.8566
 3343TIP3   OH231443   2.622   0.227   1.158 -0.0460  0.5694  0.1754
 3343TIP3    H131444   2.550   0.171   1.185 -0.2681  0.2689 -0.9989
 3343TIP3    H231445   2.690   0.167   1.128  0.9696  0.8190  1.8273
 3344TIP3   OH231446   0.393   6.167  17.009 -0.0232  0.2812  0.8078
 3344TIP3    H131447   0.345   6.192  16.930  0.8050 -0.3276  0.0949
 3344TIP3    H231448   0.356   6.081  17.032 -0.4550  0.5786  1.2571
 3345TIP3   OH231449   2.469   5.169  15.355 -0.1229 -0.0770  0.6434
 3345TIP3    H131450   2.500   5.206  15.437  1.4624  2.1371 -0.8355
 3345TIP3    H231451   2.421   5.240  15.313  1.8900  0.0368 -1.7139
 3346TIP3   OH231452   0.828   4.754   4.693  0.3836 -0.1505  0.1496
 3346TIP3    H131453   0.865   4.703   4.765  0.1258 -0.6602 -0.0793
 3346TIP3    H231454   0.823   4.693   4.619  0.4972  0.3239 -0.2577
 3347TIP3   OH231455   2.170   3.484  15.508 -0.6225 -0.1652  0.2885
 3347TIP3    H131456   2.179   3.435  15.427 -1.4095 -0.7859  0.5576
 3347TIP3    H231457   2.169   3.576  15.481  0.3939 -0.3018 -0.2678
 3348TIP3   OH231458   4.725   6.306  13.984  0.3094  0.6454  0.2596
 3348TIP3    H131459   4.764   6.369  13.924  0.3672  0.4694  0.1106
 3348TIP3    H231460   4.689   6.359  14.055  0.2796  0.8501  0.0910
 3349TIP3   OH231461   5.552   0.344  13.459  0.3653  0.5644 -0.0814
 3349TIP3    H131462   5.643   0.366  13.441 -0.1164  1.3317 -1.7497
 3349TIP3    H231463   5.502   0.391  13.393 -1.1378 -1.0283 -0.1576
 3350TIP3   OH231464   2.729   6.616   1.595  0.0906  0.3267 -0.0671
 3350TIP3    H131465   2.699   6.689   1.540 -3.1371 -0.0157  1.0331
 3350TIP3    H231466   2.678   6.541   1.565  2.2274 -1.1892 -0.1339
 3351TIP3   OH231467   5.693   5.959   0.292  0.3775 -0.4331  0.0712
 3351TIP3    H131468   5.753   5.885   0.285 -1.4442 -2.2350  2.0243
 3351TIP3    H231469   5.621   5.938   0.233  1.1526  1.3008 -1.6104
 3352TIP3   OH231470   5.610   5.204   1.390 -0.1461  0.0281  0.5380
 3352TIP3    H131471   5.633   5.273   1.328 -0.9961 -0.8443 -0.7808
 3352TIP3    H231472   5.523   5.228   1.422 -0.5496 -0.5407 -0.1098
 3353TIP3   OH231473   1.900   4.210  10.916 -0.2707 -0.9259 -0.0800
 3353TIP3    H131474   1.881   4.280  10.854  0.6734 -0.4882  0.1088
 3353TIP3    H231475   1.814   4.175  10.939 -1.0008  1.4603  1.3015
 3354TIP3   OH231476   2.237   6.457  12.902 -0.0625  0.5783  0.0639
 3354TIP3    H131477   2.254   6.545  12.870  0.9617  0.5098  0.3826
 3354TIP3    H231478   2.146   6.458  12.930 -0.5321  1.0810 -1.3903
 3355TIP3   OH231479   6.271   2.570  16.317 -0.3404  0.1019  0.4335
 3355TIP3    H131480   6.297   2.643  16.261 -1.7447  0.7739  0.6272
 3355TIP3    H231481   6.214   2.609  16.383  1.2326 -0.6822  2.3507
 3356TIP3   OH231482   2.519   4.436   0.322 -0.2299 -0.6761  0.1783
 3356TIP3    H131483   2.560   4.514   0.287  0.4334 -0.8340  0.5727
 3356TIP3    H231484   2.539   4.367   0.258 -0.7705 -0.5374 -0.1434
 3357TIP3   OH231485   4.246   5.773   1.612 -0.5705 -0.2729  0.6768
 3357TIP3    H131486   4.258   5.695   1.667 -1.4984 -1.5850 -0.8836
 3357TIP3    H231487   4.320   5.770   1.551 -1.1885 -0.5536 -0.0714
 3358TIP3   OH231488   4.595   4.567   1.640 -0.3203  0.0185  0.1175
 3358TIP3    H131489   4.595   4.506   1.567  0.1539  0.4499 -0.2544
 3358TIP3    H231490   4.538   4.639   1.613  0.1281  0.3438  0.0218
 3359TIP3   OH231491   6.170   6.398   5.539  0.7366 -0.0151  0.5431
 3359TIP3    H131492   6.177   6.305   5.561  1.2595  0.0220  0.5406
 3359TIP3    H231493   6.142   6.399   5.448 -1.7888 -0.1765  1.2322
 3360TIP3   OH231494   2.076   3.108   1.773 -0.2740 -0.6296  0.3519
 3360TIP3    H131495   2.162   3.125   1.810 -0.2890 -1.7342  0.9427
 3360TIP3    H231496   2.017   3.166   1.822  0.1371  0.2046 -0.1295
 3361TIP3   OH231497   3.123   2.543   0.300 -0.4464  0.0107  0.3297
 3361TIP3    H131498   3.183   2.618   0.300 -0.3355 -0.0759  0.4122
 3361TIP3    H231499   3.124   2.512   0.210 -1.0537  0.5475  0.1346
 3362TIP3   OH231500   4.862   0.259  11.818 -0.1092 -0.1081 -0.1762
 3362TIP3    H131501   4.938   0.242  11.873 -1.4410 -1.6096  1.3002
 3362TIP3    H231502   4.894   0.250  11.729  1.6591  0.3647  0.3771
 3363TIP3   OH231503   0.022   3.046   0.250  0.2719 -0.4624 -0.0465
 3363TIP3    H131504   0.001   3.139   0.251  0.7527 -0.3407 -0.8382
 3363TIP3    H231505  -0.013   3.014   0.167  0.1872 -0.9685  0.1821
 3364TIP3   OH231506   1.611   4.514  12.802 -0.3013 -0.3243 -0.0341
 3364TIP3    H131507   1.587   4.527  12.894 -1.3969 -1.0043 -0.1998
 3364TIP3    H231508   1.624   4.420  12.794  0.8364 -0.1494 -0.3535
 3365TIP3   OH231509   4.041   6.585  10.762 -0.8167  0.4110 -0.0696
 3365TIP3    H131510   4.076   6.642  10.693  0.8341 -0.0646  0.3404
 3365TIP3    H231511   3.999   6.514  10.714  0.3098  0.0897 -0.6177
 3366TIP3   OH231512   4.710   2.233  11.945  0.3778 -0.3285 -0.2402
 3366TIP3    H131513   4.711   2.305  12.007 -0.1629 -0.5369  0.0185
 3366TIP3    H231514   4.630   2.247  11.894  0.0320 -0.9849  0.1057
 3367TIP3   OH231515   4.199   3.616   2.514  0.0595  0.1227  0.3126
 3367TIP3    H131516   4.202   3.528   2.552 -0.7941 -0.3916 -0.7545
 3367TIP3    H231517   4.218   3.603   2.422  0.7502  1.1817  0.2817
 3368TIP3   OH231518   0.063   0.446   2.867  0.2924  0.1646  0.6036
 3368TIP3    H131519   0.122   0.405   2.804 -0.5255 -0.3584  0.1677
 3368TIP3    H231520   0.045   0.533   2.830 -0.7459 -0.3961 -0.2779
 3369TIP3   OH231521   6.061   2.143  12.036  0.0014  0.6476 -0.0793
 3369TIP3    H131522   6.114   2.128  11.957 -0.5160  1.7880 -0.6764
 3369TIP3    H231523   6.037   2.056  12.066  0.6013  0.1772 -0.9208
 3370TIP3   OH231524   5.414   0.612  10.505  0.1805 -0.4088  0.5287
 3370TIP3    H131525   5.327   0.651  10.508 -0.3477 -1.3053 -1.5357
 3370TIP3    H231526   5.454   0.647  10.426  0.1768 -2.9211 -0.6805
 3371TIP3   OH231527   6.570   6.456  11.976  0.6819 -0.1384 -0.0414
 3371TIP3    H131528   6.588   6.405  11.897  2.8630 -1.8898  1.4647
 3371TIP3    H231529   6.544   6.390  12.041 -0.6016  1.2077  0.8819
 3372TIP3   OH231530   1.247   5.888   6.154  0.0688 -0.3983  0.2711
 3372TIP3    H131531   1.197   5.913   6.232  1.1062 -2.0411  1.5125
 3372TIP3    H231532   1.336   5.919   6.172  0.6569 -2.0961  0.4543
 3373TIP3   OH231533   5.541   3.465   1.242 -0.0565 -0.6807 -0.4931
 3373TIP3    H131534   5.462   3.518   1.241  1.2608  1.4420 -1.2985
 3373TIP3    H231535   5.511   3.375   1.236 -2.3973  0.0306 -0.1740
 3374TIP3   OH231536   4.530   4.371   3.028 -0.3576 -0.8441  0.3610
 3374TIP3    H131537   4.460   4.373   2.962 -0.4621 -1.5569  0.4401
 3374TIP3    H231538   4.507   4.297   3.085 -1.0917  0.6684  2.1260
 3375TIP3   OH231539   0.025   6.521   3.024 -0.9262 -0.0720 -0.1033
 3375TIP3    H131540   0.078   6.579   2.969  0.3652 -0.3907  0.7756
 3375TIP3    H231541  -0.064   6.557   3.017 -0.5140  0.8021 -1.1618
 3376TIP3   OH231542   3.343   0.594  17.052  0.3364 -0.0110  0.9227
 3376TIP3    H131543   3.283   0.557  16.988  2.0408 -0.1417 -0.6865
 3376TIP3    H231544   3.368   0.520  17.108  0.6275 -0.4110  0.2663
 3377TIP3   OH231545   3.612   4.928   0.601  0.2896  0.3229 -0.6750
 3377TIP3    H131546   3.643   4.985   0.672  1.1257  2.1425 -2.3960
 3377TIP3    H231547   3.692   4.900   0.556 -0.1383 -1.9599 -0.1081
 3378TIP3   OH231548   1.419   5.874  13.712 -0.2368  0.0699 -0.2958
 3378TIP3    H131549   1.334   5.854  13.674 -2.0335  2.0257  2.4065
 3378TIP3    H231550   1.449   5.790  13.747 -2.7570 -0.0814  1.7649
 3379TIP3   OH231551   3.224   3.274  14.231 -0.1672  0.5513  0.2228
 3379TIP3    H131552   3.180   3.227  14.302  1.3402  0.6272  1.2588
 3379TIP3    H231553   3.197   3.228  14.152  2.2203 -3.0141  1.2512
 3380TIP3   OH231554   1.321   4.787  14.722  0.1614  0.1099  0.2426
 3380TIP3    H131555   1.395   4.830  14.680  0.8387 -0.6826  0.5962
 3380TIP3    H231556   1.244   4.823  14.677  0.7194  1.2817  0.1774
 3381TIP3   OH231557   2.007   6.081   3.992 -0.0962  0.2792 -0.6790
 3381TIP3    H131558   1.936   6.087   3.928 -0.8833  0.5986  0.2065
 3381TIP3    H231559   2.068   6.150   3.967  1.1447 -1.4704 -2.8751
 3382TIP3   OH231560   3.611   5.393   1.186 -0.1515  0.0119  0.2094
 3382TIP3    H131561   3.611   5.381   1.280 -1.9709  1.4143  0.4515
 3382TIP3    H231562   3.638   5.484   1.174  1.5772 -0.5827 -0.7507
 3383TIP3   OH231563   6.117   2.972   1.635  0.0333 -0.0124  0.3096
 3383TIP3    H131564   6.062   2.940   1.706 -0.4590  1.3719  0.5875
 3383TIP3    H231565   6.056   3.004   1.569  0.4873 -1.2334 -0.7500
 3384TIP3   OH231566   5.988   2.194   2.526  0.1723 -0.5095  0.0903
 3384TIP3    H131567   6.010   2.270   2.472  1.9683 -1.1528 -0.1363
 3384TIP3    H231568   5.901   2.168   2.495  0.7294 -0.2677 -1.8545
 3385TIP3   OH231569   4.129   2.366   0.168 -0.0379  0.4988 -0.0511
 3385TIP3    H131570   4.105   2.275   0.180  0.3171  0.6775  2.6513
 3385TIP3    H231571   4.224   2.366   0.164 -0.0537  0.7196 -0.5580
 3386TIP3   OH231572   2.448   0.862  12.917  0.6781 -0.0815 -0.5743
 3386TIP3    H131573   2.488   0.920  12.981 -1.3333  0.9372 -0.1772
 3386TIP3    H231574   2.410   0.921  12.852 -2.1454 -0.8401  0.2785
 3387TIP3   OH231575   5.381   6.563   4.767  0.0572  0.1492  0.1681
 3387TIP3    H131576   5.401   6.624   4.697  0.3572 -1.3804 -1.1287
 3387TIP3    H231577   5.457   6.568   4.826  2.0495 -1.8239 -2.0177
 3388TIP3   OH231578   4.030   4.960  10.815  0.6963  0.0060 -0.2888
 3388TIP3    H131579   4.045   5.055  10.814 -0.0555  0.1484  0.7623
 3388TIP3    H231580   3.936   4.951  10.834  0.8526 -0.9601  0.0554
 3389TIP3   OH231581   3.221   4.068  16.905  0.0404  0.2924  0.3265
 3389TIP3    H131582   3.204   4.010  16.831  2.0152  0.3289 -0.2274
 3389TIP3    H231583   3.300   4.117  16.879 -1.2552  2.9017  0.9593
 3390TIP3   OH231584   3.878   3.364  15.256  0.1770 -0.5660  0.1713
 3390TIP3    H131585   3.957   3.312  15.245 -0.4412 -1.2591 -1.3855
 3390TIP3    H231586   3.910   3.453  15.272  1.2517 -0.9885  0.4534
 3391TIP3   OH231587   3.618   1.531  14.319 -0.1973  0.9591 -0.4452
 3391TIP3    H131588   3.709   1.530  14.349 -0.6066  0.6468  0.8705
 3391TIP3    H231589   3.618   1.589  14.243  0.9627  1.5662  0.0017
 3392TIP3   OH231590   0.599   5.997   0.296 -0.2111 -0.3443  0.0975
 3392TIP3    H131591   0.663   6.042   0.241 -0.7369 -1.4299 -1.4648
 3392TIP3    H231592   0.650   5.969   0.373  0.8863 -0.0853 -0.5073
 3393TIP3   OH231593   3.810   1.991   1.862 -0.0335  0.6285  0.3064
 3393TIP3    H131594   3.786   1.988   1.955  0.3965  0.8753  0.4265
 3393TIP3    H231595   3.758   1.921   1.822  0.0160  0.3140  0.7852
 3394TIP3   OH231596   4.500   1.930   3.941  0.0522  0.3000 -0.2501
 3394TIP3    H131597   4.571   1.970   3.991  0.1893  0.0499 -0.2424
 3394TIP3    H231598   4.513   1.962   3.851 -0.2292  0.7962 -0.1180
 3395TIP3   OH231599   1.263   6.543  17.089 -0.4216  0.0421  0.1045
 3395TIP3    H131600   1.268   6.450  17.110  3.0042  0.2160  0.6683
 3395TIP3    H231601   1.223   6.546  17.002 -0.6255 -1.9299  0.0772
 3396TIP3   OH231602   2.864   4.138   3.717  0.4299 -0.4910  0.2010
 3396TIP3    H131603   2.844   4.134   3.811 -1.5193  1.8680  0.0042
 3396TIP3    H231604   2.922   4.214   3.709  2.8937 -2.3163 -0.2652
 3397TIP3   OH231605   1.441   3.837  13.796  0.1193  0.1758 -0.0400
 3397TIP3    H131606   1.485   3.922  13.803  2.8878 -0.9929 -1.6633
 3397TIP3    H231607   1.430   3.808  13.887  2.6171  0.6754  0.4999
 3398TIP3   OH231608   2.244   4.521  11.629  0.6419 -0.1744  0.5265
 3398TIP3    H131609   2.300   4.503  11.553  1.2325  1.5022  0.5249
 3398TIP3    H231610   2.249   4.442  11.682  3.2085 -0.0003  0.6338
 3399TIP3   OH231611   1.655   0.011   1.785 -0.4968 -0.1204 -0.3631
 3399TIP3    H131612   1.666   0.031   1.878 -1.0847 -0.3087 -0.2496
 3399TIP3    H231613   1.608  -0.072   1.783 -1.6485  0.5184 -0.8152
 3400TIP3   OH231614   2.825   0.578  11.435  0.0913  0.1445 -0.0920
 3400TIP3    H131615   2.753   0.600  11.376 -1.5654 -1.1021  1.3541
 3400TIP3    H231616   2.814   0.637  11.510 -0.8967 -1.5599  1.1813
 3401TIP3   OH231617   4.799   3.277  13.153 -0.2272  0.2653  0.0470
 3401TIP3    H131618   4.831   3.344  13.092  1.8473  0.6629  1.4811
 3401TIP3    H231619   4.704   3.274  13.137  0.1646  0.5303 -2.9662
 3402TIP3   OH231620   1.424   6.702   3.424 -0.7944 -0.2463 -0.5779
 3402TIP3    H131621   1.480   6.708   3.502 -0.3924  2.5057 -0.9899
 3402TIP3    H231622   1.484   6.687   3.352 -0.5614  2.0822 -0.9367
 3403TIP3   OH231623   6.282   1.875   0.031  0.4642 -0.4629  0.3427
 3403TIP3    H131624   6.309   1.960  -0.004 -0.4057  0.8844  2.6937
 3403TIP3    H231625   6.197   1.859  -0.010 -0.1527  0.6686  1.1086
 3404TIP3   OH231626   6.308   5.972   4.712 -0.0289  0.2770  1.0813
 3404TIP3    H131627   6.389   5.953   4.664 -0.1907 -1.2024  1.3358
 3404TIP3    H231628   6.239   5.961   4.647 -0.1630 -0.6356  1.3518
 3405TIP3   OH231629   4.867   3.112  14.632 -0.0854 -0.1357 -0.0227
 3405TIP3    H131630   4.885   3.058  14.708 -0.1435 -0.2738 -0.1076
 3405TIP3    H231631   4.920   3.191  14.645 -0.3017 -0.0396  0.2912
 3406TIP3   OH231632   6.195   4.849   4.879  0.4454 -0.0400 -0.2123
 3406TIP3    H131633   6.270   4.839   4.937  1.0605  1.7884 -0.6460
 3406TIP3    H231634   6.205   4.936   4.840 -1.8493  0.2355 -0.3535
 3407TIP3   OH231635   4.646   5.990   0.912  0.1378  0.1808  0.2583
 3407TIP3    H131636   4.623   6.060   0.850  2.2183  1.2493  0.5935
 3407TIP3    H231637   4.637   6.031   0.998  0.5811 -0.2296  0.5009
 3408TIP3   OH231638   1.210   3.101   5.431  0.3873 -0.0191  0.3847
 3408TIP3    H131639   1.182   3.189   5.457 -0.2814  0.3562 -1.4246
 3408TIP3    H231640   1.251   3.065   5.509  0.7096  1.9129  1.1760
 3409TIP3   OH231641   2.599   1.031  16.513  0.3428  0.5742 -0.2112
 3409TIP3    H131642   2.574   0.984  16.433 -0.7239 -1.6268  1.2949
 3409TIP3    H231643   2.529   1.095  16.526 -1.2697 -1.2593  0.6049
 3410TIP3   OH231644   2.986   1.166  15.688 -0.4215 -0.3592 -0.2802
 3410TIP3    H131645   3.024   1.244  15.647 -0.2600 -0.6590 -0.7141
 3410TIP3    H231646   3.061   1.108  15.703 -0.6203 -0.6927 -0.5564
 3411TIP3   OH231647   3.839   0.968  13.685 -0.4672  0.3551 -0.4888
 3411TIP3    H131648   3.862   0.984  13.593 -0.0459  0.8597 -0.3000
 3411TIP3    H231649   3.801   0.881  13.685 -1.0176  0.5860 -1.2390
 3412TIP3   OH231650   4.252   4.003  16.731 -0.2855 -0.2550  0.2547
 3412TIP3    H131651   4.276   4.070  16.667  0.0497 -1.2499 -0.6709
 3412TIP3    H231652   4.335   3.969  16.763 -0.4547 -0.4398  0.5053
 3413TIP3   OH231653   4.864   4.497  12.179 -0.2599 -0.1855 -0.2159
 3413TIP3    H131654   4.861   4.577  12.231  0.3421  0.6589 -1.4211
 3413TIP3    H231655   4.785   4.500  12.125 -0.0292 -0.1794 -0.5604
 3414TIP3   OH231656   2.315   1.388  11.389  0.3060 -0.0382  0.2011
 3414TIP3    H131657   2.350   1.453  11.449  1.4274 -1.5617  1.2836
 3414TIP3    H231658   2.393   1.348  11.350 -0.3781 -0.2902 -0.9270
 3415TIP3   OH231659   5.520   0.607  11.690 -0.7792 -0.4536  0.1748
 3415TIP3    H131660   5.457   0.544  11.655 -2.0224  1.3438 -0.9353
 3415TIP3    H231661   5.503   0.688  11.643  2.1646  0.2103  0.0574
 3416TIP3   OH231662   2.418   1.129   0.380  0.7125 -0.1994 -0.4343
 3416TIP3    H131663   2.446   1.191   0.447  1.4195  1.6357 -2.3067
 3416TIP3    H231664   2.331   1.160   0.354  0.5027 -0.8116 -0.4805
 3417TIP3   OH231665   1.641   5.760  10.647 -0.7141  0.5684 -0.4537
 3417TIP3    H131666   1.553   5.723  10.638  0.1214 -0.9662 -4.2774
 3417TIP3    H231667   1.627   5.855  10.647 -2.4411  0.3995  1.9728
 3418TIP3   OH231668   4.609   2.971  17.013  0.3556 -0.5074 -0.2416
 3418TIP3    H131669   4.675   3.008  16.954 -0.5032  0.6137 -0.5344
 3418TIP3    H231670   4.553   2.918  16.955  0.4493 -0.7130 -0.1463
 3419TIP3   OH231671   2.304   4.798   0.719 -0.2266 -0.3091  0.2745
 3419TIP3    H131672   2.304   4.798   0.815  0.8353  0.1336  0.2833
 3419TIP3    H231673   2.268   4.712   0.696 -1.8099  0.1007  1.0398
 3420TIP3   OH231674   2.604   6.381   1.495 -0.2342 -0.2177  0.5092
 3420TIP3    H131675   2.526   6.344   1.454  0.2199 -0.8689  0.2101
 3420TIP3    H231676   2.660   6.305   1.512  1.2833  0.4293 -1.3007
 3421TIP3   OH231677   5.275   0.012   3.201 -0.4668 -0.0948  0.4071
 3421TIP3    H131678   5.321  -0.044   3.264  0.2536 -0.4293 -0.3919
 3421TIP3    H231679   5.209  -0.046   3.162 -1.1647  0.2162  1.1163
 3422TIP3   OH231680   0.005   4.073  15.612  0.0294  0.2315  0.2130
 3422TIP3    H131681  -0.072   4.016  15.613 -0.3777  0.6369  3.6208
 3422TIP3    H231682   0.023   4.088  15.519 -3.9543  0.0868 -0.7383
 3423TIP3   OH231683   1.752   2.395  14.810 -0.4592  0.0192 -0.4664
 3423TIP3    H131684   1.682   2.330  14.805 -0.1199 -0.4177  0.3739
 3423TIP3    H231685   1.719   2.469  14.759 -1.5761 -0.1272  0.0239
 3424TIP3   OH231686   2.036   4.470   3.489  0.0119 -0.2614 -0.6804
 3424TIP3    H131687   1.968   4.429   3.435 -0.9885 -0.2254  0.5080
 3424TIP3    H231688   2.050   4.409   3.561  0.9383 -0.0636 -0.6805
 3425TIP3   OH231689   3.895   0.060   4.821 -0.2307 -0.4148  0.3969
 3425TIP3    H131690   3.813   0.015   4.839  0.5298 -1.5358  1.1913
 3425TIP3    H231691   3.913   0.042   4.728 -0.0565 -1.5818  0.6437
 3426TIP3   OH231692   3.016   5.792  14.914  0.1568  0.4527 -0.0105
 3426TIP3    H131693   3.108   5.819  14.920  0.2334 -0.0478  1.9840
 3426TIP3    H231694   2.985   5.830  14.832  1.8650  1.4987 -0.2275
 3427TIP3   OH231695   4.803   6.581  14.349  0.0048  0.2743 -0.1933
 3427TIP3    H131696   4.868   6.510  14.345  0.7637  0.9399  0.0074
 3427TIP3    H231697   4.726   6.545  14.305  0.4620 -0.5810 -0.3312
 3428TIP3   OH231698   3.180   2.064  10.863  0.6131 -0.1531  0.3957
 3428TIP3    H131699   3.088   2.039  10.868  0.0910  1.4032 -0.8278
 3428TIP3    H231700   3.196   2.080  10.770  2.2901 -0.9056  0.4983
 3429TIP3   OH231701   1.813   2.227   5.863 -0.0722 -0.0967 -0.4258
 3429TIP3    H131702   1.758   2.188   5.931  0.1784  0.4044  0.0675
 3429TIP3    H231703   1.813   2.162   5.793 -4.8282  1.5603 -2.3805
 3430TIP3   OH231704   2.586   1.874   0.266  0.6042  0.3980 -0.3000
 3430TIP3    H131705   2.651   1.826   0.216 -0.6086 -1.9829  0.2295
 3430TIP3    H231706   2.588   1.833   0.353 -0.6398  1.1890  0.1329
 3431TIP3   OH231707   0.466   2.315  15.725  0.0295 -0.0077 -0.2817
 3431TIP3    H131708   0.489   2.226  15.752 -0.7563 -0.7860 -1.9877
 3431TIP3    H231709   0.500   2.321  15.635  1.1413  1.8694  0.2026
 3432TIP3   OH231710   4.300   4.463   2.377  0.1691  0.5436 -0.0826
 3432TIP3    H131711   4.348   4.522   2.318  0.4376 -2.0181 -2.6497
 3432TIP3    H231712   4.209   4.469   2.348  0.2416 -0.4353 -0.5657
 3433TIP3   OH231713   1.005   1.039   4.162  0.3361  0.0547 -0.0668
 3433TIP3    H131714   0.941   1.111   4.169  0.3959  0.0707  0.3526
 3433TIP3    H231715   1.090   1.083   4.163  0.3592  0.0774 -1.1731
 3434TIP3   OH231716   4.763   0.378  16.108 -0.1392 -0.1664 -0.3004
 3434TIP3    H131717   4.745   0.411  16.196 -0.7231 -1.1512 -0.0423
 3434TIP3    H231718   4.680   0.343  16.077  0.3519 -1.0129 -0.7223
 3435TIP3   OH231719   6.135   1.489  10.688 -0.2202  0.1104  0.2616
 3435TIP3    H131720   6.159   1.539  10.766  0.6012 -0.4912  0.4113
 3435TIP3    H231721   6.131   1.554  10.618  2.3236  0.2567  0.1278
 3436TIP3   OH231722   1.969   6.763  16.271  0.1401 -0.6148  0.4246
 3436TIP3    H131723   1.881   6.726  16.281 -0.8924  1.3188 -0.8193
 3436TIP3    H231724   1.980   6.818  16.349 -0.0828 -0.2750  0.2212
 3437TIP3   OH231725   4.451   0.751  13.580 -0.3065  0.1165 -0.1146
 3437TIP3    H131726   4.487   0.678  13.629  0.3059  0.3118 -0.2694
 3437TIP3    H231727   4.402   0.710  13.508  0.5449 -0.1400 -0.5598
 3438TIP3   OH231728   6.706   4.202   2.221 -0.0143 -0.1495  0.4089
 3438TIP3    H131729   6.741   4.189   2.310  0.3731  0.2043  0.3087
 3438TIP3    H231730   6.615   4.228   2.235  0.4622  1.4217  0.7710
 3439TIP3   OH231731   4.664   4.513  12.007  0.1678  0.5050 -0.1237
 3439TIP3    H131732   4.680   4.515  11.913 -2.6736 -0.9587 -0.7712
 3439TIP3    H231733   4.605   4.586  12.023 -1.6916 -0.9031 -0.1238
 3440TIP3   OH231734   1.028   2.017   1.277 -0.4654 -0.4881 -0.1656
 3440TIP3    H131735   1.002   1.928   1.252 -0.0979 -0.4297 -0.7932
 3440TIP3    H231736   1.056   2.057   1.194  0.2024 -0.0772  0.2523
 3441TIP3   OH231737   0.482   0.228  15.933  0.2092 -0.0231  0.1295
 3441TIP3    H131738   0.482   0.142  15.893  0.7741  0.0843 -0.1142
 3441TIP3    H231739   0.390   0.246  15.953  0.0211 -0.4247 -0.3690
 3442TIP3   OH231740   1.414   6.462  13.632 -0.1974 -0.2184  0.3273
 3442TIP3    H131741   1.363   6.381  13.633  0.2752 -0.5739 -1.2100
 3442TIP3    H231742   1.377   6.515  13.703 -3.8518  0.2164 -1.6018
 3443TIP3   OH231743   0.091   1.800  14.398 -0.0026  0.5208  0.3299
 3443TIP3    H131744   0.062   1.723  14.447  0.5490 -0.3098 -0.6139
 3443TIP3    H231745   0.127   1.858  14.465  0.6185 -0.5243  0.9387
 3444TIP3   OH231746   5.095   1.780   6.004 -0.5015  0.0590 -0.1749
 3444TIP3    H131747   5.147   1.795   5.925 -2.0726  1.4771 -1.0080
 3444TIP3    H231748   5.020   1.728   5.974 -0.5273 -0.3726  0.6177
 3445TIP3   OH231749   2.187   1.697   0.291  0.6522 -0.0945  0.3002
 3445TIP3    H131750   2.170   1.729   0.202  1.0699 -0.4804  0.0810
 3445TIP3    H231751   2.232   1.770   0.334  1.1073 -0.1752 -0.0313
 3446TIP3   OH231752   0.411   3.913   3.817  0.1150 -0.4975  0.2020
 3446TIP3    H131753   0.425   3.871   3.902 -1.2270  2.7233  2.2187
 3446TIP3    H231754   0.491   3.897   3.768  1.2056 -1.9373  2.3356
 3447TIP3   OH231755   5.886   1.381   0.772  0.8512  0.3803 -0.3143
 3447TIP3    H131756   5.963   1.326   0.787  0.3521 -0.5887 -1.2318
 3447TIP3    H231757   5.874   1.381   0.677 -1.3694 -1.0017 -0.0926
 3448TIP3   OH231758   3.268   5.178  11.970  0.1172 -0.1278  0.1004
 3448TIP3    H131759   3.295   5.254  11.918  1.3569 -0.4893  0.1928
 3448TIP3    H231760   3.223   5.122  11.908 -0.3969  0.4674 -0.0741
 3449TIP3   OH231761   2.377   4.619  14.437  0.6381  0.5518 -0.0517
 3449TIP3    H131762   2.405   4.707  14.460  0.7340  0.2289  1.1425
 3449TIP3    H231763   2.451   4.563  14.460 -0.3826 -0.1357  1.7567
 3450TIP3   OH231764   3.158   4.773  12.854 -0.0825 -0.0326  0.1302
 3450TIP3    H131765   3.203   4.848  12.814 -1.1860  0.9349  0.6561
 3450TIP3    H231766   3.097   4.812  12.917 -1.3170 -1.3150 -0.2139
 3451TIP3   OH231767   0.501   4.688   5.736 -0.7472  0.1905 -0.1333
 3451TIP3    H131768   0.573   4.690   5.799 -1.1130 -1.1879  0.3570
 3451TIP3    H231769   0.444   4.760   5.763 -0.0659  0.6506  0.0908
 3452TIP3   OH231770   5.765   3.593   4.057 -0.0539  0.2119 -0.6521
 3452TIP3    H131771   5.730   3.589   4.146 -1.1488 -2.4153 -1.1011
 3452TIP3    H231772   5.732   3.675   4.022  1.9303  2.2762  1.8716
 3453TIP3   OH231773   0.674   1.704   3.520 -0.2132  0.5371 -0.0442
 3453TIP3    H131774   0.655   1.616   3.554 -1.4663  0.7165 -0.2466
 3453TIP3    H231775   0.599   1.757   3.546 -1.0756  0.7765 -2.7633
 3454TIP3   OH231776   4.650   0.082   4.035 -0.2583  0.2371  0.0854
 3454TIP3    H131777   4.640   0.122   4.121 -0.7232  1.2241 -0.4073
 3454TIP3    H231778   4.574   0.111   3.985  0.5828  0.6635 -1.0211
 3455TIP3   OH231779   2.262   3.400   1.000  0.2118  1.0136  0.0350
 3455TIP3    H131780   2.321   3.467   0.967  1.2223 -0.1289 -0.5424
 3455TIP3    H231781   2.251   3.421   1.093  1.5443  1.2302  0.1518
 3456TIP3   OH231782   5.084   4.463  16.222 -0.3048 -0.4601  0.0799
 3456TIP3    H131783   5.164   4.440  16.269  1.0353  2.3546 -0.6547
 3456TIP3    H231784   5.100   4.436  16.132  0.6536  1.7868 -0.4660
 3457TIP3   OH231785   4.551   2.252  14.473 -0.6060  0.0565 -0.1868
 3457TIP3    H131786   4.540   2.195  14.397 -1.0974  1.6960 -1.3921
 3457TIP3    H231787   4.631   2.220  14.516 -0.6133 -1.2192 -1.0786
 3458TIP3   OH231788   3.112   4.619  15.961  0.4803  0.0590 -0.1900
 3458TIP3    H131789   3.044   4.551  15.958  1.1305 -0.5527 -1.5454
 3458TIP3    H231790   3.111   4.649  16.052 -2.3250  0.8204 -0.3681
 3459TIP3   OH231791   4.182   2.353  13.549  0.1496  0.4593 -0.1578
 3459TIP3    H131792   4.126   2.420  13.508 -2.0982 -0.8571  0.5850
 3459TIP3    H231793   4.213   2.300  13.476 -0.2829  0.7057 -0.5261
 3460TIP3   OH231794   5.203   4.941  11.990 -0.0400  0.3996 -0.2444
 3460TIP3    H131795   5.111   4.929  12.014  0.4849  1.4611  2.7116
 3460TIP3    H231796   5.239   4.852  11.990 -0.5840  0.1603  0.8795
 3461TIP3   OH231797   2.844   6.214  13.106 -0.0396  0.0385  0.1413
 3461TIP3    H131798   2.908   6.285  13.112  1.0283 -1.0303  2.4630
 3461TIP3    H231799   2.896   6.134  13.112 -1.3257 -0.9469 -1.3216
 3462TIP3   OH231800   3.077   4.973  15.304 -0.2339 -0.2430  0.0144
 3462TIP3    H131801   3.060   5.054  15.256 -0.0608 -0.3791 -0.2801
 3462TIP3    H231802   3.170   4.956  15.291 -0.6945 -1.6720 -1.8218
 3463TIP3   OH231803   3.394   5.744  16.184 -0.6123 -0.0398 -0.6466
 3463TIP3    H131804   3.414   5.836  16.204 -0.3614 -0.4408  1.1251
 3463TIP3    H231805   3.437   5.694  16.254 -2.3358 -1.3663 -0.4598
 3464TIP3   OH231806   5.012   4.716  15.227 -0.0545 -0.1051  0.1530
 3464TIP3    H131807   5.015   4.636  15.279  0.3773 -0.0041  0.2878
 3464TIP3    H231808   5.024   4.786  15.290 -0.7449  0.0828  0.0750
 3465TIP3   OH231809   2.158   1.072  13.090 -0.1102  0.1519  0.9761
 3465TIP3    H131810   2.122   0.990  13.056 -0.0986  0.0629  1.1769
 3465TIP3    H231811   2.205   1.110  13.016 -0.4271  0.1587  0.7769
 3466TIP3   OH231812   0.999   2.223  14.389 -0.1742  0.2242 -0.1235
 3466TIP3    H131813   1.020   2.133  14.362 -0.3328 -0.1052  0.7984
 3466TIP3    H231814   0.909   2.218  14.421 -1.0105  1.2079 -2.1570
 3467TIP3   OH231815   5.966   0.049  15.886 -0.3396  0.9834  0.6428
 3467TIP3    H131816   5.943   0.123  15.942  1.1746  1.7650  0.2951
 3467TIP3    H231817   6.032   0.001  15.936 -2.2990 -1.0039  1.4814
 3468TIP3   OH231818   5.977   0.624   5.099  0.7323  0.3978  0.0532
 3468TIP3    H131819   6.051   0.585   5.144  0.1539  1.3857  1.9769
 3468TIP3    H231820   6.000   0.621   5.006  1.9923 -1.6985  0.3733
 3469TIP3   OH231821   4.448   3.215   1.958 -0.1504 -0.4943  0.6299
 3469TIP3    H131822   4.416   3.130   1.988 -1.8367 -0.1094  0.0221
 3469TIP3    H231823   4.377   3.250   1.904  0.8696  0.9209  0.1419
 3470TIP3   OH231824   6.460   3.624   0.012  0.0191  0.1190 -0.0515
 3470TIP3    H131825   6.484   3.614   0.104 -2.3383 -0.8615  0.5199
 3470TIP3    H231826   6.403   3.700   0.009  2.8208  2.3410 -1.3600
 3471TIP3   OH231827   4.401   4.004  15.271 -0.3036  0.4106  0.0539
 3471TIP3    H131828   4.493   3.987  15.253 -0.6115 -0.9478 -0.4271
 3471TIP3    H231829   4.398   4.093  15.304  1.6377 -0.5995  3.3995
 3472TIP3   OH231830   2.194   4.870  12.544  0.2277 -0.1519  0.0878
 3472TIP3    H131831   2.267   4.902  12.491  1.3240  2.8882  3.0187
 3472TIP3    H231832   2.208   4.775  12.549  1.1988 -0.2884 -3.1921
 3473TIP3   OH231833   4.494   1.726  13.419  0.3615 -0.4429  0.0721
 3473TIP3    H131834   4.427   1.724  13.350 -1.2611 -0.1842  1.5554
 3473TIP3    H231835   4.577   1.714  13.373 -0.8472 -3.4312 -1.6654
 3474TIP3   OH231836   0.600   2.031   3.258  0.5461 -0.1446  0.5316
 3474TIP3    H131837   0.564   2.114   3.227  0.8060 -0.1979  0.0627
 3474TIP3    H231838   0.531   1.966   3.238  0.6439 -0.1525  0.2074
 3475TIP3   OH231839   5.900   1.790   2.203  0.5384  0.4188  0.1959
 3475TIP3    H131840   5.965   1.859   2.214  1.0214  0.1254 -0.7628
 3475TIP3    H231841   5.939   1.729   2.140 -1.5383  1.3574 -2.1640
 3476TIP3   OH231842   2.664   5.395  13.778  0.0985  0.3122 -0.3387
 3476TIP3    H131843   2.604   5.344  13.724  0.9661 -2.2301  0.9379
 3476TIP3    H231844   2.611   5.466  13.812 -1.1971  0.2896 -2.1554
 3477TIP3   OH231845   5.660   0.547   0.387  0.2084  0.2138  0.0487
 3477TIP3    H131846   5.690   0.508   0.305 -0.9619 -2.9872  0.9737
 3477TIP3    H231847   5.614   0.626   0.361  1.4977  0.3032 -2.1753
 3478TIP3   OH231848   6.006   5.435   2.338 -0.7054  0.2038 -0.1786
 3478TIP3    H131849   5.957   5.364   2.379 -0.1897  0.4310  0.8692
 3478TIP3    H231850   6.084   5.444   2.393  1.3386 -1.1892 -2.6370
 3479TIP3   OH231851   0.567   3.178   4.842  0.5442  0.1249 -0.6424
 3479TIP3    H131852   0.635   3.220   4.895  0.2677 -0.0411 -0.1455
 3479TIP3    H231853   0.576   3.085   4.862 -2.8345  0.3336  3.2216
 3480TIP3   OH231854   6.011   3.000   5.407  0.0277  0.2387  0.5510
 3480TIP3    H131855   6.004   2.980   5.500 -0.4216  0.7408  0.6256
 3480TIP3    H231856   6.039   3.092   5.404  1.1774 -0.1014  0.2003
 3481TIP3   OH231857   1.421   4.505   4.385 -0.2363 -0.0639 -0.0922
 3481TIP3    H131858   1.356   4.484   4.318 -0.4662  0.0009  0.1083
 3481TIP3    H231859   1.489   4.553   4.338 -0.0273 -0.6766 -0.4259
 3482TIP3   OH231860   3.370   2.516   4.859  0.2331  0.0200  0.2179
 3482TIP3    H131861   3.381   2.424   4.882 -0.1168  0.0090  0.3511
 3482TIP3    H231862   3.346   2.516   4.766 -1.5279 -0.1510  0.6269
 3483TIP3   OH231863   0.794   4.996  11.696 -0.2142 -0.0582 -0.4987
 3483TIP3    H131864   0.791   4.916  11.749  0.4996  0.4509  0.3315
 3483TIP3    H231865   0.750   5.062  11.749 -2.4964 -0.2813 -1.9505
 3484TIP3   OH231866   0.249   6.115   4.493 -0.7364 -0.3408  0.3331
 3484TIP3    H131867   0.297   6.037   4.463 -1.4586 -0.2734 -1.0930
 3484TIP3    H231868   0.185   6.081   4.556  0.5914 -0.5339  1.6427
 3485TIP3   OH231869   5.942   5.099   0.047  0.4641  0.1330 -0.0913
 3485TIP3    H131870   5.889   5.087  -0.031 -0.8026 -0.2291  0.7956
 3485TIP3    H231871   5.967   5.010   0.073 -1.3654 -0.0037  1.3895
 3486TIP3   OH231872   3.037   2.957   4.445  0.3938 -0.3718 -0.2463
 3486TIP3    H131873   2.991   2.947   4.528 -1.5574  1.1571 -1.0731
 3486TIP3    H231874   3.010   2.881   4.393  0.7625 -0.7599  0.1218
 3487TIP3   OH231875   2.683   1.570  15.541 -0.1538 -0.1822 -0.2198
 3487TIP3    H131876   2.750   1.614  15.490 -1.2686  0.3987 -1.2303
 3487TIP3    H231877   2.697   1.477  15.524  1.7833 -0.2628  1.3890
 3488TIP3   OH231878   5.791   0.263   6.473 -0.0059 -0.2173 -0.3968
 3488TIP3    H131879   5.799   0.228   6.561 -0.1811 -1.3224 -0.7996
 3488TIP3    H231880   5.728   0.205   6.430 -1.7432  1.6774 -0.5647
 3489TIP3   OH231881   5.389   0.224  16.936  0.2098 -0.2241 -0.1078
 3489TIP3    H131882   5.358   0.256  16.851 -0.1470  1.4729  0.6097
 3489TIP3    H231883   5.473   0.267  16.949  1.9780 -3.1194 -1.0527
 3490TIP3   OH231884   6.786   6.106  17.177  0.2268 -0.0288  0.1520
 3490TIP3    H131885   6.752   6.032  17.227 -0.0573  1.0654  1.6787
 3490TIP3    H231886   6.804   6.173  17.244  3.1564  0.2949 -0.8419
 3491TIP3   OH231887   6.534   2.666   4.366 -0.5260  0.0666 -0.2089
 3491TIP3    H131888   6.541   2.574   4.390  1.0583 -0.1176 -1.1848
 3491TIP3    H231889   6.539   2.667   4.270 -2.1101  1.0785 -0.3211
 3492TIP3   OH231890   1.513   0.766   0.716 -0.7677  0.7340  0.0224
 3492TIP3    H131891   1.450   0.795   0.782 -2.5079  0.5989 -1.4750
 3492TIP3    H231892   1.460   0.717   0.653  1.2649 -1.5655 -0.0577
 3493TIP3   OH231893   5.795   2.012   4.489  0.1971 -0.3819  0.3488
 3493TIP3    H131894   5.724   2.075   4.504  0.7901  0.2765  0.4704
 3493TIP3    H231895   5.865   2.040   4.549 -0.0570 -2.0353  1.4782
 3494TIP3   OH231896   4.726   5.069   3.717  0.4217  0.0819  0.2106
 3494TIP3    H131897   4.759   5.001   3.658  0.5549 -0.5584  1.0052
 3494TIP3    H231898   4.791   5.073   3.786 -0.3891 -0.1113  1.0006
 3495TIP3   OH231899   2.627   5.799   2.849  0.6737  0.3354  0.1979
 3495TIP3    H131900   2.661   5.774   2.935  1.3590 -0.8835 -0.4086
 3495TIP3    H231901   2.665   5.885   2.832 -0.4093  1.1416  1.6113
 3496TIP3   OH231902   1.584   3.981   4.477 -0.5233 -0.0557 -0.3239
 3496TIP3    H131903   1.651   4.046   4.454 -1.0817  0.6284 -0.0645
 3496TIP3    H231904   1.605   3.956   4.567 -0.1563 -0.4329 -0.5111
 3497TIP3   OH231905   5.214   0.770   3.686  0.6826 -0.2333 -0.6494
 3497TIP3    H131906   5.261   0.775   3.769  1.2685  2.3569 -1.0614
 3497TIP3    H231907   5.283   0.758   3.620  0.4921  0.5155 -0.9936
 3498TIP3   OH231908   4.897   0.479   2.000 -0.0471  0.3598  0.3534
 3498TIP3    H131909   4.989   0.476   2.024  0.3412  1.2876 -0.9211
 3498TIP3    H231910   4.859   0.544   2.059 -0.0673 -0.5599  1.3815
 3499TIP3   OH231911   2.168   4.337  16.345  0.2080  0.5455  0.0909
 3499TIP3    H131912   2.254   4.319  16.383  0.0651  0.2171  0.2591
 3499TIP3    H231913   2.187   4.394  16.270  0.5175  0.9448  0.4671
 3500TIP3   OH231914   5.083   4.311   1.229  0.0528 -0.5628  0.2988
 3500TIP3    H131915   5.150   4.243   1.243 -0.9228 -1.2518  1.9274
 3500TIP3    H231916   5.093   4.335   1.137  2.5745 -0.5805  0.5009
 3501TIP3   OH231917   4.541   0.631   5.256 -0.6412  0.3864  0.3175
 3501TIP3    H131918   4.469   0.637   5.193 -2.1920 -1.3557  1.7896
 3501TIP3    H231919   4.522   0.699   5.321 -0.0459  1.0031 -0.1555
 3502TIP3   OH231920   4.360   0.121   2.282 -0.1186  0.2767  0.5774
 3502TIP3    H131921   4.450   0.089   2.287  1.0118  2.9480 -0.6313
 3502TIP3    H231922   4.368   0.211   2.252 -3.2802  0.3383 -0.4920
 3503TIP3   OH231923   1.080   4.201   1.216  0.4690  0.1898 -0.9223
 3503TIP3    H131924   1.133   4.276   1.242 -0.8806  1.5551 -1.9250
 3503TIP3    H231925   1.027   4.181   1.293 -0.7688  1.7492 -1.3247
 3504TIP3   OH231926   6.361   6.019   4.991 -0.3784 -0.5973  0.2201
 3504TIP3    H131927   6.345   5.926   4.974  1.2807 -0.4660 -2.6592
 3504TIP3    H231928   6.373   6.058   4.905 -0.7132  2.2830  1.3571
 3505TIP3   OH231929   2.368   6.221  16.449 -0.1744 -0.5900 -0.0344
 3505TIP3    H131930   2.304   6.280  16.488  1.9598  1.5638  0.5037
 3505TIP3    H231931   2.437   6.214  16.515  1.2003 -0.9307 -1.4415
 3506TIP3   OH231932   3.943   4.725  15.563  0.4784 -0.0014  0.8188
 3506TIP3    H131933   3.965   4.638  15.528  1.6327  0.0466  1.3897
 3506TIP3    H231934   4.027   4.770  15.570 -0.1910  1.4859 -0.2553
 3507TIP3   OH231935   5.702   0.123  15.258 -0.6598  0.1477 -0.2686
 3507TIP3    H131936   5.726   0.212  15.233 -0.3400 -0.2963 -1.6105
 3507TIP3    H231937   5.745   0.067  15.194 -3.5573 -0.8091 -1.5439
 3508TIP3   OH231938   3.259   1.425  14.102  0.3889 -0.3945  0.2018
 3508TIP3    H131939   3.322   1.498  14.103 -1.1788  1.0081  0.8825
 3508TIP3    H231940   3.278   1.376  14.183  0.0766  0.5056  0.8318
 3509TIP3   OH231941   1.214   6.088   3.799 -0.0730  0.7008 -0.2319
 3509TIP3    H131942   1.149   6.096   3.729  0.7765  0.7416 -1.0359
 3509TIP3    H231943   1.282   6.032   3.762  0.2564  0.4867  0.6740
 3510TIP3   OH231944   5.868   5.493   4.877  0.1598 -0.3712  0.0797
 3510TIP3    H131945   5.816   5.461   4.951 -0.5088 -0.0648 -0.2413
 3510TIP3    H231946   5.920   5.564   4.914 -0.1406 -0.2454  0.2720
 3511TIP3   OH231947   3.428   0.299   5.783 -0.3638 -0.1419  0.0320
 3511TIP3    H131948   3.340   0.336   5.791  0.5699  2.1444  0.8153
 3511TIP3    H231949   3.459   0.331   5.698 -0.0496 -0.3479  0.0685
 3512TIP3   OH231950   6.520   3.647  15.342 -0.2081  0.3217 -0.2925
 3512TIP3    H131951   6.582   3.598  15.288 -1.2787 -1.1252 -0.2901
 3512TIP3    H231952   6.515   3.733  15.302 -0.2936 -0.4394 -2.0017
 3513TIP3   OH231953   5.911   2.206   1.264 -0.1606 -0.1078  0.0997
 3513TIP3    H131954   5.881   2.274   1.325  1.0679 -0.0694  0.6939
 3513TIP3    H231955   5.836   2.190   1.207 -1.2301  0.1249  1.3892
 3514TIP3   OH231956   2.842   0.641   1.399  0.3192  0.5300 -0.2620
 3514TIP3    H131957   2.918   0.676   1.445 -1.2283  2.0287  1.3184
 3514TIP3    H231958   2.837   0.692   1.318  1.6941 -0.4935 -1.0403
 3515TIP3   OH231959   1.666   6.390   3.959 -0.3513 -0.9130 -0.1625
 3515TIP3    H131960   1.709   6.328   4.018  0.4620 -0.2095  0.0173
 3515TIP3    H231961   1.646   6.339   3.880 -0.5725 -1.6247  0.3460
 3516TIP3   OH231962   1.633   1.540   0.665 -0.0927  0.6306  0.0667
 3516TIP3    H131963   1.606   1.517   0.576 -3.7286  0.6085  0.9985
 3516TIP3    H231964   1.614   1.634   0.671  0.4310  0.6965  0.7468
 3517TIP3   OH231965   3.443   2.422  17.159 -0.1416 -0.0699  0.2375
 3517TIP3    H131966   3.537   2.435  17.170 -0.2278 -0.1540  1.2397
 3517TIP3    H231967   3.435   2.346  17.102  0.3839  0.9171 -1.1902
 3518TIP3   OH231968   2.769   1.609   1.976  0.2637  0.1580 -0.1214
 3518TIP3    H131969   2.771   1.696   1.936 -0.1810  0.2026 -0.0565
 3518TIP3    H231970   2.717   1.621   2.056 -0.1186 -0.2416 -0.3039
 3519TIP3   OH231971   1.815   2.806  14.897 -0.8093  0.1659 -0.7328
 3519TIP3    H131972   1.780   2.895  14.901 -0.7306  0.3858 -3.2909
 3519TIP3    H231973   1.755   2.753  14.949 -0.6320  1.7308  1.1788
 3520TIP3   OH231974   4.236   5.315   5.048 -0.0321  0.1371  0.0457
 3520TIP3    H131975   4.194   5.290   4.966  0.6525  0.5492 -0.4408
 3520TIP3    H231976   4.303   5.378   5.023  2.0437 -1.7167  0.5628
 3521TIP3   OH231977   3.680   2.904   2.175  0.2248  0.3294 -0.0035
 3521TIP3    H131978   3.712   2.977   2.122  0.6305 -0.5298 -1.0026
 3521TIP3    H231979   3.586   2.902   2.160  0.2469  0.5133 -0.1677
 3522TIP3   OH231980   5.055   4.753  15.689 -0.2870 -0.2048  0.2728
 3522TIP3    H131981   5.107   4.766  15.769 -1.0284 -0.7880  0.8593
 3522TIP3    H231982   5.097   4.679  15.646  0.0168  0.0067  0.2031
 3523TIP3   OH231983   4.357   0.206  17.177  0.0174  0.1151 -0.1448
 3523TIP3    H131984   4.268   0.223  17.207  0.2684  0.2928  0.4990
 3523TIP3    H231985   4.376   0.117  17.205 -0.4518 -0.4526 -1.5057
 3524TIP3   OH231986   3.379   2.594  15.091 -0.1337 -0.7409 -0.8842
 3524TIP3    H131987   3.430   2.523  15.052 -0.0569 -0.7771 -0.7194
 3524TIP3    H231988   3.308   2.610  15.028  0.4090 -0.2980 -1.3905
 3525TIP3   OH231989   2.276   3.282  13.592 -0.6101 -0.3175  0.0264
 3525TIP3    H131990   2.188   3.296  13.628 -0.7330  1.0041 -0.7273
 3525TIP3    H231991   2.268   3.309  13.501  0.8377  0.8284  0.2122
 3526TIP3   OH231992   2.369   3.278  12.309  0.1597  0.0125 -0.1131
 3526TIP3    H131993   2.429   3.352  12.301  0.8709 -0.5071  0.2396
 3526TIP3    H231994   2.385   3.244  12.397 -1.8780  0.8818  0.6370
 3527TIP3   OH231995   1.788   0.431  17.148  0.5942 -0.2996  0.0570
 3527TIP3    H131996   1.744   0.479  17.218  3.1728 -0.4746  1.9083
 3527TIP3    H231997   1.729   0.358  17.128 -1.8233  1.6838 -0.4971
 3528TIP3   OH231998   5.570   5.779   1.081  0.3663 -0.0726  0.0109
 3528TIP3    H131999   5.478   5.786   1.107  0.3701 -2.7166  0.9923
 3528TIP3    H232000   5.568   5.767   0.987 -0.0360  2.8701 -0.4683
 3529TIP3   OH232001   5.766   4.930  16.057 -0.2907 -0.5294 -0.1559
 3529TIP3    H132002   5.826   4.909  15.986 -0.2653 -1.0376  0.0135
 3529TIP3    H232003   5.779   5.024  16.072  0.1171 -0.5378 -0.4392
 3530TIP3   OH232004   3.938   4.217  12.514 -0.1920 -0.3236  0.5876
 3530TIP3    H132005   3.941   4.126  12.484 -0.9333  0.1246 -0.9187
 3530TIP3    H232006   3.959   4.211  12.607  1.0000 -1.8964  0.2677
 3531TIP3   OH232007   4.269   1.602  11.392  0.3367 -0.2766 -0.9795
 3531TIP3    H132008   4.327   1.640  11.458 -0.4040 -3.4290  1.7414
 3531TIP3    H232009   4.320   1.531  11.353 -0.4604 -0.7541 -1.1743
 3532TIP3   OH232010   3.534   3.464   1.699 -0.4825 -0.1454  0.2288
 3532TIP3    H132011   3.557   3.460   1.606  1.5927 -0.6448  0.7208
 3532TIP3    H232012   3.498   3.377   1.718 -1.0864  0.0174 -0.1288
 3533TIP3   OH232013   6.108   6.152  13.523 -0.3033 -0.7114  0.4211
 3533TIP3    H132014   6.201   6.166  13.541 -0.4737 -0.2569  0.9729
 3533TIP3    H232015   6.070   6.240  13.522 -1.0143 -0.9760  1.7944
 3534TIP3   OH232016   5.607   2.787  14.500 -0.0101 -0.3977  0.4015
 3534TIP3    H132017   5.548   2.748  14.565 -0.2428  0.0018  0.4298
 3534TIP3    H232018   5.665   2.715  14.475 -0.4732 -0.7816  0.4142
 3535TIP3   OH232019   6.185   5.608   5.270 -0.5911 -0.1385  0.4673
 3535TIP3    H132020   6.199   5.563   5.187  2.5782 -2.4275  2.0213
 3535TIP3    H232021   6.238   5.688   5.264  2.1014 -1.7578  1.1996
 3536TIP3   OH232022   1.021   3.081  15.535  0.2640 -0.0840 -0.2918
 3536TIP3    H132023   1.066   2.998  15.552 -0.1940  0.0191  1.6664
 3536TIP3    H232024   0.934   3.055  15.505  0.5325 -0.2914 -0.9111
 3537TIP3   OH232025   4.004   3.525   1.033  0.0534 -0.0800  0.1820
 3537TIP3    H132026   4.005   3.485   0.946 -0.6033  0.3640 -0.0358
 3537TIP3    H232027   4.088   3.571   1.039 -0.1099  0.2910 -0.4058
 3538TIP3   OH232028   5.090   5.790   1.316  0.1065  0.4867  0.3390
 3538TIP3    H132029   5.034   5.716   1.335 -0.2519  0.6490 -0.0640
 3538TIP3    H232030   5.150   5.796   1.390 -0.5192  0.4152  0.8484
 3539TIP3   OH232031   4.988   1.798   3.809  0.2722  0.2971  0.3474
 3539TIP3    H132032   5.020   1.887   3.825  0.7299  0.0478  0.8568
 3539TIP3    H232033   4.914   1.809   3.750  0.3648  1.0135  0.3597
 3540TIP3   OH232034   3.915   5.639   4.207  0.4277  0.2056  0.1447
 3540TIP3    H132035   3.829   5.632   4.166  0.0187  1.3328  0.7904
 3540TIP3    H232036   3.948   5.724   4.179  1.9018 -0.7070 -1.1270
 3541TIP3   OH232037   3.509   4.973  11.333  0.0459 -0.2036 -0.2353
 3541TIP3    H132038   3.423   4.986  11.373 -0.0560  0.1157 -0.5540
 3541TIP3    H232039   3.508   5.028  11.255 -0.0469 -1.4310 -1.1348
 3542TIP3   OH232040   5.258   5.767  14.994  0.4549  0.1744  0.4599
 3542TIP3    H132041   5.165   5.752  14.974  0.6760 -0.5826 -0.0327
 3542TIP3    H232042   5.305   5.729  14.920  1.1759  0.1672  0.9100
 3543TIP3   OH232043   5.601   3.328   5.422 -0.6314  0.0074  0.6517
 3543TIP3    H132044   5.579   3.235   5.418  1.8397 -0.6114 -1.7147
 3543TIP3    H232045   5.662   3.335   5.495  0.6787 -0.6825 -0.3295
 3544TIP3   OH232046   5.647   4.151   5.928  0.5675  1.2372 -0.5670
 3544TIP3    H132047   5.699   4.082   5.968  1.0435  0.5723 -2.2546
 3544TIP3    H232048   5.656   4.137   5.833 -3.0857  0.7674 -0.9931
 3545TIP3   OH232049   4.995   6.034   3.555 -0.0916 -0.3560  0.0248
 3545TIP3    H132050   4.914   6.057   3.602  0.6791 -0.1775  1.3000
 3545TIP3    H232051   4.991   5.939   3.547 -0.0581 -0.4226  0.7774
 3546TIP3   OH232052   2.991   3.671   4.750  0.2723 -0.2830 -0.3895
 3546TIP3    H132053   3.071   3.630   4.716  1.3120  0.5994  0.9038
 3546TIP3    H232054   3.021   3.752   4.790 -1.0654 -0.6119  1.4030
 3547TIP3   OH232055   3.425   2.516  14.409 -0.8878 -0.2754 -0.1132
 3547TIP3    H132056   3.468   2.463  14.343  1.7728  2.1908 -0.5645
 3547TIP3    H232057   3.362   2.569  14.361 -1.7268 -1.1987 -0.0455
 3548TIP3   OH232058   3.533   5.746   5.540  0.0712 -0.0594  0.3156
 3548TIP3    H132059   3.521   5.651   5.538  1.6306 -0.2838 -1.4408
 3548TIP3    H232060   3.590   5.761   5.616  2.0072 -0.9124 -0.8739
 3549TIP3   OH232061   2.625   2.735  15.178  0.1275 -0.2455  0.0118
 3549TIP3    H132062   2.631   2.830  15.193  1.8402 -0.4763  1.0723
 3549TIP3    H232063   2.534   2.721  15.151 -0.4900  1.5367  0.9673
 3550TIP3   OH232064   5.430   2.384  12.318 -0.5811 -0.1512  0.2697
 3550TIP3    H132065   5.434   2.390  12.223 -0.3616  0.3108  0.3046
 3550TIP3    H232066   5.397   2.296  12.335  1.8023 -1.1996 -0.1776
 3551TIP3   OH232067   6.123   4.037   0.500 -0.0901 -0.3739  0.4031
 3551TIP3    H132068   6.104   4.128   0.478 -0.2774 -0.7877 -1.2491
 3551TIP3    H232069   6.037   3.997   0.514  0.0275 -0.0493  2.3573
 3552TIP3   OH232070   5.804   5.777   5.905 -0.3622 -0.3368  0.0282
 3552TIP3    H132071   5.895   5.750   5.894  0.4825  1.3414  2.1797
 3552TIP3    H232072   5.767   5.714   5.966  0.0163  0.2071  0.8335
 3553TIP3   OH232073   0.776   1.084   3.485 -0.1128  0.8736 -0.0653
 3553TIP3    H132074   0.859   1.111   3.445  0.3149 -0.2034  0.0706
 3553TIP3    H232075   0.722   1.163   3.483  0.5870  1.3509 -0.9984
 3554TIP3   OH232076   3.077   1.349  16.086  0.1452 -0.0797  0.1820
 3554TIP3    H132077   3.056   1.389  16.171  1.4752 -0.4183  0.6841
 3554TIP3    H232078   3.113   1.420  16.034  2.0682 -0.4686  0.9158
 3555TIP3   OH232079   4.034   1.918  15.793  0.0649 -0.0278  0.0370
 3555TIP3    H132080   4.092   1.862  15.742 -2.0405 -1.7462 -0.5893
 3555TIP3    H232081   4.007   1.864  15.867  1.5006  1.7642  2.0081
 3556TIP3   OH232082   0.696   5.125  15.082 -0.4675  0.1733 -0.0537
 3556TIP3    H132083   0.658   5.136  14.995  0.1086 -1.2034 -0.5085
 3556TIP3    H232084   0.790   5.134  15.069 -0.5125  2.6624  0.9167
 3557TIP3   OH232085   5.129   6.078   0.864  0.2268  0.5734  0.5354
 3557TIP3    H132086   5.039   6.097   0.890  0.1890  0.4190  0.5192
 3557TIP3    H232087   5.145   5.989   0.898  0.6497  0.9173  1.2661
 3558TIP3   OH232088   6.763   1.826   3.800 -0.3947 -0.2245  0.5020
 3558TIP3    H132089   6.695   1.812   3.866  0.5090  1.1230  1.7896
 3558TIP3    H232090   6.821   1.751   3.809 -2.0160 -1.7830 -1.1215
 3559TIP3   OH232091   1.872   4.813   1.965 -0.3406  0.0065 -0.0773
 3559TIP3    H132092   1.826   4.730   1.975  1.2858 -1.6416 -4.1064
 3559TIP3    H232093   1.813   4.866   1.911 -0.0314  0.1998 -0.2291
 3560TIP3   OH232094   4.049   1.474   3.875  0.7291  0.3416  0.8526
 3560TIP3    H132095   4.139   1.454   3.848  0.2491 -2.9901  1.2157
 3560TIP3    H232096   4.004   1.494   3.793  1.8314  2.6483  0.7269
 3561TIP3   OH232097   0.422   3.828  15.949  0.3860 -0.1446 -0.2454
 3561TIP3    H132098   0.391   3.738  15.938 -0.3027  0.3705 -3.4837
 3561TIP3    H232099   0.513   3.826  15.921  1.8934 -0.5249  3.8702
 3562TIP3   OH232100   2.305   3.939  14.683  0.1666 -0.3345  0.7229
 3562TIP3    H132101   2.329   3.884  14.758  0.4627 -1.3988 -0.1300
 3562TIP3    H232102   2.224   3.900  14.650 -1.7960  2.0500  2.3793
 3563TIP3   OH232103   6.308   0.784  11.232 -0.1688 -0.1630  0.2839
 3563TIP3    H132104   6.367   0.741  11.294 -0.4910  0.0055  0.7174
 3563TIP3    H232105   6.257   0.844  11.286  1.4238  2.0462 -0.5528
 3564TIP3   OH232106   2.049   0.193  12.875 -0.1430 -0.0285  0.5672
 3564TIP3    H132107   1.967   0.223  12.837 -0.3260  1.7389  2.1888
 3564TIP3    H232108   2.052   0.234  12.961  3.7925  2.5355 -0.4967
 3565TIP3   OH232109   4.494   0.286   5.203  0.2099 -0.0452 -0.3875
 3565TIP3    H132110   4.478   0.209   5.149 -0.4406  0.6447 -1.2122
 3565TIP3    H232111   4.482   0.360   5.143  2.3534  0.6654 -0.0144
 3566TIP3   OH232112   0.839   0.601  10.939  0.0227 -0.0344  0.2261
 3566TIP3    H132113   0.757   0.609  10.891  0.8061 -0.5439 -1.2696
 3566TIP3    H232114   0.897   0.666  10.898  0.9838 -1.1069 -0.1745
 3567TIP3   OH232115   5.774   4.102  12.109 -0.1039 -0.0773  0.1133
 3567TIP3    H132116   5.740   4.144  12.030  0.0176 -1.2847 -0.6078
 3567TIP3    H232117   5.729   4.018  12.113  1.8830 -1.2254 -0.2377
 3568TIP3   OH232118   4.580   0.278  14.703  0.1871 -0.1621  0.0169
 3568TIP3    H132119   4.506   0.326  14.739  1.3420  3.7127 -2.1187
 3568TIP3    H232120   4.648   0.284  14.770  0.1097  0.7218  0.0304
 3569TIP3   OH232121   1.177   3.009   4.197  0.4717 -0.5941 -0.4651
 3569TIP3    H132122   1.094   2.975   4.230 -0.7193  0.8375 -1.8728
 3569TIP3    H232123   1.230   3.023   4.275 -1.6483  1.1213  0.7693
 3570TIP3   OH232124   2.302   2.368  12.550 -0.0151 -0.0223 -0.2683
 3570TIP3    H132125   2.321   2.280  12.516  1.1461  0.0818  0.0563
 3570TIP3    H232126   2.342   2.427  12.486  1.6180  0.1903  0.8986
 3571TIP3   OH232127   5.458   1.284   0.977 -0.1715 -0.2223  0.1849
 3571TIP3    H132128   5.553   1.287   0.974 -0.1336 -0.9989 -2.5978
 3571TIP3    H232129   5.430   1.365   0.934 -0.6465 -1.3497 -1.7297
 3572TIP3   OH232130   4.486   0.425   1.515  0.2883 -0.2358 -0.5266
 3572TIP3    H132131   4.453   0.339   1.541 -0.2171  0.7223  2.5112
 3572TIP3    H232132   4.581   0.413   1.509  0.2274 -1.0271 -0.1267
 3573TIP3   OH232133   0.663   4.427   0.930 -0.5860  0.3094  0.1844
 3573TIP3    H132134   0.704   4.513   0.914  0.3627 -0.1668 -0.0047
 3573TIP3    H232135   0.731   4.376   0.973 -0.2330 -1.1813 -2.0287
 3574TIP3   OH232136   6.008   1.723   0.972 -0.5289 -0.1723 -0.2734
 3574TIP3    H132137   6.066   1.757   0.904  0.0795 -0.9357 -0.1490
 3574TIP3    H232138   5.931   1.692   0.925 -0.8692  0.8877 -0.4375
 3575TIP3   OH232139   0.697   0.278  14.559 -0.3343 -0.4564 -0.9114
 3575TIP3    H132140   0.651   0.258  14.641  0.7677 -0.9436 -0.3967
 3575TIP3    H232141   0.639   0.340  14.514 -1.4343 -0.9591 -0.2361
 3576TIP3   OH232142   5.710   4.218  13.848  0.6742 -0.4065 -0.0530
 3576TIP3    H132143   5.664   4.289  13.802  0.4716 -0.2090  0.4488
 3576TIP3    H232144   5.763   4.176  13.780 -0.0129 -0.4453 -0.5798
 3577TIP3   OH232145   4.882   0.046   3.646  0.0055 -0.0907 -0.2327
 3577TIP3    H132146   4.879   0.102   3.568  1.1176 -0.6449 -0.6957
 3577TIP3    H232147   4.965   0.000   3.639 -0.0263 -0.3942  1.1279
 3578TIP3   OH232148   4.327   1.165  14.193 -0.5190  0.0648 -0.0088
 3578TIP3    H132149   4.325   1.072  14.171 -1.5642  0.0803 -0.0393
 3578TIP3    H232150   4.396   1.173  14.258  0.1133 -0.5987 -0.5776
 3579TIP3   OH232151   1.393   3.303  14.434 -0.4585  0.3287  0.0903
 3579TIP3    H132152   1.404   3.298  14.339 -0.0263 -0.0015  0.1556
 3579TIP3    H232153   1.386   3.212  14.462  2.1308  0.2526  0.6795
 3580TIP3   OH232154   6.720   1.564   4.355  0.6104 -0.2530 -0.6165
 3580TIP3    H132155   6.788   1.501   4.329  1.3746 -0.1314  1.0209
 3580TIP3    H232156   6.681   1.526   4.434 -0.0515  0.5376 -0.5546
 3581TIP3   OH232157   1.563   4.431   3.998 -0.2024  0.2007 -0.5007
 3581TIP3    H132158   1.481   4.479   3.995  0.6977  1.7853 -1.2875
 3581TIP3    H232159   1.624   4.485   3.947  1.8260  0.1054  1.6040
 3582TIP3   OH232160   1.390   1.781   3.410  0.5026 -0.0407 -0.5204
 3582TIP3    H132161   1.408   1.708   3.350  0.5645 -1.3880  1.0869
 3582TIP3    H232162   1.295   1.785   3.415  0.4380 -2.3475  2.0308
 3583TIP3   OH232163   4.418   0.084  11.911 -0.3334 -0.0884 -0.0431
 3583TIP3    H132164   4.427   0.031  11.833 -0.1957  1.0481 -0.8209
 3583TIP3    H232165   4.508   0.104  11.937 -0.3205 -1.4895  1.1698
 3584TIP3   OH232166   5.343   1.204   5.042  0.1014  0.1385  0.4612
 3584TIP3    H132167   5.302   1.183   5.126  0.0020  1.5200  0.7821
 3584TIP3    H232168   5.391   1.124   5.018 -0.4826 -0.5296  1.4528
 3585TIP3   OH232169   5.971   5.465  12.239 -0.2362 -0.5797 -0.0821
 3585TIP3    H132170   5.879   5.484  12.225 -0.1536 -1.6269 -2.5098
 3585TIP3    H232171   6.016   5.508  12.166  1.0711 -1.0725  0.3915
 3586TIP3   OH232172   3.318   2.069  16.620 -0.2631 -0.3375 -0.6245
 3586TIP3    H132173   3.293   2.160  16.610 -0.9581 -0.5373 -0.7097
 3586TIP3    H232174   3.262   2.021  16.559  0.0887 -0.8231 -0.5767
 3587TIP3   OH232175   0.489   3.764   4.043  0.8460 -0.3768  0.1625
 3587TIP3    H132176   0.463   3.764   4.135 -0.1032 -1.5034 -0.0828
 3587TIP3    H232177   0.555   3.696   4.037  0.7331 -0.4694 -0.0347
 3588TIP3   OH232178   4.542   3.897   0.959 -0.1593 -0.1926 -0.0050
 3588TIP3    H132179   4.523   3.846   1.038  0.6685 -2.7405 -1.3446
 3588TIP3    H232180   4.456   3.919   0.924 -0.5804 -1.6743  0.0392
 3589TIP3   OH232181   0.997   6.764   2.984  0.2227  0.0822  0.3376
 3589TIP3    H132182   0.956   6.709   3.051  0.3876 -1.0358 -0.4412
 3589TIP3    H232183   1.066   6.709   2.948  0.7913  1.0396 -0.0583
 3590TIP3   OH232184   0.299   0.039   3.409 -0.2524  0.3355 -0.3617
 3590TIP3    H132185   0.216   0.084   3.391 -0.2481  1.2259  1.6336
 3590TIP3    H232186   0.359   0.108   3.435  0.3149 -0.5956  0.9001
 3591TIP3   OH232187   0.641   0.032   0.141  0.4339  0.3748 -0.3546
 3591TIP3    H132188   0.681  -0.043   0.187 -0.5333 -0.3203 -0.6185
 3591TIP3    H232189   0.547   0.021   0.156  0.1447  0.4837 -1.9691
 3592TIP3   OH232190   2.969   0.427   2.209 -0.0498  0.5528 -0.4006
 3592TIP3    H132191   3.039   0.392   2.264 -0.7844  0.9081  0.8038
 3592TIP3    H232192   3.008   0.503   2.166  0.1331  1.1242  0.7448
 3593TIP3   OH232193   1.771   6.443  16.706 -0.4634  0.9668  0.3089
 3593TIP3    H132194   1.850   6.445  16.652  0.0284  0.1916  0.9677
 3593TIP3    H232195   1.709   6.391  16.655 -0.6670  1.8522 -0.3564
 3594TIP3   OH232196   1.969   2.440  14.505 -0.2869  0.1565  0.0830
 3594TIP3    H132197   2.025   2.441  14.582  1.2167  0.0620 -0.9768
 3594TIP3    H232198   1.947   2.347  14.492 -0.4405  0.1599  0.3101
 3595TIP3   OH232199   0.650   6.110  12.088 -0.5077  0.1765 -0.2162
 3595TIP3    H132200   0.617   6.062  12.164 -0.0924 -0.6124 -0.5249
 3595TIP3    H232201   0.742   6.125  12.108 -0.3602 -0.1674 -0.6252
 3596TIP3   OH232202   6.292   2.265   1.896 -0.1083 -0.4744  0.0883
 3596TIP3    H132203   6.311   2.250   1.989  0.1248 -0.1255  0.0984
 3596TIP3    H232204   6.362   2.218   1.850  0.0896 -0.1962  0.1019
 3597TIP3   OH232205   6.139   1.167  14.459 -0.3505 -0.1482  0.1764
 3597TIP3    H132206   6.229   1.196  14.475 -0.2885  0.9112 -1.7518
 3597TIP3    H232207   6.149   1.095  14.396 -0.8808  1.3212 -1.6874
 3598TIP3   OH232208   2.889   2.713  16.208 -0.1829  0.2458  0.3788
 3598TIP3    H132209   2.880   2.618  16.194 -0.1782  0.2699  0.2013
 3598TIP3    H232210   2.900   2.749  16.120  0.1815  0.3728  0.4758
 3599TIP3   OH232211   2.793   5.182  15.251  0.2587  1.1052 -0.8905
 3599TIP3    H132212   2.731   5.255  15.242 -0.1075  0.8598 -0.4357
 3599TIP3    H232213   2.746   5.118  15.305  0.3980  0.3356 -1.6522
 3600TIP3   OH232214   6.725   1.778   2.338 -0.3125 -0.0328 -0.2396
 3600TIP3    H132215   6.727   1.872   2.319  1.6104  0.0407  0.0417
 3600TIP3    H232216   6.735   1.736   2.253 -0.3050  0.0529 -0.2812
 3601TIP3   OH232217   1.263   6.098  12.330  0.0055 -0.0044 -0.1757
 3601TIP3    H132218   1.174   6.111  12.362  0.1803 -0.1299  0.3691
 3601TIP3    H232219   1.285   6.180  12.286  0.2552  0.7020  1.2151
 3602TIP3   OH232220   3.448   0.823  14.697  0.3965  0.1901  0.0284
 3602TIP3    H132221   3.361   0.786  14.680  0.9601 -2.1322  1.8051
 3602TIP3    H232222   3.508   0.764  14.652  1.1157  1.5666 -0.8652
 3603TIP3   OH232223   4.528   5.145  14.282 -0.3386  0.3397  0.2599
 3603TIP3    H132224   4.520   5.206  14.356  0.0264 -1.2944  1.6938
 3603TIP3    H232225   4.444   5.099  14.279 -0.5719  0.7963 -0.7456
 3604TIP3   OH232226   1.368   4.404   5.320 -1.1818  0.3045  0.6034
 3604TIP3    H132227   1.344   4.496   5.327  0.4662  0.9240 -1.0258
 3604TIP3    H232228   1.338   4.378   5.233  0.2854 -0.0399  0.1758
 3605TIP3   OH232229   3.541   5.972  15.911  0.0264  0.1845 -0.1988
 3605TIP3    H132230   3.470   6.037  15.908  0.6943  0.8915 -1.0363
 3605TIP3    H232231   3.600   6.003  15.980  0.8868  1.0621 -1.3014
 3606TIP3   OH232232   1.720   3.926   1.721 -0.0966 -0.3540  0.2276
 3606TIP3    H132233   1.745   3.926   1.628  1.7043  1.4973  0.6418
 3606TIP3    H232234   1.802   3.941   1.768 -1.3015  1.1751  1.9879
 3607TIP3   OH232235   5.294   3.914  13.586 -0.9696 -0.5287 -0.6245
 3607TIP3    H132236   5.251   4.000  13.588 -2.7369 -1.3613 -0.2628
 3607TIP3    H232237   5.345   3.911  13.667 -0.3141  0.4487 -0.9911
 3608TIP3   OH232238   3.768   5.476   4.446 -0.1696 -0.0455  0.1156
 3608TIP3    H132239   3.833   5.443   4.508  1.1197 -0.3893 -1.3594
 3608TIP3    H232240   3.817   5.494   4.366 -1.8650 -0.1808 -1.0253
 3609TIP3   OH232241   4.777   6.354  10.812 -0.3000  0.1353  0.1091
 3609TIP3    H132242   4.782   6.447  10.791  0.6863  0.7181  2.5871
 3609TIP3    H232243   4.846   6.313  10.760  0.1664  1.0304  0.0163
 3610TIP3   OH232244   0.328   2.752   3.511  0.7515  0.1382 -0.4759
 3610TIP3    H132245   0.262   2.781   3.448 -0.3670  2.8844  1.7552
 3610TIP3    H232246   0.411   2.785   3.476  0.4087  0.1036 -1.3492
 3611TIP3   OH232247   4.562   1.307  12.192 -0.1260  0.1536  0.1126
 3611TIP3    H132248   4.507   1.238  12.229 -0.2752  0.4528  0.4625
 3611TIP3    H232249   4.522   1.388  12.223  0.1097  0.3960 -0.2049
 3612TIP3   OH232250   0.848   4.554  12.547  0.3525  0.0754  0.9614
 3612TIP3    H132251   0.786   4.528  12.478 -0.2223 -1.5159  2.0038
 3612TIP3    H232252   0.793   4.596  12.613  0.9531  1.9391  0.3322
 3613TIP3   OH232253   5.303   1.717  12.029  0.2358 -0.2239  0.1460
 3613TIP3    H132254   5.268   1.731  11.942 -0.1507  0.1857  0.3625
 3613TIP3    H232255   5.333   1.803  12.057  0.6480 -0.4135  0.2928
 3614TIP3   OH232256   1.415   1.044   3.467 -0.3482 -0.0077 -0.6674
 3614TIP3    H132257   1.335   1.071   3.511 -0.0922  0.6620 -0.6067
 3614TIP3    H232258   1.485   1.090   3.514 -0.1237  1.2927 -2.1984
 3615TIP3   OH232259   2.667   6.534  12.936  0.0424  0.4278  0.1943
 3615TIP3    H132260   2.718   6.530  13.017 -0.5842 -0.0029  0.5796
 3615TIP3    H232261   2.713   6.477  12.875 -0.1597 -0.2251  0.6457
 3616TIP3   OH232262   2.845   4.656   2.037 -0.0287 -0.4068 -0.3117
 3616TIP3    H132263   2.906   4.712   2.086  0.6239 -2.0827  0.8865
 3616TIP3    H232264   2.884   4.649   1.950  0.1867  0.4883 -0.2999
 3617TIP3   OH232265   3.300   1.141  17.007  0.0464  0.8243  0.4226
 3617TIP3    H132266   3.372   1.149  16.945  1.5232  1.4287  2.1083
 3617TIP3    H232267   3.307   1.051  17.040  0.0416  0.8927  0.6091
 3618TIP3   OH232268   6.544   4.211  13.910  0.0618 -0.4096  0.7148
 3618TIP3    H132269   6.454   4.208  13.941  0.1452 -1.7093  0.8681
 3618TIP3    H232270   6.596   4.231  13.988 -0.0602  0.0636  0.6782
 3619TIP3   OH232271   1.740   1.120  15.185 -0.9658 -0.0492  0.6876
 3619TIP3    H132272   1.824   1.077  15.199  1.0130  2.4958 -2.0836
 3619TIP3    H232273   1.742   1.196  15.243 -0.4997  0.9704 -0.6160
 3620TIP3   OH232274   1.753   3.992   4.084  0.0242  0.5410  0.0424
 3620TIP3    H132275   1.665   3.956   4.098  0.1620  0.2619  0.1989
 3620TIP3    H232276   1.760   4.002   3.989  0.6002 -1.4584 -0.1638
 3621TIP3   OH232277   3.674   1.154   3.103 -0.0271  0.4698  0.0041
 3621TIP3    H132278   3.717   1.125   3.183 -0.3001  2.6226  1.0224
 3621TIP3    H232279   3.745   1.165   3.040  0.4276  0.3606  0.4876
 3622TIP3   OH232280   0.227   3.209   1.658  0.2561  0.3538 -0.9793
 3622TIP3    H132281   0.221   3.255   1.575 -3.1601 -1.8807 -2.1630
 3622TIP3    H232282   0.302   3.150   1.647 -0.8401 -0.7415 -2.9969
 3623TIP3   OH232283   3.056   1.091   6.104 -0.5452  0.3758 -0.4842
 3623TIP3    H132284   3.068   1.034   6.028  1.9879 -0.0405  0.1260
 3623TIP3    H232285   3.019   1.033   6.171 -1.1745  0.3172 -0.8744
 3624TIP3   OH232286   6.658   3.291  11.758 -1.0179  0.5927  0.2621
 3624TIP3    H132287   6.733   3.300  11.817  0.1837  0.3160 -1.1653
 3624TIP3    H232288   6.621   3.205  11.780 -1.1058  0.8491  1.1654
 3625TIP3   OH232289   5.760   0.938   4.918  0.3716 -0.2922 -0.0852
 3625TIP3    H132290   5.833   0.933   4.980  1.4565  1.8132 -1.0797
 3625TIP3    H232291   5.799   0.914   4.834  0.2632  1.8432 -0.8210
 3626TIP3   OH232292   1.572   3.183   2.211 -0.0869 -0.1762 -1.0203
 3626TIP3    H132293   1.622   3.197   2.291 -2.1480 -0.9234  0.4787
 3626TIP3    H232294   1.590   3.092   2.187 -1.4477 -0.7986  0.1355
 3627TIP3   OH232295   1.570   2.726   0.083 -0.2431  0.2350 -0.3436
 3627TIP3    H132296   1.485   2.744   0.124  0.9036  1.1842  1.7640
 3627TIP3    H232297   1.630   2.711   0.156  1.3535 -0.8181 -1.7890
 3628TIP3   OH232298   5.900   6.361   0.659  0.2612  0.3579  0.0175
 3628TIP3    H132299   5.888   6.280   0.609  0.6689  1.4481 -1.9702
 3628TIP3    H232300   5.984   6.349   0.704  0.2871 -0.3463 -0.2025
 3629TIP3   OH232301   3.377   6.615  16.877  0.1237 -0.0059 -0.2358
 3629TIP3    H132302   3.335   6.674  16.815  0.4332  1.3509  0.7833
 3629TIP3    H232303   3.459   6.660  16.900 -0.8902  0.5523  2.6441
 3630TIP3   OH232304   4.704   5.999   3.312 -0.6062  0.0892  0.4437
 3630TIP3    H132305   4.714   6.083   3.356  1.7899 -0.1281  0.4504
 3630TIP3    H232306   4.758   5.939   3.363 -1.4764 -1.2377 -0.1454
 3631TIP3   OH232307   5.471   0.861  11.562  0.4661 -0.6524  0.2569
 3631TIP3    H132308   5.444   0.912  11.486  1.1374  1.4329  1.3379
 3631TIP3    H232309   5.430   0.905  11.636 -0.0952 -2.5829  1.1387
 3632TIP3   OH232310   1.402   2.045  16.345 -0.0623 -0.2270 -0.5545
 3632TIP3    H132311   1.358   2.121  16.383  2.1095  0.6182  0.4655
 3632TIP3    H232312   1.409   2.065  16.252  2.5832  2.0919  0.0078
 3633TIP3   OH232313   5.749   3.137   2.933  0.3959  0.1079 -0.5343
 3633TIP3    H132314   5.706   3.061   2.972 -0.4300  0.2627 -1.1287
 3633TIP3    H232315   5.840   3.131   2.963 -0.0902 -0.0403  1.0136
 3634TIP3   OH232316   4.976   2.195  16.550  0.0322 -0.0907 -0.1770
 3634TIP3    H132317   4.886   2.177  16.520  0.3865  0.8527 -1.9280
 3634TIP3    H232318   4.998   2.119  16.604 -1.2871 -1.0572 -0.9221
 3635TIP3   OH232319   3.628   5.061   6.616 -0.4188  0.4757 -0.3759
 3635TIP3    H132320   3.636   5.096   6.528  2.3291 -1.0516 -0.8373
 3635TIP3    H232321   3.534   5.047   6.628 -1.0869  2.9621 -2.0807
 3636TIP3   OH232322   5.707   4.789  12.553 -0.7393  0.1290 -0.2745
 3636TIP3    H132323   5.767   4.719  12.578  0.3836  0.0475 -2.8903
 3636TIP3    H232324   5.626   4.743  12.530 -0.1842 -0.3163 -1.4452
 3637TIP3   OH232325   3.552   2.960  12.100  0.1604  0.2196  0.6723
 3637TIP3    H132326   3.554   2.890  12.035  2.9425  0.8908 -0.0855
 3637TIP3    H232327   3.643   2.989  12.107 -0.5579  2.2785  2.5945
 3638TIP3   OH232328   0.099   3.194  13.674  0.0505 -0.1889 -0.3223
 3638TIP3    H132329   0.060   3.273  13.638  0.7845 -0.1674 -1.1138
 3638TIP3    H232330   0.050   3.176  13.754  0.6603  1.7543  0.5373
 3639TIP3   OH232331   1.363   4.128  14.456  0.1949  0.2241 -0.1302
 3639TIP3    H132332   1.439   4.069  14.465  0.3162  0.5480  1.1514
 3639TIP3    H232333   1.379   4.196  14.521 -0.8201  0.7235 -0.4012
 3640TIP3   OH232334   4.688   1.563  14.713 -0.5564 -0.0754 -0.9448
 3640TIP3    H132335   4.745   1.517  14.775  0.2638  1.6923 -0.3064
 3640TIP3    H232336   4.613   1.505  14.702  0.6242 -1.7565 -0.5676
 3641TIP3   OH232337   0.951   3.275  16.951 -0.0106  0.2438  0.1959
 3641TIP3    H132338   0.905   3.205  16.999  1.1654 -0.2124  0.6877
 3641TIP3    H232339   0.883   3.315  16.896 -1.1282 -0.0386  1.3177
 3642TIP3   OH232340   6.687   1.973  13.792 -0.3611  0.1913  0.0994
 3642TIP3    H132341   6.773   1.952  13.756 -1.0980  0.3169 -1.8309
 3642TIP3    H232342   6.656   1.890  13.830  0.0792 -0.1703 -0.3174
 3643TIP3   OH232343   0.163   4.086  10.710 -0.5066 -0.1666  0.1290
 3643TIP3    H132344   0.108   4.150  10.664  0.4523  0.4783 -0.1418
 3643TIP3    H232345   0.222   4.139  10.764  0.9664 -0.7576 -0.8428
 3644TIP3   OH232346   0.344   5.374   3.146 -0.5196 -0.2954  0.2911
 3644TIP3    H132347   0.407   5.333   3.205  1.0663  0.9511 -0.4490
 3644TIP3    H232348   0.339   5.465   3.175 -0.0308  0.2346 -1.1820
 3645TIP3   OH232349   1.935   3.768   1.557 -0.6346  0.1745  0.1500
 3645TIP3    H132350   1.864   3.804   1.504 -0.3990 -1.1067 -1.0796
 3645TIP3    H232351   1.899   3.688   1.595 -0.6379  0.8169  1.5711
 3646TIP3   OH232352   0.481   6.290  11.945 -0.1340  0.5577  0.0896
 3646TIP3    H132353   0.528   6.232  12.005  0.1364  2.6150  2.0476
 3646TIP3    H232354   0.397   6.247  11.930  0.6324 -1.0452  0.1721
 3647TIP3   OH232355   0.520   0.287   2.311  0.3882  0.1339  0.0651
 3647TIP3    H132356   0.550   0.260   2.398  0.4191 -1.5215 -0.4277
 3647TIP3    H232357   0.444   0.343   2.327  1.8005  1.8137  1.2223
 3648TIP3   OH232358   3.440   3.573  15.693  0.1298  0.2511 -0.5133
 3648TIP3    H132359   3.504   3.520  15.740 -0.5919 -0.3616 -0.2021
 3648TIP3    H232360   3.464   3.562  15.600  0.9342  0.6538 -0.3681
 3649TIP3   OH232361   1.429   4.111  13.207  0.0740 -0.1713 -0.0514
 3649TIP3    H132362   1.458   4.169  13.136 -0.9941 -0.2102 -0.5426
 3649TIP3    H232363   1.486   4.035  13.202  3.3742  1.8923  2.3215
 3650TIP3   OH232364   3.212   5.176   2.907  0.4099 -0.5461 -0.3001
 3650TIP3    H132365   3.193   5.243   2.841  0.0693 -1.0618 -0.7383
 3650TIP3    H232366   3.280   5.215   2.962  0.1019  0.2186 -0.4454
 3651TIP3   OH232367   2.988   2.364  15.719 -0.4102 -0.1190 -0.0321
 3651TIP3    H132368   2.935   2.398  15.646  0.0428 -2.1302 -1.3863
 3651TIP3    H232369   2.948   2.281  15.741  0.2589 -0.1470  1.1521
 3652TIP3   OH232370   4.666   5.715   1.167  0.1482  0.1422  0.0329
 3652TIP3    H132371   4.712   5.724   1.083  1.8789 -0.1953  0.8949
 3652TIP3    H232372   4.691   5.628   1.198 -1.2746 -0.1286  0.4548
 3653TIP3   OH232373   3.332   5.704  14.669 -0.1622 -0.2914  0.1088
 3653TIP3    H132374   3.358   5.784  14.715 -0.9232  0.3345 -0.5061
 3653TIP3    H232375   3.302   5.735  14.584 -1.0209 -1.1721  0.0779
 3654TIP3   OH232376   3.750   6.277  13.441 -0.1015 -0.2333  0.4455
 3654TIP3    H132377   3.678   6.214  13.436 -0.7022  0.3946  1.0070
 3654TIP3    H232378   3.827   6.223  13.456 -0.7217 -0.8134  1.8206
 3655TIP3   OH232379   6.047   5.171  16.139 -0.0469  0.3287 -0.2944
 3655TIP3    H132380   6.034   5.220  16.221  1.3548  0.1972  0.0157
 3655TIP3    H232381   5.977   5.204  16.081 -1.2492  0.2153  1.0244
 3656TIP3   OH232382   6.725   6.690  15.981  0.3280 -0.3021 -0.4608
 3656TIP3    H132383   6.766   6.611  15.945 -0.7502 -0.5699 -1.1464
 3656TIP3    H232384   6.646   6.658  16.024  0.2827  0.3246 -0.0671
 3657TIP3   OH232385   5.616   1.784  11.032 -0.0747 -0.1150 -0.1481
 3657TIP3    H132386   5.696   1.837  11.035 -0.7541  0.9200  0.4957
 3657TIP3    H232387   5.545   1.848  11.040 -0.9258 -1.1206  0.6405
 3658TIP3   OH232388   2.296   1.676   4.822 -0.4594  0.3209  0.2105
 3658TIP3    H132389   2.242   1.601   4.846 -1.8657  0.8347 -1.2007
 3658TIP3    H232390   2.386   1.645   4.836 -1.0121 -1.4524  0.1706
 3659TIP3   OH232391   4.165   3.516  11.441  0.1849 -0.0997 -0.5342
 3659TIP3    H132392   4.163   3.421  11.434 -0.3275 -0.0568 -1.0320
 3659TIP3    H232393   4.144   3.534  11.533 -0.0208 -0.4546 -0.5102
 3660TIP3   OH232394   4.461   3.097   5.645  1.2657  0.0615  0.2890
 3660TIP3    H132395   4.502   3.084   5.731  1.2314  1.6652  0.5798
 3660TIP3    H232396   4.482   3.187   5.622  1.9440 -0.5629 -1.7794
 3661TIP3   OH232397   1.171   1.094  11.413 -0.4182  0.3808 -0.0250
 3661TIP3    H132398   1.093   1.145  11.433  0.3283  1.6350 -0.2041
 3661TIP3    H232399   1.196   1.121  11.325  0.4487  0.3061  0.1880
 3662TIP3   OH232400   0.228   0.056  15.593  0.1094 -0.9735 -0.2533
 3662TIP3    H132401   0.259   0.092  15.509  2.6993  1.4923  1.5716
 3662TIP3    H232402   0.142   0.096  15.606  0.6486  0.4014 -0.7293
 3663TIP3   OH232403   5.638   5.207   3.811  0.8042  0.1408 -0.1442
 3663TIP3    H132404   5.559   5.168   3.849 -1.0142  2.3715 -1.4116
 3663TIP3    H232405   5.656   5.283   3.866  1.5110  0.1743 -0.4225
 3664TIP3   OH232406   5.495   0.515   4.342 -0.6795  0.3863 -0.4553
 3664TIP3    H132407   5.481   0.603   4.306 -0.0368  0.5716 -0.2615
 3664TIP3    H232408   5.409   0.489   4.375 -0.6509  1.3680  0.4321
 3665TIP3   OH232409   6.449   1.772  13.783  0.1874  0.0733 -0.7520
 3665TIP3    H132410   6.456   1.865  13.806 -1.2882 -0.0098  0.1503
 3665TIP3    H232411   6.510   1.729  13.842 -0.4643  0.3060  0.1187
 3666TIP3   OH232412   2.905   0.466  11.022  0.3521 -0.1420  0.2117
 3666TIP3    H132413   2.888   0.504  10.936  1.6978 -1.0984 -0.4984
 3666TIP3    H232414   2.981   0.514  11.055  0.6494 -0.6771  0.3029
 3667TIP3   OH232415   6.565   1.033  11.177  0.1263  0.0641  0.2414
 3667TIP3    H132416   6.632   0.990  11.229  1.0385  1.6559  0.4395
 3667TIP3    H232417   6.546   1.115  11.223  0.6213  1.3041 -1.6100
 3668TIP3   OH232418   2.253   0.068  13.051  0.0890  0.1790 -0.4545
 3668TIP3    H132419   2.255  -0.006  13.111 -0.5409 -0.9845 -1.7885
 3668TIP3    H232420   2.202   0.135  13.096 -1.1728 -1.0104 -0.0306
 3669TIP3   OH232421   4.392   3.513   0.800  0.1122  0.2676 -0.5118
 3669TIP3    H132422   4.379   3.506   0.705  1.0856 -0.7695 -0.5805
 3669TIP3    H232423   4.481   3.545   0.809  0.4899 -0.9122  0.0651
 3670TIP3   OH232424   0.488   5.497  13.997 -0.8645  0.7080  0.0762
 3670TIP3    H132425   0.463   5.517  13.907  2.1871 -0.0793 -1.0674
 3670TIP3    H232426   0.449   5.412  14.014 -0.5041  0.3174 -0.9601
 3671TIP3   OH232427   1.932   0.728   4.105  0.7257 -0.1595  0.0104
 3671TIP3    H132428   1.993   0.799   4.086 -0.8333  0.9597 -1.0368
 3671TIP3    H232429   1.959   0.657   4.046 -0.9998  1.5356 -3.0972
 3672TIP3   OH232430   1.824   4.389  13.059  0.3966  0.1180 -0.6069
 3672TIP3    H132431   1.790   4.407  13.147  0.0055 -1.4826 -0.3905
 3672TIP3    H232432   1.849   4.474  13.024 -1.7491  1.0941  0.1134
 3673TIP3   OH232433   4.547   3.129  16.699  0.1878  0.1315 -0.0298
 3673TIP3    H132434   4.526   3.207  16.750  1.2211  1.1700 -1.1423
 3673TIP3    H232435   4.620   3.089  16.746  0.5166  0.5626 -0.1726
 3674TIP3   OH232436   1.768   3.550  11.871 -0.2438  0.1677 -0.0255
 3674TIP3    H132437   1.801   3.571  11.784  0.2156 -0.4693 -0.0058
 3674TIP3    H232438   1.776   3.632  11.920  0.5390  0.2297 -0.2561
 3675TIP3   OH232439   0.063   1.628  16.417 -0.1602 -0.0201  0.1482
 3675TIP3    H132440   0.077   1.691  16.346  0.2230  0.6949  0.8445
 3675TIP3    H232441   0.128   1.560  16.400  0.4241  0.5052  0.2036
 3676TIP3   OH232442   1.981   1.385  13.641  0.0382 -0.0917  0.1808
 3676TIP3    H132443   1.947   1.451  13.580  0.7348  2.1708  2.1055
 3676TIP3    H232444   2.023   1.320  13.584 -2.5455 -0.1050 -1.9178
 3677TIP3   OH232445   5.385   0.676   0.035 -0.3796  0.3985 -0.3342
 3677TIP3    H132446   5.427   0.730  -0.032 -1.2852  0.7277 -0.6478
 3677TIP3    H232447   5.314   0.631  -0.011  1.2038 -2.1796 -0.4064
 3678TIP3   OH232448   1.928   6.188  11.033 -0.4146 -0.4327  0.0964
 3678TIP3    H132449   1.834   6.199  11.049 -0.6008 -0.3635 -0.9958
 3678TIP3    H232450   1.959   6.276  11.013 -0.2002 -0.5216  0.0382
 3679TIP3   OH232451   1.343   3.105   0.844 -0.2215 -0.2415  0.5628
 3679TIP3    H132452   1.280   3.110   0.772 -0.5227 -0.1337  0.8284
 3679TIP3    H232453   1.425   3.080   0.803  0.0932  1.7307 -0.1074
 3680TIP3   OH232454   1.147   2.452   4.226 -0.3099 -0.1206  0.1677
 3680TIP3    H132455   1.209   2.408   4.286 -1.9805 -0.4162  1.7706
 3680TIP3    H232456   1.104   2.380   4.180 -1.0154 -0.0578  0.7035
 3681TIP3   OH232457   4.844   0.666  15.291  0.5104  0.5950 -0.3722
 3681TIP3    H132458   4.894   0.688  15.369  1.1449 -0.8691 -0.3246
 3681TIP3    H232459   4.829   0.749  15.247  2.2709  1.1767  0.0461
 3682TIP3   OH232460   5.190   5.609  14.515 -0.5103 -0.4139 -0.2320
 3682TIP3    H132461   5.143   5.620  14.433 -0.6801  1.8412  0.0824
 3682TIP3    H232462   5.275   5.574  14.490 -0.7816 -0.3500 -1.2978
 3683TIP3   OH232463   3.451   3.044   4.238 -0.3028  0.6069 -0.4149
 3683TIP3    H132464   3.423   3.095   4.315 -2.9813  0.6368 -1.3113
 3683TIP3    H232465   3.451   2.953   4.269  2.5382  0.8419  0.6257
 3684TIP3   OH232466   2.863   6.598   3.787 -0.5288 -0.3874 -0.5094
 3684TIP3    H132467   2.897   6.512   3.763 -0.7133 -0.6259  0.0583
 3684TIP3    H232468   2.769   6.594   3.767 -0.7359 -0.6779  0.4433
 3685TIP3   OH232469   3.369   0.634   5.119 -0.0720 -0.2607 -1.0493
 3685TIP3    H132470   3.380   0.725   5.147 -1.7820 -0.1257 -0.7487
 3685TIP3    H232471   3.276   0.615   5.132  0.2572 -2.0836 -1.0390
 3686TIP3   OH232472   0.542   4.724  11.523  0.6982 -0.3389  0.1235
 3686TIP3    H132473   0.605   4.730  11.451  0.5604 -1.5215 -0.1287
 3686TIP3    H232474   0.524   4.630  11.530  1.0971 -0.2997  2.0529
 3687TIP3   OH232475   5.362   6.505  12.649 -0.2641  0.2263 -0.3702
 3687TIP3    H132476   5.313   6.518  12.568 -1.6605  0.5283  0.5012
 3687TIP3    H232477   5.299   6.521  12.719  1.0533  0.5189  0.7959
 3688TIP3   OH232478   5.297   4.993  13.395  0.3982  0.0893 -0.3892
 3688TIP3    H132479   5.325   4.902  13.380 -1.2359 -0.2058 -1.8743
 3688TIP3    H232480   5.203   4.992  13.378  0.2023  1.9135  0.4104
 3689TIP3   OH232481   3.339   4.593   3.603  0.1718  0.3304 -0.5538
 3689TIP3    H132482   3.349   4.615   3.695 -1.2625 -2.2534  0.3168
 3689TIP3    H232483   3.279   4.660   3.569 -0.5529  0.4075  0.8055
 3690TIP3   OH232484   0.395   1.392   4.976 -0.1022 -0.3051 -0.2069
 3690TIP3    H132485   0.366   1.483   4.971  0.1896 -0.1068  1.2437
 3690TIP3    H232486   0.490   1.395   4.967 -0.0920 -0.4632 -0.1737
 3691TIP3   OH232487   3.103   5.989   1.234 -0.1922  0.4164 -0.1249
 3691TIP3    H132488   3.149   5.920   1.186 -1.2084 -0.5250  0.2157
 3691TIP3    H232489   3.158   6.066   1.224  0.1754 -0.0308 -1.8937
 3692TIP3   OH232490   5.975   6.321   4.451 -0.3477 -0.1454 -0.1085
 3692TIP3    H132491   6.052   6.293   4.500  0.2049  0.4964 -0.5889
 3692TIP3    H232492   5.978   6.269   4.371 -0.5076 -0.2350 -0.0575
 3693TIP3   OH232493   3.012   0.725  13.340  0.5414 -0.1689 -0.3153
 3693TIP3    H132494   2.983   0.756  13.254 -1.9550  1.0542  0.8381
 3693TIP3    H232495   2.980   0.635  13.346  1.2444 -0.4581 -0.8785
 3694TIP3   OH232496   1.203   0.210  13.051  0.3947 -0.3986 -0.5355
 3694TIP3    H132497   1.271   0.267  13.087 -0.1809  0.7398 -1.1898
 3694TIP3    H232498   1.157   0.265  12.989 -0.7757 -1.3227 -0.5145
 3695TIP3   OH232499   2.328   4.104   3.393  0.1904 -0.2643  0.3955
 3695TIP3    H132500   2.379   4.024   3.378 -1.2940 -1.0910 -0.4978
 3695TIP3    H232501   2.379   4.173   3.350  1.7110 -0.6262  1.5497
 3696TIP3   OH232502   0.688   0.551   0.154 -0.5409 -0.0698  0.6637
 3696TIP3    H132503   0.732   0.545   0.069 -0.9334 -0.1423  0.4623
 3696TIP3    H232504   0.595   0.556   0.132 -0.5984  0.7258  1.0657
 3697TIP3   OH232505   3.199   2.187   3.946 -1.1168  0.6792  0.6688
 3697TIP3    H132506   3.145   2.123   3.901  0.9884  1.2128 -3.0283
 3697TIP3    H232507   3.278   2.138   3.971 -0.0959  1.4140 -0.9412
 3698TIP3   OH232508   1.074   3.416  13.070  0.0698  0.0532  0.3380
 3698TIP3    H132509   1.132   3.442  12.998 -0.8710 -0.9160 -0.8169
 3698TIP3    H232510   1.118   3.343  13.112  0.2123  0.0599  0.1980
 3699TIP3   OH232511   0.448   2.242   3.172 -0.1025  0.1004 -0.4205
 3699TIP3    H132512   0.450   2.331   3.209  2.6289  0.6524 -1.6353
 3699TIP3    H232513   0.365   2.206   3.202 -1.3556  3.0759  0.0877
 3700TIP3   OH232514   0.252   3.983  16.379 -0.1517 -0.0679  0.3437
 3700TIP3    H132515   0.323   3.971  16.442 -0.0056 -0.7777  0.0532
 3700TIP3    H232516   0.251   4.077  16.362  2.3875 -0.2780 -1.5537
 3701TIP3   OH232517   3.714   5.116   3.949  0.1232 -0.5852  0.7205
 3701TIP3    H132518   3.806   5.140   3.942 -0.6979  2.8520 -0.4161
 3701TIP3    H232519   3.688   5.095   3.859 -0.5025  0.0369  0.7413
 3702TIP3   OH232520   1.733   1.799  13.528  0.2224  0.0058 -0.0829
 3702TIP3    H132521   1.637   1.801  13.527  0.2246  0.7791 -0.0607
 3702TIP3    H232522   1.757   1.859  13.599  0.7208 -1.0942  0.6963
 3703TIP3   OH232523   4.264   0.764   0.217  0.9941 -0.4282 -0.3036
 3703TIP3    H132524   4.315   0.731   0.291  0.0598 -1.4806 -0.1053
 3703TIP3    H232525   4.263   0.693   0.154 -0.2764 -0.4718 -0.2687
 3704TIP3   OH232526   6.182   5.355  13.959 -0.5096  0.0418  0.5463
 3704TIP3    H132527   6.189   5.420  13.888  1.7886  0.0579  0.7401
 3704TIP3    H232528   6.189   5.271  13.914  0.4579  0.0408  0.6861
 3705TIP3   OH232529   6.250   3.058   5.897 -0.3296 -0.4865  0.2359
 3705TIP3    H132530   6.319   3.015   5.948  1.1044  1.4957  0.0916
 3705TIP3    H232531   6.222   3.131   5.952 -1.3522 -0.4562 -0.3023
 3706TIP3   OH232532   5.808   3.627  16.569 -0.4491 -0.3068 -0.3913
 3706TIP3    H132533   5.896   3.663  16.576 -1.2305  1.9314 -1.0421
 3706TIP3    H232534   5.776   3.625  16.660  0.7332 -2.6084  0.0453
 3707TIP3   OH232535   0.472   4.537   2.995 -0.3475  0.4175 -0.7428
 3707TIP3    H132536   0.437   4.448   2.995  1.8706 -0.5576  0.6981
 3707TIP3    H232537   0.468   4.564   3.087  2.0157  0.4493 -0.5772
 3708TIP3   OH232538   4.203   3.460  13.469 -0.5025  0.0577  0.1806
 3708TIP3    H132539   4.166   3.525  13.410 -0.7812  0.8482  1.2002
 3708TIP3    H232540   4.131   3.399  13.487 -0.0664 -0.9471 -1.2874
 3709TIP3   OH232541   5.313   4.684  11.974 -0.4741 -0.1015 -0.2376
 3709TIP3    H132542   5.305   4.679  11.878  3.0457 -0.9820 -0.6493
 3709TIP3    H232543   5.270   4.604  12.006 -1.9918  0.3700 -0.9927
 3710TIP3   OH232544   0.089   1.625   2.479 -0.3396  0.2403 -0.5248
 3710TIP3    H132545   0.177   1.633   2.442  0.0168 -0.2290  0.1954
 3710TIP3    H232546   0.034   1.678   2.422  0.3736  0.3654 -1.1108
 3711TIP3   OH232547   1.838   3.795  16.577 -0.4507  0.2438 -0.7207
 3711TIP3    H132548   1.873   3.783  16.665  0.5543 -0.4373 -1.2000
 3711TIP3    H232549   1.760   3.850  16.590 -0.4648 -0.0540  0.6096
 3712TIP3   OH232550   1.775   5.248  14.269 -0.1607  0.2333 -0.7216
 3712TIP3    H132551   1.739   5.334  14.248  0.0227  0.5097  0.0645
 3712TIP3    H232552   1.834   5.228  14.196 -0.6451  0.5108 -1.1933
 3713TIP3   OH232553   2.900   1.265   5.336  0.0619 -0.3920 -0.4401
 3713TIP3    H132554   2.899   1.310   5.252 -0.8426 -0.1451 -0.3004
 3713TIP3    H232555   2.825   1.299   5.383  0.4590 -0.6552  0.4098
 3714TIP3   OH232556   4.954   5.098   0.261 -0.0481  0.4159  0.3764
 3714TIP3    H132557   5.023   5.079   0.197 -0.5654  1.8234 -0.6443
 3714TIP3    H232558   4.987   5.173   0.310 -0.6722  0.8251  0.1718
 3715TIP3   OH232559   1.862   2.702   3.166  0.9466  0.0151 -0.2485
 3715TIP3    H132560   1.798   2.689   3.096  1.2425 -1.2345 -0.3242
 3715TIP3    H232561   1.946   2.710   3.120  1.1672 -1.0096 -0.0452
 3716TIP3   OH232562   5.978   2.832  12.716  0.3555  0.6180  0.4346
 3716TIP3    H132563   5.967   2.797  12.628 -0.0796 -0.9366  1.0810
 3716TIP3    H232564   6.072   2.831  12.732  0.3581 -0.2481  0.4152
 3717TIP3   OH232565   5.690   6.193  14.628  0.2194  0.2974 -1.2183
 3717TIP3    H132566   5.631   6.257  14.667  0.0108 -1.0544  0.8016
 3717TIP3    H232567   5.669   6.196  14.534 -1.3778  1.5189 -0.8708
 3718TIP3   OH232568   4.572   3.114   0.507  0.0328 -0.6632 -0.3558
 3718TIP3    H132569   4.541   3.179   0.443 -1.1478 -0.1914  0.6385
 3718TIP3    H232570   4.611   3.167   0.576 -0.5895 -1.0243  0.2805
 3719TIP3   OH232571   0.802   4.676   5.666  0.2418  0.0264  0.5873
 3719TIP3    H132572   0.765   4.750   5.715  0.5259 -0.0958  0.9915
 3719TIP3    H232573   0.731   4.646   5.610  0.2157  0.8055  0.1869
 3720TIP3   OH232574   3.246   3.642   5.620  0.4189 -0.3244 -0.0167
 3720TIP3    H132575   3.213   3.664   5.707  2.3461  0.1615  0.6470
 3720TIP3    H232576   3.201   3.561   5.597 -0.1535 -0.4466  1.4103
 3721TIP3   OH232577   1.436   1.375   2.589 -0.2915 -0.4150  0.3207
 3721TIP3    H132578   1.472   1.463   2.597  1.4246 -0.9073 -1.3994
 3721TIP3    H232579   1.366   1.373   2.654 -0.2651  2.1398  0.5513
 3722TIP3   OH232580   6.232   4.363   1.583  0.3628  0.4213 -0.1750
 3722TIP3    H132581   6.146   4.343   1.547  1.1296 -3.5327 -0.3667
 3722TIP3    H232582   6.228   4.331   1.673  1.2454  1.4788  0.2593
 3723TIP3   OH232583   2.133   1.624  14.772  0.1483  0.4762 -0.1871
 3723TIP3    H132584   2.120   1.545  14.825 -0.2973  0.8201  0.2258
 3723TIP3    H232585   2.215   1.661  14.805 -0.8993  1.5252  1.3642
 3724TIP3   OH232586   5.962   4.317  13.102  0.5995  0.6565 -0.8977
 3724TIP3    H132587   5.894   4.370  13.145  0.7810 -1.6839  2.6817
 3724TIP3    H232588   6.006   4.378  13.043 -2.6454  3.0126 -1.1350
 3725TIP3   OH232589   0.248   2.283   5.934  0.0938 -0.0044  0.4477
 3725TIP3    H132590   0.180   2.299   5.870  0.1347 -2.7890 -0.3976
 3725TIP3    H232591   0.206   2.231   6.003  0.8547  0.0723  0.9930
 3726TIP3   OH232592   5.982   2.714   3.179  0.1862 -0.3876  0.4587
 3726TIP3    H132593   5.975   2.803   3.144  0.3528 -0.5908 -0.1045
 3726TIP3    H232594   5.892   2.683   3.186  0.1130 -0.0985  0.8732
 3727TIP3   OH232595   0.200   2.253   2.501 -0.0224  0.1034 -0.5283
 3727TIP3    H132596   0.221   2.345   2.514  0.5943 -0.3720  2.6088
 3727TIP3    H232597   0.284   2.208   2.511 -0.4902 -0.8778 -0.8829
 3728TIP3   OH232598   3.677   6.534   2.164 -0.3637  0.5168  0.2314
 3728TIP3    H132599   3.592   6.536   2.121 -0.4256 -0.5829  0.2914
 3728TIP3    H232600   3.723   6.459   2.125 -0.0875  0.0339  1.4435
 3729TIP3   OH232601   2.725   6.156   4.783  0.1402  0.2958 -0.3031
 3729TIP3    H132602   2.809   6.144   4.827  0.3237 -1.1797 -0.9907
 3729TIP3    H232603   2.691   6.067   4.771 -2.3069  0.8834  1.4122
 3730TIP3   OH232604   6.628   5.339  17.086 -0.6107 -0.8434 -0.0225
 3730TIP3    H132605   6.562   5.270  17.070 -1.4184  0.1302 -1.1077
 3730TIP3    H232606   6.576   5.417  17.105  0.2616 -0.2513 -0.0431
 3731TIP3   OH232607   4.600   0.624  14.837 -0.3087  0.2744  0.4101
 3731TIP3    H132608   4.587   0.581  14.922 -0.0341 -0.0242  0.3025
 3731TIP3    H232609   4.621   0.715  14.860 -0.1639  0.1791  0.6661
 3732TIP3   OH232610   3.230   1.733  15.201  0.7135  0.2710 -0.0760
 3732TIP3    H132611   3.228   1.827  15.220 -1.4116  0.8063 -2.5300
 3732TIP3    H232612   3.202   1.725  15.110 -2.1621 -2.9493  0.8783
 3733TIP3   OH232613   1.865   3.136  12.474 -0.7462  0.0864  0.2855
 3733TIP3    H132614   1.926   3.083  12.525 -0.8601 -0.1724  0.1559
 3733TIP3    H232615   1.921   3.186  12.414 -0.7443 -1.8392 -1.4417
 3734TIP3   OH232616   4.522   4.445   5.966  0.0282  0.4168 -0.1322
 3734TIP3    H132617   4.445   4.422   6.019 -0.8296  1.5418 -0.8289
 3734TIP3    H232618   4.550   4.530   6.001  0.5154  0.3560 -0.3628
 3735TIP3   OH232619   1.224   6.308   0.057  0.3768  0.2333 -0.3268
 3735TIP3    H132620   1.263   6.267  -0.021 -0.1722 -2.0797  0.5442
 3735TIP3    H232621   1.135   6.330   0.030  0.5452  0.5037 -0.6784
 3736TIP3   OH232622   2.591   2.927   2.067  0.2196  0.7324 -0.0234
 3736TIP3    H132623   2.640   2.966   1.995  0.4890  2.4946  1.0562
 3736TIP3    H232624   2.507   2.973   2.067 -0.1242  0.1257  0.2542
 3737TIP3   OH232625   4.958   5.409  13.623 -0.2701 -0.3180  0.1863
 3737TIP3    H132626   5.033   5.384  13.569 -0.2792 -0.1324  0.0880
 3737TIP3    H232627   4.907   5.328  13.631 -0.1293 -0.4117  0.1430
 3738TIP3   OH232628   1.292   0.822  16.589 -0.1982 -0.3573 -0.0104
 3738TIP3    H132629   1.229   0.780  16.648  1.0205 -1.1043  0.8038
 3738TIP3    H232630   1.345   0.750  16.555  2.1327  0.4508  1.6405
 3739TIP3   OH232631   5.853   3.531  13.822 -0.2672 -0.3261 -0.0540
 3739TIP3    H132632   5.896   3.499  13.743  2.3824  0.2668  1.0519
 3739TIP3    H232633   5.834   3.623  13.803 -0.5083 -0.4255 -0.3110
 3740TIP3   OH232634   2.245   2.157   0.061 -0.7510  0.6457 -0.0360
 3740TIP3    H132635   2.248   2.225  -0.007  0.6819 -0.7907 -1.4998
 3740TIP3    H232636   2.220   2.078   0.015  0.2266 -0.3750  1.1059
 3741TIP3   OH232637   0.253   6.497   1.583 -0.0618 -0.2560  0.5776
 3741TIP3    H132638   0.334   6.515   1.535 -0.8479  0.7349 -0.4362
 3741TIP3    H232639   0.281   6.488   1.674  1.3994 -1.6620  0.0289
 3742TIP3   OH232640   0.203   4.554   3.327 -0.5954 -0.1547  0.3216
 3742TIP3    H132641   0.135   4.601   3.375  0.9506  2.0736  0.4456
 3742TIP3    H232642   0.155   4.507   3.258 -2.4650 -0.5313  1.7999
 3743TIP3   OH232643   1.824   1.201  12.503  0.0798 -0.1873 -0.0220
 3743TIP3    H132644   1.810   1.148  12.425  0.2390  0.8732 -0.7926
 3743TIP3    H232645   1.741   1.196  12.551 -0.3664 -0.0363 -0.7660
 3744TIP3   OH232646   0.435   5.464   1.488 -0.3158 -0.2406 -0.0004
 3744TIP3    H132647   0.522   5.484   1.452 -0.3717 -0.7147 -0.4121
 3744TIP3    H232648   0.412   5.379   1.450 -0.1842 -0.9907  1.5412
 3745TIP3   OH232649   0.612   5.621  16.442 -0.5844  0.0136 -0.2784
 3745TIP3    H132650   0.535   5.581  16.402 -0.1986 -1.5751  0.4684
 3745TIP3    H232651   0.635   5.562  16.514  0.2746  1.4033  0.6374
 3746TIP3   OH232652   1.156   3.618  15.496 -0.5485 -0.0016 -0.0626
 3746TIP3    H132653   1.149   3.622  15.401 -2.8185 -3.3208 -0.2271
 3746TIP3    H232654   1.229   3.558  15.512 -0.8377 -0.2834  0.2231
 3747TIP3   OH232655   4.023   4.101  15.123  0.6148 -0.7485 -0.8027
 3747TIP3    H132656   4.093   4.084  15.185 -2.0863  0.7277  3.0467
 3747TIP3    H232657   4.012   4.196  15.124 -1.1435 -0.9008 -1.6322
 3748TIP3   OH232658   6.642   4.449  16.490 -0.0296  0.3380 -0.6871
 3748TIP3    H132659   6.665   4.385  16.557  0.1094 -0.0399 -1.0891
 3748TIP3    H232660   6.679   4.414  16.409 -0.0650  0.8608 -0.9374
 3749TIP3   OH232661   6.673   5.402  13.375 -0.7550 -0.8229  0.0163
 3749TIP3    H132662   6.625   5.358  13.446  0.8283  0.0032  1.7010
 3749TIP3    H232663   6.606   5.445  13.323 -2.0603 -2.3184  0.3918
 3750TIP3   OH232664   5.377   5.682   3.036 -0.5080 -0.5550  0.9630
 3750TIP3    H132665   5.371   5.732   2.954  2.4857  0.0847  1.0030
 3750TIP3    H232666   5.314   5.723   3.094 -4.6776 -2.6087 -1.5980
 3751TIP3   OH232667   3.044   6.134   0.735 -0.0539  0.4037  0.0782
 3751TIP3    H132668   2.989   6.151   0.812  1.3206 -0.3995  1.3102
 3751TIP3    H232669   2.992   6.074   0.682 -0.4133 -0.3005  1.1807
 3752TIP3   OH232670   3.907   5.827   2.743  0.2246 -0.3067 -0.1061
 3752TIP3    H132671   3.884   5.845   2.652 -1.0580 -1.7785 -0.1170
 3752TIP3    H232672   3.849   5.883   2.794  0.4657  0.0209 -0.1930
 3753TIP3   OH232673   3.216   4.126   1.073  0.2350 -0.2675 -0.0341
 3753TIP3    H132674   3.131   4.167   1.059  0.0497  0.4151  2.5522
 3753TIP3    H232675   3.261   4.135   0.989 -1.2411  1.8200 -0.6767
 3754TIP3   OH232676   6.535   2.519  16.875  0.1641 -0.5940  0.1053
 3754TIP3    H132677   6.462   2.531  16.814  1.6613 -0.0557 -1.6597
 3754TIP3    H232678   6.543   2.604  16.919  0.7462 -0.1013 -0.9150
 3755TIP3   OH232679   1.949   1.763   1.691  0.1191  0.3406 -0.0520
 3755TIP3    H132680   2.005   1.819   1.744 -0.0173 -0.4441  0.9562
 3755TIP3    H232681   1.963   1.675   1.726 -0.7593 -0.0490 -0.6392
 3756TIP3   OH232682   5.553   2.991  11.611  0.1744 -0.0819 -0.3750
 3756TIP3    H132683   5.546   3.045  11.532  1.8837 -0.7383 -1.0006
 3756TIP3    H232684   5.521   2.905  11.584 -1.3618  0.2429  0.2908
 3757TIP3   OH232685   3.707   5.069   1.805 -0.1444 -0.1710 -0.0850
 3757TIP3    H132686   3.778   5.047   1.865 -0.3391  1.1460  0.6740
 3757TIP3    H232687   3.627   5.052   1.854 -0.3462 -0.6375 -0.5613
 3758TIP3   OH232688   2.616   5.007   5.614  0.3072  0.0266  0.6324
 3758TIP3    H132689   2.648   4.918   5.599  0.9834  0.3415  0.1888
 3758TIP3    H232690   2.654   5.032   5.699  2.0640  0.7457 -0.3179
 3759TIP3   OH232691   3.221   3.980  16.271  0.4438  0.4256  0.9033
 3759TIP3    H132692   3.220   4.050  16.206  0.0337 -0.1119  0.3243
 3759TIP3    H232693   3.261   3.906  16.226 -0.0820 -0.0317  1.1749
 3760TIP3   OH232694   1.437   2.487  13.572  0.0192 -0.3136 -0.1364
 3760TIP3    H132695   1.469   2.441  13.495 -0.0656  0.1815 -0.4722
 3760TIP3    H232696   1.428   2.578  13.544  1.0293  0.0856  0.7616
 3761TIP3   OH232697   3.498   1.824   4.397  0.3392 -0.0242  0.1640
 3761TIP3    H132698   3.558   1.882   4.351  0.3988 -1.1589 -1.2859
 3761TIP3    H232699   3.541   1.804   4.480  1.5681 -0.1283 -0.4851
 3762TIP3   OH232700   2.947   3.712   4.290  0.0249 -0.1776 -0.5000
 3762TIP3    H132701   2.927   3.626   4.325  0.3365  0.1694  0.5453
 3762TIP3    H232702   2.895   3.718   4.209 -2.8140  0.0265  1.2177
 3763TIP3   OH232703   5.160   3.357   5.019 -0.0296  0.0555 -0.6060
 3763TIP3    H132704   5.176   3.297   5.092  1.7332 -0.2362 -1.1668
 3763TIP3    H232705   5.233   3.419   5.024 -1.1133  1.3870 -0.8142
 3764TIP3   OH232706   2.588   2.667   5.964  0.8037 -0.7667 -0.4617
 3764TIP3    H132707   2.659   2.723   5.997 -0.8582  0.8491  0.5873
 3764TIP3    H232708   2.526   2.662   6.037 -0.5688 -1.4182 -1.6228
 3765TIP3   OH232709   3.487   4.746   0.070  0.1699 -0.5762  0.3909
 3765TIP3    H132710   3.479   4.702   0.154 -0.7975  1.3367  1.3746
 3765TIP3    H232711   3.403   4.791   0.059  1.0642  0.9460 -0.5516
 3766TIP3   OH232712   4.649   5.743  15.534 -0.8208  0.3766 -0.5671
 3766TIP3    H132713   4.670   5.829  15.498  2.1169  0.5392  1.2309
 3766TIP3    H232714   4.559   5.750  15.563 -0.6321  2.8703 -0.4052
 3767TIP3   OH232715   5.145   6.522  12.805  0.2307  0.1846  0.2796
 3767TIP3    H132716   5.079   6.519  12.735  0.0978  0.3376  0.3980
 3767TIP3    H232717   5.106   6.577  12.873 -0.1480 -0.9446  1.0012
 3768TIP3   OH232718   0.987   3.459  15.100 -0.1601 -0.0173  0.1135
 3768TIP3    H132719   1.068   3.424  15.137 -0.5108 -1.3360 -0.2760
 3768TIP3    H232720   1.014   3.507  15.022  0.2005 -1.3133 -0.5990
 3769TIP3   OH232721   3.997   2.011   3.153  0.7098 -0.1256  0.1271
 3769TIP3    H132722   3.982   1.971   3.238 -3.3867  2.0600  0.6863
 3769TIP3    H232723   4.050   2.088   3.171  0.4021 -0.0237  0.6018
 3770TIP3   OH232724   1.028   1.392  14.344 -0.2159 -0.1609  0.2316
 3770TIP3    H132725   1.119   1.367  14.332 -0.6285 -0.5061 -2.9987
 3770TIP3    H232726   1.031   1.488  14.350  0.4147 -0.2271  1.1791
 3771TIP3   OH232727   0.904   1.390   3.733 -0.7878 -0.7623  0.0859
 3771TIP3    H132728   0.991   1.387   3.773 -0.6511  0.2886 -0.1014
 3771TIP3    H232729   0.919   1.375   3.640 -0.7274  0.0455 -0.0393
 3772TIP3   OH232730   3.757   3.283  14.428  0.3190  0.3786 -0.0030
 3772TIP3    H132731   3.676   3.314  14.386 -0.3123 -0.3728  0.6235
 3772TIP3    H232732   3.825   3.298  14.362 -0.7813 -1.6021 -1.7158
 3773TIP3   OH232733   4.159   0.770   4.249 -0.2251  0.1971  0.1208
 3773TIP3    H132734   4.209   0.691   4.271  2.4400  1.1181 -2.1139
 3773TIP3    H232735   4.192   0.796   4.164 -3.4229  1.9136 -0.7448
 3774TIP3   OH232736   6.384   2.130  16.187  0.3154  0.4653 -0.5346
 3774TIP3    H132737   6.373   2.037  16.169  1.3531  0.0490  0.7956
 3774TIP3    H232738   6.296   2.167  16.179 -0.2694 -0.8084 -0.1626
 3775TIP3   OH232739   5.319   3.254   3.424 -0.6111  0.1041 -0.1045
 3775TIP3    H132740   5.389   3.276   3.486  0.4151 -3.7635  0.4034
 3775TIP3    H232741   5.309   3.332   3.370  2.7106  1.5670  1.1222
 3776TIP3   OH232742   6.190   1.454   0.641  0.0295  0.0427  0.0390
 3776TIP3    H132743   6.256   1.473   0.574  1.0361 -2.0236  0.3678
 3776TIP3    H232744   6.107   1.456   0.593  0.4935  0.8218 -0.7770
 3777TIP3   OH232745   4.331   6.702  13.589 -0.3092  0.6177  0.1010
 3777TIP3    H132746   4.287   6.716  13.673  3.4902  0.6065  2.3491
 3777TIP3    H232747   4.312   6.780  13.538 -1.6365  1.2436  1.4747
 3778TIP3   OH232748   0.985   4.323  15.433  0.0790 -0.3946 -0.1722
 3778TIP3    H132749   1.045   4.305  15.506  0.5773  1.3791 -0.0863
 3778TIP3    H232750   0.933   4.397  15.463 -0.7937 -0.6491 -1.0285
 3779TIP3   OH232751   2.629   3.633  15.946  0.6138 -0.5774  0.0428
 3779TIP3    H132752   2.711   3.623  15.996  0.4905  2.3932  1.0619
 3779TIP3    H232753   2.560   3.631  16.012  0.1305 -0.1488 -0.4392
 3780TIP3   OH232754   3.774   0.306   0.071 -0.4683  0.2667 -0.3330
 3780TIP3    H132755   3.739   0.392   0.047 -0.2539  0.4646  0.0572
 3780TIP3    H232756   3.811   0.319   0.158 -1.9035 -0.6357  0.4511
 3781TIP3   OH232757   1.977   3.887  15.647  0.4109 -0.6489  0.0311
 3781TIP3    H132758   1.949   3.821  15.583 -0.0297 -0.5774  0.1472
 3781TIP3    H232759   1.988   3.837  15.728 -1.3661 -0.3487  0.4927
 3782TIP3   OH232760   5.483   4.908  14.522 -0.0026  0.2981  0.3377
 3782TIP3    H132761   5.532   4.932  14.600 -0.5361  0.3863  0.6469
 3782TIP3    H232762   5.532   4.948  14.450  0.7134 -0.1188  0.5850
 3783TIP3   OH232763   3.570   3.200   5.723  0.3673 -0.2025  0.1086
 3783TIP3    H132764   3.530   3.287   5.728 -0.9691 -0.6349 -2.1119
 3783TIP3    H232765   3.646   3.206   5.781  0.5158  2.5572 -0.2387
 3784TIP3   OH232766   2.285   3.246  11.107 -0.2795 -0.0242 -0.3492
 3784TIP3    H132767   2.331   3.163  11.101  1.0147  0.5679  0.8656
 3784TIP3    H232768   2.308   3.293  11.026 -0.8117 -0.7099 -0.9167
 3785TIP3   OH232769   0.606   1.868   0.233  0.0389  0.1722  0.3269
 3785TIP3    H132770   0.614   1.802   0.303  0.6358  0.4084  0.4937
 3785TIP3    H232771   0.662   1.939   0.262  0.9004 -0.0378 -0.7544
 3786TIP3   OH232772   2.019   6.372  12.123  0.0481  0.3312 -0.0901
 3786TIP3    H132773   2.055   6.316  12.191  0.1131 -1.1198 -1.2771
 3786TIP3    H232774   2.096   6.407  12.077 -0.0078 -0.2006 -0.5971
 3787TIP3   OH232775   5.616   3.183   0.512  0.1929 -0.3694  0.1211
 3787TIP3    H132776   5.557   3.228   0.573 -0.5078  0.5073 -1.1566
 3787TIP3    H232777   5.588   3.092   0.516  0.5703 -0.4541  1.5506
 3788TIP3   OH232778   3.337   2.346  12.454  0.0095 -0.1053  0.1784
 3788TIP3    H132779   3.319   2.253  12.456 -1.4520  0.1757  2.0714
 3788TIP3    H232780   3.258   2.386  12.418 -0.5501  0.5759  2.0223
 3789TIP3   OH232781   0.002   2.184   4.330 -0.0299 -0.6207  0.1502
 3789TIP3    H132782  -0.029   2.159   4.243  0.2833 -0.4982  0.0001
 3789TIP3    H232783  -0.017   2.277   4.337 -0.2302 -0.6718  0.2900
 3790TIP3   OH232784   3.972   5.422   3.140  0.0667 -0.3978  0.1338
 3790TIP3    H132785   3.924   5.483   3.196 -3.0485 -2.9411  0.5048
 3790TIP3    H232786   3.942   5.442   3.051  1.3838  0.5017 -0.1467
 3791TIP3   OH232787   3.956   0.109   1.491  0.0225  0.1528  0.3003
 3791TIP3    H132788   3.938   0.015   1.499  1.1091  0.0176  1.3776
 3791TIP3    H232789   3.875   0.151   1.520 -0.3286 -0.4481  0.2020
 3792TIP3   OH232790   6.392   0.533  16.509  0.2370 -0.1042 -0.1821
 3792TIP3    H132791   6.312   0.521  16.459 -0.4898  1.3715  0.5588
 3792TIP3    H232792   6.384   0.472  16.583 -0.8714  0.9621  0.6195
 3793TIP3   OH232793   4.691   3.882   4.183 -0.6361 -0.7314 -0.0836
 3793TIP3    H132794   4.600   3.899   4.205 -0.1418  1.6128  0.4347
 3793TIP3    H232795   4.727   3.968   4.163  1.7050 -1.4572  0.6735
 3794TIP3   OH232796   2.296   5.996  13.650 -0.4559  0.0039 -0.4000
 3794TIP3    H132797   2.353   5.925  13.622  0.8271  1.4229 -1.5373
 3794TIP3    H232798   2.292   6.056  13.575 -3.0282  0.2497 -0.1720
 3795TIP3   OH232799   1.470   0.949   2.160 -0.0454  0.4621 -0.2060
 3795TIP3    H132800   1.422   0.979   2.084  1.3904 -0.6931 -1.6548
 3795TIP3    H232801   1.484   0.855   2.145  0.5718  0.2654  1.3061
 3796TIP3   OH232802   6.286   2.393  11.337  0.1631 -0.3100  0.5630
 3796TIP3    H132803   6.286   2.307  11.379  2.2644 -0.3571  0.5610
 3796TIP3    H232804   6.247   2.377  11.251 -1.3625 -0.8113  1.2985
 3797TIP3   OH232805   0.445   2.453  14.757  0.1037  0.1776  0.5452
 3797TIP3    H132806   0.504   2.490  14.692  0.0824 -0.0345  0.4030
 3797TIP3    H232807   0.359   2.454  14.715  0.4271 -2.0449 -0.3481
 3798TIP3   OH232808   0.939   6.203  13.305 -0.8207 -0.5782 -0.1511
 3798TIP3    H132809   1.000   6.270  13.336  0.2640 -0.5800 -2.1096
 3798TIP3    H232810   0.970   6.122  13.345  0.2184 -0.5013 -0.7526
 3799TIP3   OH232811   2.022   4.163   5.539 -0.2600  0.2991  0.3096
 3799TIP3    H132812   2.037   4.257   5.527 -2.0802  0.5484 -0.3047
 3799TIP3    H232813   1.980   4.157   5.625  0.1802  0.0043  0.5056
 3800TIP3   OH232814   5.771   4.448  13.287  0.8752 -0.1981 -0.3191
 3800TIP3    H132815   5.735   4.518  13.233  1.2504 -1.1406 -1.8505
 3800TIP3    H232816   5.698   4.389  13.302  0.7899  0.0245  0.1662
 3801TIP3   OH232817   2.614   0.585  14.479  0.0914 -0.0646  0.0341
 3801TIP3    H132818   2.675   0.568  14.551  2.1193  2.7616 -0.8564
 3801TIP3    H232819   2.635   0.674  14.449 -3.6054  0.5844 -1.2455
 3802TIP3   OH232820   0.035   0.093   5.096 -0.7382  0.0579  0.0912
 3802TIP3    H132821   0.108   0.144   5.063 -0.9843  0.3886  0.0483
 3802TIP3    H232822  -0.007   0.058   5.017 -0.6306 -0.1220  0.1147
 3803TIP3   OH232823   3.845   3.322   3.744  0.0216 -0.3333 -0.0436
 3803TIP3    H132824   3.769   3.288   3.792 -0.4414 -1.1940 -1.3295
 3803TIP3    H232825   3.920   3.280   3.787 -0.4691 -2.1561 -0.8508
 3804TIP3   OH232826   4.794   3.635  16.419  0.2152  0.6019 -0.2171
 3804TIP3    H132827   4.814   3.563  16.360  0.2202 -0.2525  0.8118
 3804TIP3    H232828   4.719   3.680  16.378  0.7558  0.5455 -1.2912
 3805TIP3   OH232829   4.976   0.084   5.936  0.4053  0.4205 -0.6657
 3805TIP3    H132830   5.070   0.067   5.930  0.3011 -0.0508 -1.0514
 3805TIP3    H232831   4.936  -0.001   5.922 -0.1111  0.8474 -1.9747
 3806TIP3   OH232832   6.656   6.446  13.935  0.1438 -0.6352  0.1147
 3806TIP3    H132833   6.717   6.514  13.905  2.0177 -2.5642 -0.7105
 3806TIP3    H232834   6.692   6.416  14.018 -0.4136 -0.9187  0.2594
 3807TIP3   OH232835   5.912   1.666  13.042  0.3983 -0.5097  0.0755
 3807TIP3    H132836   5.825   1.697  13.013 -0.3987 -1.5080  1.3186
 3807TIP3    H232837   5.972   1.733  13.010 -0.8829  0.4757 -0.3769
 3808TIP3   OH232838   1.162   3.403   3.169  0.3904 -0.6178  0.3058
 3808TIP3    H132839   1.196   3.360   3.090 -0.9860 -0.8880 -0.1597
 3808TIP3    H232840   1.173   3.497   3.151  0.0248 -0.6730 -0.2442
 3809TIP3   OH232841   3.678   5.919  15.010 -0.2499  0.5643  0.9457
 3809TIP3    H132842   3.609   5.934  15.074  0.1987 -0.4936  1.6998
 3809TIP3    H232843   3.755   5.963  15.046  0.2854 -0.9217  1.7001
 3810TIP3   OH232844   0.254   6.381   3.428 -0.0703 -0.1597 -0.4586
 3810TIP3    H132845   0.165   6.408   3.405 -1.0281 -0.0162  2.8760
 3810TIP3    H232846   0.247   6.287   3.444  0.1779 -0.0181  0.5383
 3811TIP3   OH232847   2.591   3.184  16.107 -0.5551  0.0255 -0.2803
 3811TIP3    H132848   2.496   3.189  16.115 -0.3797  3.9806  1.8581
 3811TIP3    H232849   2.610   3.218  16.019 -1.0654  0.9688 -0.0291
 3812TIP3   OH232850   1.402   2.759  13.530  0.8300 -0.2368 -0.2541
 3812TIP3    H132851   1.314   2.746  13.565  1.5477  2.4327  3.1401
 3812TIP3    H232852   1.392   2.828  13.465  0.3135 -0.5988 -0.5682
 3813TIP3   OH232853   5.390   5.489  15.037  0.4789 -0.7903 -0.4051
 3813TIP3    H132854   5.468   5.541  15.057 -0.2177  0.0511  0.2174
 3813TIP3    H232855   5.380   5.497  14.942 -1.1973  2.6822 -0.1050
 3814TIP3   OH232856   3.557   1.327  16.678 -0.1075  0.6118  0.5348
 3814TIP3    H132857   3.613   1.312  16.602  1.3880  1.1672  1.4766
 3814TIP3    H232858   3.543   1.239  16.715 -0.4959  0.3892 -0.1357
 3815TIP3   OH232859   6.166   0.277  12.268  0.4231 -0.4065  0.0243
 3815TIP3    H132860   6.083   0.244  12.232  0.2171 -0.0208  0.1334
 3815TIP3    H232861   6.194   0.344  12.205  0.7310 -0.6463 -0.0909
 3816TIP3   OH232862   4.527   3.531  16.687  0.1692 -0.7512  0.0513
 3816TIP3    H132863   4.467   3.514  16.614  1.0023 -1.4713 -0.4696
 3816TIP3    H232864   4.493   3.612  16.726  1.1923  1.1549 -2.7165
 3817TIP3   OH232865   0.624   0.267   5.730  0.5785  0.1812 -0.2754
 3817TIP3    H132866   0.587   0.309   5.807  0.2082  0.0296 -0.3703
 3817TIP3    H232867   0.550   0.223   5.688  0.5840  1.0878 -1.2592
 3818TIP3   OH232868   2.311   6.757   2.012  0.4162 -0.4183 -0.7706
 3818TIP3    H132869   2.295   6.673   1.969 -0.2009 -0.0917 -1.2039
 3818TIP3    H232870   2.303   6.821   1.942 -1.6864  0.2183 -0.0268
 3819TIP3   OH232871   5.564   0.074  13.534  0.2339 -0.2458  0.4055
 3819TIP3    H132872   5.536   0.164  13.519  0.0546  0.2737  3.2350
 3819TIP3    H232873   5.500   0.021  13.486 -0.1898  1.0916 -0.5771
 3820TIP3   OH232874   1.006   3.301   2.765  0.0678  0.8208 -0.3658
 3820TIP3    H132875   1.034   3.237   2.700  0.2601  0.1569  0.3601
 3820TIP3    H232876   1.007   3.385   2.718 -0.3978  0.2769 -1.3852
 3821TIP3   OH232877   0.940   1.290   6.078  0.3275  0.3492  0.1460
 3821TIP3    H132878   0.998   1.217   6.054  1.3036  1.4648 -1.0116
 3821TIP3    H232879   0.953   1.354   6.009  0.1976  2.0192  1.6174
 3822TIP3   OH232880   3.197   6.465   5.948 -0.1156 -0.2215 -0.1739
 3822TIP3    H132881   3.198   6.413   5.868  0.9815 -1.3375  0.5252
 3822TIP3    H232882   3.211   6.402   6.018  2.2633  1.0846  0.6529
 3823TIP3   OH232883   3.095   3.534  15.913  0.2623  0.0383 -0.7298
 3823TIP3    H132884   3.182   3.574  15.909 -0.4309  1.5681 -1.6813
 3823TIP3    H232885   3.102   3.456  15.858  1.7068 -1.3617  1.3079
 3824TIP3   OH232886   0.655   1.103  12.728 -0.1225 -0.4227 -0.6089
 3824TIP3    H132887   0.706   1.183  12.727  0.0200 -0.3775  2.0050
 3824TIP3    H232888   0.564   1.133  12.737 -0.2422 -0.5572 -1.2992
 3825TIP3   OH232889   4.093   0.853  14.556  0.2707 -0.1692 -0.1413
 3825TIP3    H132890   4.094   0.860  14.460  2.9760 -2.1098 -0.3690
 3825TIP3    H232891   4.034   0.923  14.584  0.9315  1.7974 -3.1265
 3826TIP3   OH232892   1.263   2.483  17.102 -0.3786  0.1250  0.2858
 3826TIP3    H132893   1.334   2.544  17.085 -1.5874  1.6234  0.4561
 3826TIP3    H232894   1.273   2.459  17.194  0.9579 -1.1075 -0.1547
 3827TIP3   OH232895   0.507   5.366   3.582 -0.5859 -0.0808 -0.3626
 3827TIP3    H132896   0.583   5.321   3.619 -0.7419 -0.1382 -0.1090
 3827TIP3    H232897   0.432   5.316   3.613 -0.6704 -0.9606 -1.8742
 3828TIP3   OH232898   0.683   4.613  11.891 -0.1714 -0.2817 -0.8938
 3828TIP3    H132899   0.720   4.591  11.976 -0.0341 -0.0920 -0.9031
 3828TIP3    H232900   0.659   4.528  11.852 -0.4273 -0.3535 -0.5828
 3829TIP3   OH232901   6.375   0.237  13.549 -0.5803 -0.0406 -0.4739
 3829TIP3    H132902   6.372   0.221  13.455 -0.3128 -2.2594 -0.1444
 3829TIP3    H232903   6.439   0.175  13.583  0.6787  1.9098  0.9910
 3830TIP3   OH232904   2.699   4.380   5.354 -0.5756  0.3269  0.0486
 3830TIP3    H132905   2.658   4.443   5.295  0.2718  0.2653 -0.6278
 3830TIP3    H232906   2.631   4.314   5.369 -1.0678  0.7686 -0.2038
 3831TIP3   OH232907   4.338   6.598  12.846 -0.0838  0.1495 -0.3273
 3831TIP3    H132908   4.359   6.600  12.752 -1.7973 -2.1928 -0.8566
 3831TIP3    H232909   4.409   6.547  12.885  0.9242  1.5794 -0.1795
 3832TIP3   OH232910   6.127   5.300   4.605 -0.4698  0.2388  0.6849
 3832TIP3    H132911   6.185   5.374   4.584  0.4308 -0.6983 -0.2613
 3832TIP3    H232912   6.046   5.341   4.633 -0.2636  1.6218 -0.5878
 3833TIP3   OH232913   2.636   3.031   5.321 -0.2789  0.0236 -0.3589
 3833TIP3    H132914   2.706   3.084   5.284  0.6947 -0.2964  0.9490
 3833TIP3    H232915   2.555   3.074   5.292  0.4627  1.4773 -0.3498
 3834TIP3   OH232916   2.302   5.405   1.349 -0.8743 -0.7860 -0.0626
 3834TIP3    H132917   2.220   5.453   1.336 -0.9376 -0.2844  1.7611
 3834TIP3    H232918   2.292   5.325   1.299 -0.9788  0.8321 -2.8228
 3835TIP3   OH232919   1.938   1.971  15.970  0.0973  0.2231  0.0726
 3835TIP3    H132920   2.018   1.928  15.938 -0.6862 -1.1826 -0.0960
 3835TIP3    H232921   1.909   2.024  15.896 -0.6360 -1.4785 -0.9181
 3836TIP3   OH232922   3.828   5.702  10.880 -0.7200  0.1065  0.1002
 3836TIP3    H132923   3.863   5.791  10.874 -2.4821  0.8222 -0.5145
 3836TIP3    H232924   3.854   5.660  10.797 -0.0102  0.0927  0.3271
 3837TIP3   OH232925   0.225   2.772  13.832 -0.2088  0.2156  0.2498
 3837TIP3    H132926   0.183   2.813  13.909  1.4659  1.6422  0.4679
 3837TIP3    H232927   0.199   2.828  13.759  0.1692  0.2864  0.1694
 3838TIP3   OH232928   5.682   2.598  14.003  0.6965  0.1819  0.4074
 3838TIP3    H132929   5.639   2.636  14.080  3.1480  0.2767  1.8358
 3838TIP3    H232930   5.753   2.659  13.983  2.7742 -1.9651  0.8153
 3839TIP3   OH232931   4.989   0.334   5.420  0.1408 -0.2399  0.7216
 3839TIP3    H132932   5.081   0.350   5.399  0.7695 -1.8725  2.0215
 3839TIP3    H232933   4.950   0.422   5.423  1.1731  0.3933 -1.6705
 3840TIP3   OH232934   0.936   0.934   2.338 -0.8450  0.3544 -0.1317
 3840TIP3    H132935   0.886   0.856   2.314 -1.7548  1.0257 -0.4299
 3840TIP3    H232936   1.025   0.915   2.309 -1.2318 -0.2342 -0.9573
 3841TIP3   OH232937   6.147   4.927  16.015 -0.0008  0.1613  0.0275
 3841TIP3    H132938   6.113   4.994  16.075 -0.2058 -0.3791  0.5258
 3841TIP3    H232939   6.117   4.844  16.053 -2.3329 -0.1271 -2.1432
 3842TIP3   OH232940   4.963   2.377  16.109  0.0417 -0.1800 -0.0042
 3842TIP3    H132941   4.910   2.385  16.030  1.3052 -0.3495 -0.9076
 3842TIP3    H232942   4.977   2.283  16.120 -1.8853 -0.3375  1.6849
 3843TIP3   OH232943   6.311   0.975  14.736 -0.3369  0.2813  0.3216
 3843TIP3    H132944   6.407   0.969  14.741 -0.4441 -1.7949  0.8192
 3843TIP3    H232945   6.293   1.069  14.740  1.6633  0.7141  0.4356
 3844TIP3   OH232946   1.440   0.162  13.474 -0.0928  0.3084  0.2203
 3844TIP3    H132947   1.479   0.153  13.387  2.0306 -1.0301  1.2118
 3844TIP3    H232948   1.487   0.235  13.515 -0.4369  0.3532  0.5443
 3845TIP3   OH232949   1.951   5.545   3.576  0.2033 -0.0415 -0.0988
 3845TIP3    H132950   1.986   5.598   3.505  0.9193 -0.4143 -0.0409
 3845TIP3    H232951   1.921   5.608   3.641  0.3538  0.2939 -0.3509
 3846TIP3   OH232952   0.724   2.486  11.371 -0.7253 -0.2760  0.0626
 3846TIP3    H132953   0.632   2.481  11.343 -0.1024 -1.9190 -1.9080
 3846TIP3    H232954   0.758   2.564  11.328 -0.5838 -1.0683 -1.3128
 3847TIP3   OH232955   6.527   6.706  15.095  0.4790 -0.5678 -0.5245
 3847TIP3    H132956   6.444   6.661  15.109  0.4982  0.0378  1.9834
 3847TIP3    H232957   6.577   6.647  15.038 -0.7392 -2.1112 -0.0539
 3848TIP3   OH232958   0.497   4.783   3.866 -0.1951  0.1843  0.0564
 3848TIP3    H132959   0.414   4.821   3.895 -0.0645 -0.0295  0.7339
 3848TIP3    H232960   0.562   4.852   3.879  0.0462 -0.2482  1.3097
 3849TIP3   OH232961   3.238   1.645   5.212  0.7352 -0.3000  0.4340
 3849TIP3    H132962   3.201   1.578   5.268 -1.8545  0.5699 -0.1214
 3849TIP3    H232963   3.260   1.600   5.131 -1.2239 -0.5045 -0.0314
 3850TIP3   OH232964   4.360   0.562   0.741  0.3889 -0.7673 -0.5233
 3850TIP3    H132965   4.285   0.567   0.799 -0.4273 -0.7887 -1.5570
 3850TIP3    H232966   4.420   0.630   0.773 -1.2796  1.1946 -1.3578
 3851TIP3   OH232967   0.016   4.451   1.518  0.2758  0.1497 -0.5086
 3851TIP3    H132968  -0.073   4.421   1.496 -0.4122  2.0773 -0.5223
 3851TIP3    H232969   0.052   4.380   1.572 -0.6351 -1.4140 -1.8665
 3852TIP3   OH232970   2.647   2.418   4.227  0.0481 -0.1504 -0.0008
 3852TIP3    H132971   2.591   2.422   4.150  0.5540 -0.4900 -0.3905
 3852TIP3    H232972   2.693   2.334   4.220  0.5107  0.0635  0.3767
 3853TIP3   OH232973   6.300   1.269  14.820  0.1970  0.1772  0.4585
 3853TIP3    H132974   6.362   1.332  14.784 -2.1100  4.0652  2.5865
 3853TIP3    H232975   6.354   1.202  14.863  2.8641  2.1264  0.3523
 3854TIP3   OH232976   3.037   4.187   2.588 -0.0113  0.6759 -0.2629
 3854TIP3    H132977   3.092   4.187   2.510  0.0249  0.8746 -0.2381
 3854TIP3    H232978   2.947   4.195   2.554 -0.2030 -1.5524 -0.4162
 3855TIP3   OH232979   6.389   0.386   3.038  0.2108  0.0284 -0.0835
 3855TIP3    H132980   6.378   0.453   3.105  1.6916  0.8320 -0.5979
 3855TIP3    H232981   6.395   0.304   3.087 -3.1764 -0.0459  0.4851
 3856TIP3   OH232982   4.645   6.101   3.746 -0.2437  0.2646  0.2410
 3856TIP3    H132983   4.600   6.177   3.709  0.2300  0.7569  0.6601
 3856TIP3    H232984   4.688   6.134   3.825 -0.6306 -0.6103  0.8360
 3857TIP3   OH232985   5.142   0.603  10.908  0.2441  0.0264  0.1942
 3857TIP3    H132986   5.174   0.623  10.996  0.2301  0.3973  0.1154
 3857TIP3    H232987   5.095   0.682  10.881  0.5670  0.0544 -0.2940
 3858TIP3   OH232988   3.524   5.411  16.656 -0.0827 -0.1941 -0.5318
 3858TIP3    H132989   3.580   5.420  16.578  0.7493  0.5875  0.1378
 3858TIP3    H232990   3.439   5.445  16.628  0.3810  0.6855 -0.9293
 3859TIP3   OH232991   3.015   5.123   3.704 -0.2968 -0.8014  0.6632
 3859TIP3    H132992   3.060   5.167   3.775 -0.3825  2.1392 -0.9335
 3859TIP3    H232993   2.923   5.150   3.713 -1.1044 -3.5760  1.6256
 3860TIP3   OH232994   3.074   6.035  14.733 -0.9107 -0.3905 -1.1639
 3860TIP3    H132995   3.153   5.998  14.694 -0.4952 -0.4145 -0.3250
 3860TIP3    H232996   3.003   5.999  14.681 -0.5436 -2.6170 -0.2338
 3861TIP3   OH232997   0.909   0.208   2.848 -0.3242 -0.3247 -0.4581
 3861TIP3    H132998   0.942   0.125   2.882 -0.9769  1.0871  4.2338
 3861TIP3    H232999   0.987   0.262   2.835 -0.1461 -0.1808  1.0922
 3862TIP3   OH233000   4.519   4.285   1.512 -0.0195  0.2221 -0.1661
 3862TIP3    H133001   4.501   4.191   1.503  1.7060 -0.0385 -1.3558
 3862TIP3    H233002   4.614   4.290   1.524  0.0332  1.8715 -1.1050
 3863TIP3   OH233003   3.458   5.972   0.080 -0.3328 -0.0321  0.8682
 3863TIP3    H133004   3.522   5.976   0.151 -0.1155  0.5789  0.6434
 3863TIP3    H233005   3.438   6.063   0.061  0.1626 -0.1668 -0.3520
 3864TIP3   OH233006   3.731   6.147   2.399 -0.4702  0.0978  0.6975
 3864TIP3    H133007   3.654   6.204   2.399 -0.7688 -0.2632  2.5812
 3864TIP3    H233008   3.798   6.196   2.351 -1.2848  1.2307  0.6923
 3865TIP3   OH233009   2.615   3.671   5.555 -0.0375 -0.7480  0.3849
 3865TIP3    H133010   2.674   3.745   5.542 -1.1315 -0.0811 -1.0647
 3865TIP3    H233011   2.608   3.662   5.650  3.7754 -2.0371  0.7139
 3866TIP3   OH233012   0.620   5.074   5.433 -0.3697  0.0142  1.0272
 3866TIP3    H133013   0.715   5.074   5.424 -0.3024  0.4748  1.6988
 3866TIP3    H233014   0.604   5.039   5.521 -0.8551 -0.7661  0.6418
 3867TIP3   OH233015   0.319   0.406  16.745 -0.4586 -0.7045  0.0379
 3867TIP3    H133016   0.374   0.481  16.721  0.8784 -1.5908  0.2232
 3867TIP3    H233017   0.343   0.386  16.836  1.3540 -3.0853 -0.8551
 3868TIP3   OH233018   3.510   6.412   3.936  0.3101 -0.7540  0.2278
 3868TIP3    H133019   3.461   6.375   4.010  1.6290  0.9746  2.0714
 3868TIP3    H233020   3.599   6.377   3.947  0.7473  0.2698  0.0461
 3869TIP3   OH233021   0.018   3.996   0.866 -0.5059 -0.1696 -0.0435
 3869TIP3    H133022  -0.051   4.001   0.800 -0.2312 -0.0663 -0.3250
 3869TIP3    H233023   0.002   4.071   0.923  0.1726  0.6533 -0.8986
 3870TIP3   OH233024   4.963   2.764  16.425  0.0314 -0.4799 -0.0517
 3870TIP3    H133025   4.967   2.715  16.343 -0.1094 -1.4551  0.5105
 3870TIP3    H233026   4.900   2.834  16.408  1.2074  0.3370 -1.2824
 3871TIP3   OH233027   5.158   1.289  14.966  0.1749 -0.2671 -0.0365
 3871TIP3    H133028   5.248   1.292  14.998  0.4383  1.7542 -0.7927
 3871TIP3    H233029   5.166   1.276  14.872 -0.2798  0.3231 -0.1642
 3872TIP3   OH233030   1.189   4.448  14.264  0.1285  0.5416 -0.0713
 3872TIP3    H133031   1.218   4.485  14.347 -0.9268 -0.2649  0.6836
 3872TIP3    H233032   1.097   4.425  14.279  0.6907 -2.2900 -0.4868
 3873TIP3   OH233033   1.147   4.422  11.207 -0.4417 -0.8496 -0.2970
 3873TIP3    H133034   1.160   4.516  11.217 -1.7558 -0.5476 -1.1302
 3873TIP3    H233035   1.085   4.399  11.276 -1.2444 -0.7918 -0.9651
 3874TIP3   OH233036   4.963   5.813  14.814  0.7599  0.5274  0.5576
 3874TIP3    H133037   4.973   5.729  14.769 -0.8717  0.3164  0.5372
 3874TIP3    H233038   5.018   5.873  14.764  0.5049 -0.1298 -0.5519
 3875TIP3   OH233039   4.767   6.204  14.516 -0.3983  0.0283  0.4757
 3875TIP3    H133040   4.736   6.156  14.439  0.6841  0.4382 -0.2348
 3875TIP3    H233041   4.724   6.160  14.590  1.4222 -2.8958  0.0012
 3876TIP3   OH233042   0.496   2.225   0.131  0.1732  0.7064  0.0574
 3876TIP3    H133043   0.430   2.292   0.152 -0.9683  0.1007 -1.4416
 3876TIP3    H233044   0.468   2.148   0.180  1.4772  1.2504  1.7675
 3877TIP3   OH233045   4.922   3.781   2.140  0.4888 -0.0261 -0.8366
 3877TIP3    H133046   5.003   3.736   2.116  0.5283  0.5457 -1.7927
 3877TIP3    H233047   4.855   3.744   2.082 -0.0972 -0.9708  0.3844
 3878TIP3   OH233048   6.222   0.368  15.017 -0.3325 -0.2013 -0.1966
 3878TIP3    H133049   6.137   0.363  15.061  0.2585  0.0331  1.0273
 3878TIP3    H233050   6.261   0.449  15.050 -0.0499  0.2379 -1.5464
 3879TIP3   OH233051   5.572   2.933  16.794  0.7968  0.0521 -0.3866
 3879TIP3    H133052   5.548   3.016  16.835 -0.0476 -0.0758 -0.6035
 3879TIP3    H233053   5.668   2.932  16.796  0.8005  0.0775  1.5283
 3880TIP3   OH233054   1.822   4.126  13.144  0.0581  0.0708 -0.3967
 3880TIP3    H133055   1.860   4.086  13.065 -1.0578 -0.2798 -0.7700
 3880TIP3    H233056   1.833   4.220  13.130  1.5811 -0.0221 -0.0761
 3881TIP3   OH233057   1.158   1.483  12.846  0.0372 -0.1911  0.2997
 3881TIP3    H133058   1.233   1.542  12.843 -0.4235  0.4329  0.9038
 3881TIP3    H233059   1.195   1.397  12.825  0.4530  0.5082 -2.2236
 3882TIP3   OH233060   3.550   0.044   2.863  0.0184 -0.1806  0.3684
 3882TIP3    H133061   3.496   0.058   2.940 -0.7662  0.8305 -0.3333
 3882TIP3    H233062   3.489   0.054   2.789  1.0753  0.6638 -0.4272
 3883TIP3   OH233063   0.714   4.084   1.205  0.0932  0.2841 -0.2898
 3883TIP3    H133064   0.741   4.017   1.142 -2.3475 -0.7064 -0.4032
 3883TIP3    H233065   0.737   4.047   1.290  0.7045  0.2776 -0.4562
 3884TIP3   OH233066   2.767   6.244  14.337 -0.6445 -0.7598 -0.0631
 3884TIP3    H133067   2.767   6.318  14.276 -0.7520  0.7002  1.6331
 3884TIP3    H233068   2.750   6.284  14.423  1.9699 -2.4056  1.3274
 3885TIP3   OH233069   1.130   5.838  13.633  0.1601  0.2765  0.0542
 3885TIP3    H133070   1.097   5.749  13.619  0.5875 -0.0137  0.8348
 3885TIP3    H233071   1.088   5.866  13.714 -0.9573  1.2825 -0.8364
 3886TIP3   OH233072   3.382   3.307  15.537  0.0222 -0.3381 -0.2321
 3886TIP3    H133073   3.380   3.228  15.591  1.3780 -0.4795 -0.3482
 3886TIP3    H233074   3.462   3.298  15.486  1.5336  2.1906  1.4509
 3887TIP3   OH233075   6.274   1.455   3.988  0.0838  0.5485 -0.1478
 3887TIP3    H133076   6.264   1.390   3.918 -0.4270  0.5974 -0.1289
 3887TIP3    H233077   6.341   1.418   4.046 -0.6310 -0.2580  0.1883
 3888TIP3   OH233078   1.635   0.084   3.195 -0.4023  0.0320 -0.5938
 3888TIP3    H133079   1.636  -0.003   3.155 -0.4305  0.1438 -0.8391
 3888TIP3    H233080   1.681   0.140   3.132 -0.9108  0.3190 -0.7115
 3889TIP3   OH233081   0.927   0.132   0.225 -0.2910 -0.2260 -0.3359
 3889TIP3    H133082   0.865   0.088   0.166  0.1838  1.5165 -2.2388
 3889TIP3    H233083   0.894   0.222   0.231  1.1540  0.3045 -0.0607
 3890TIP3   OH233084   1.396   1.631   2.848 -0.3288  0.4127  0.1950
 3890TIP3    H133085   1.356   1.684   2.780 -0.6012 -0.1500 -0.0937
 3890TIP3    H233086   1.371   1.673   2.930 -3.3025 -1.0627  0.1642
 3891TIP3   OH233087   4.427   1.707  11.598  0.2492  0.5109  0.3366
 3891TIP3    H133088   4.522   1.714  11.591  0.3493  0.0742  1.0661
 3891TIP3    H233089   4.403   1.769  11.667  0.1486 -0.1572  0.9208
 3892TIP3   OH233090   3.318   3.105  13.726 -0.5464 -0.1571 -0.1990
 3892TIP3    H133091   3.309   3.194  13.760  0.3641 -0.4614  0.9306
 3892TIP3    H233092   3.311   3.049  13.803 -0.5723 -1.0288 -0.8202
 3893TIP3   OH233093   2.904   1.398   3.618 -0.1079  0.1828 -0.1661
 3893TIP3    H133094   2.943   1.451   3.687 -0.6257  0.1353  0.1644
 3893TIP3    H233095   2.961   1.413   3.542 -1.2152  2.6529 -0.6084
 3894TIP3   OH233096   1.444   3.907  11.953 -0.6690 -0.1897  0.6043
 3894TIP3    H133097   1.388   3.839  11.916 -1.4036  0.3143  0.7552
 3894TIP3    H233098   1.415   3.915  12.044 -0.9933  0.7118  0.4365
 3895TIP3   OH233099   0.970   0.225   5.107  0.0621 -0.0005  0.0982
 3895TIP3    H133100   0.916   0.150   5.133  0.1849  0.4084  1.6240
 3895TIP3    H233101   1.053   0.212   5.152  1.2158 -0.4978 -2.0453
 3896TIP3   OH233102   2.399   5.252  13.787 -0.2439  0.1572 -0.0317
 3896TIP3    H133103   2.343   5.233  13.711 -0.9514 -2.0944  0.9489
 3896TIP3    H233104   2.342   5.240  13.863  1.3523 -1.5720  0.9874
 3897TIP3   OH233105   4.402   3.535  13.151  0.0101 -0.3383 -0.4697
 3897TIP3    H133106   4.425   3.494  13.235  1.7986  0.9631 -0.2580
 3897TIP3    H233107   4.347   3.610  13.175 -1.2547 -1.1792 -0.6630
 3898TIP3   OH233108   3.751   1.056   0.788  0.2153 -0.5847  0.1162
 3898TIP3    H133109   3.677   1.110   0.761 -0.2935 -0.3377  1.8313
 3898TIP3    H233110   3.710   0.980   0.831  0.8607  0.5119  2.9080
 3899TIP3   OH233111   6.286   3.262  15.717  0.5078 -0.2921  0.0578
 3899TIP3    H133112   6.377   3.246  15.743  0.5142 -1.1901 -0.4659
 3899TIP3    H233113   6.293   3.327  15.648  0.5195  1.7966  1.9169
 3900TIP3   OH233114   2.725   6.300   5.984  0.1643  0.1538 -0.4022
 3900TIP3    H133115   2.774   6.377   5.955  0.3310  0.4566  0.6307
 3900TIP3    H233116   2.787   6.250   6.037 -0.6752  0.7315  1.2394
 3901TIP3   OH233117   2.271   0.091   2.785 -0.0345  0.2444 -0.2947
 3901TIP3    H133118   2.320   0.145   2.846 -1.7185 -0.1085  1.4626
 3901TIP3    H233119   2.299   0.001   2.805 -1.1897  0.0577  0.5890
 3902TIP3   OH233120   6.770   0.165   4.342 -0.2899 -0.3336  0.5980
 3902TIP3    H133121   6.708   0.112   4.392 -1.0888 -0.2532 -0.2780
 3902TIP3    H233122   6.825   0.101   4.297  2.1954 -0.4682  3.5623
 3903TIP3   OH233123   3.514   6.547  15.174 -0.2302 -0.6049 -0.6165
 3903TIP3    H133124   3.557   6.605  15.112  1.2237 -0.4806  0.4440
 3903TIP3    H233125   3.586   6.498  15.214 -0.7184  1.2785  2.9656
 3904TIP3   OH233126   4.977   2.734  12.428  0.4043  0.0026  0.1474
 3904TIP3    H133127   4.910   2.684  12.474  2.9374 -2.8091  1.1080
 3904TIP3    H233128   5.030   2.773  12.497  0.2214  1.6057 -0.5730
 3905TIP3   OH233129   1.351   0.446  11.632  0.2560 -0.2814  0.0701
 3905TIP3    H133130   1.417   0.377  11.625 -0.3404 -0.7581 -0.9953
 3905TIP3    H233131   1.386   0.506  11.698  1.6565 -0.6208 -0.3462
 3906TIP3   OH233132   3.832   2.162   4.902 -0.0083 -0.1492 -0.0290
 3906TIP3    H133133   3.907   2.109   4.874 -0.4057 -0.5100 -0.4328
 3906TIP3    H233134   3.863   2.252   4.896  0.9597 -0.3474  1.5057
 3907TIP3   OH233135   1.562   5.491  17.182 -0.3613 -0.2410  0.4952
 3907TIP3    H133136   1.514   5.410  17.169  0.9493 -0.9725 -0.0086
 3907TIP3    H233137   1.639   5.466  17.233  0.7397  0.4027 -0.7789
 3908TIP3   OH233138   6.111   6.637  12.719  0.0790  0.4837  0.1287
 3908TIP3    H133139   6.058   6.582  12.661  1.7256 -0.8048 -0.2543
 3908TIP3    H233140   6.096   6.600  12.806  0.3207  0.1237  0.0223
 3909TIP3   OH233141   1.335   1.127   1.724  0.1424 -0.2019 -0.1166
 3909TIP3    H133142   1.322   1.179   1.644 -0.4773  0.2232  0.2523
 3909TIP3    H233143   1.328   1.190   1.795 -1.2668 -0.8819  0.3788
 3910TIP3   OH233144   2.333   6.268  12.644 -0.1455  0.5788  0.5733
 3910TIP3    H133145   2.286   6.299  12.721 -0.2676  0.0445  0.7151
 3910TIP3    H233146   2.265   6.232  12.587 -0.0852  1.1646  0.1153
 3911TIP3   OH233147   0.734   6.159  14.783 -0.0961 -0.2921  0.2002
 3911TIP3    H133148   0.786   6.197  14.712 -0.6723 -0.3953 -0.2853
 3911TIP3    H233149   0.794   6.155  14.857  1.0749 -1.8736 -0.7651
 3912TIP3   OH233150   6.228   3.870   1.288  0.8018  0.2240  0.2851
 3912TIP3    H133151   6.186   3.796   1.333  0.1761  0.2706 -0.2041
 3912TIP3    H233152   6.159   3.906   1.232  0.8665  1.6931  1.1259
 3913TIP3   OH233153   0.074   3.972   2.844  0.7103 -0.4133  0.4115
 3913TIP3    H133154   0.096   4.041   2.906 -0.7561  0.2289  0.2597
 3913TIP3    H233155   0.030   3.906   2.897  0.1856 -0.2369  0.1995
 3914TIP3   OH233156   4.071   6.739   2.771 -0.3003 -0.3822 -0.1174
 3914TIP3    H133157   4.044   6.826   2.798  0.3549 -0.7690  1.9785
 3914TIP3    H233158   4.145   6.718   2.828 -0.0553 -2.0774 -0.9901
 3915TIP3   OH233159   2.955   0.350  14.560  0.1895 -0.0295  0.3180
 3915TIP3    H133160   2.897   0.298  14.615 -1.1091  1.5396  0.4707
 3915TIP3    H233161   2.912   0.351  14.474  1.3643 -1.0555 -0.3318
 3916TIP3   OH233162   5.693   1.014   3.606 -0.3952  0.1839  0.8497
 3916TIP3    H133163   5.744   1.068   3.546 -0.4070 -0.1416  0.5373
 3916TIP3    H233164   5.752   0.996   3.679 -0.3379  0.4814  0.8770
 3917TIP3   OH233165   3.049   4.812  11.561  0.5394  0.0064  0.5700
 3917TIP3    H133166   3.074   4.720  11.565  1.3273  0.2187  0.6272
 3917TIP3    H233167   2.959   4.814  11.596  0.2618 -0.8231 -0.0732
 3918TIP3   OH233168   4.681   1.253   4.711  0.0451 -0.2276 -0.1849
 3918TIP3    H133169   4.651   1.343   4.723  0.4338  0.2346 -2.2583
 3918TIP3    H233170   4.756   1.244   4.770  0.0531  0.8331 -0.0249
 3919TIP3   OH233171   1.812   5.320  14.864  0.5819  0.0275  0.2916
 3919TIP3    H133172   1.755   5.308  14.788 -0.5914  0.6472  1.0635
 3919TIP3    H233173   1.778   5.397  14.908  0.6242 -0.8811  2.0066
 3920TIP3   OH233174   0.624   6.537  14.999 -0.3322  0.1464  0.1033
 3920TIP3    H133175   0.607   6.567  15.088 -0.3013  1.0322 -0.1828
 3920TIP3    H233176   0.697   6.476  15.007  1.0113  1.7369  0.4453
 3921TIP3   OH233177   4.780   4.932  13.075  0.0069  1.0978  0.6291
 3921TIP3    H133178   4.813   4.990  13.006 -2.3334  1.0718 -0.6137
 3921TIP3    H233179   4.733   4.863  13.028 -0.8931  0.5723  2.2307
 3922TIP3   OH233180   4.855   6.011   4.672 -0.0064  0.2834  0.4362
 3922TIP3    H133181   4.760   6.020   4.666 -0.1072 -0.3326  1.0402
 3922TIP3    H233182   4.887   6.100   4.685 -0.4930  0.5032  0.1382
 3923TIP3   OH233183   6.254   3.635   4.213 -0.5431 -0.0351  0.4637
 3923TIP3    H133184   6.312   3.561   4.233 -1.1089 -0.6709 -0.2098
 3923TIP3    H233185   6.281   3.704   4.274 -0.4430 -1.0116  1.5442
 3924TIP3   OH233186   6.480   5.647  16.900 -0.1131 -0.0694  0.1784
 3924TIP3    H133187   6.424   5.716  16.865  2.3532  0.8267 -2.3503
 3924TIP3    H233188   6.512   5.600  16.823  3.5613  0.2902  1.2721
 3925TIP3   OH233189   3.780   4.914  14.131 -0.2206 -0.2723  0.0459
 3925TIP3    H133190   3.728   4.872  14.062  0.6923 -0.0147 -0.8196
 3925TIP3    H233191   3.783   5.006  14.107  3.2210 -0.6705 -1.7563
 3926TIP3   OH233192   0.815   0.378  12.523  0.1690  0.0453 -0.3228
 3926TIP3    H133193   0.842   0.287  12.536  0.6112 -0.1301 -2.1593
 3926TIP3    H233194   0.739   0.372  12.465 -0.8620  0.7941  0.8997
 3927TIP3   OH233195   4.391   0.673  16.805 -0.4097 -0.4349  0.1665
 3927TIP3    H133196   4.363   0.734  16.736  0.5642  0.5347  0.6058
 3927TIP3    H233197   4.316   0.669  16.865 -0.1643  1.0564  0.6094
 3928TIP3   OH233198   5.564   5.599   5.109  0.1651 -0.4382  0.0540
 3928TIP3    H133199   5.479   5.641   5.098  0.4510  0.5735  1.4402
 3928TIP3    H233200   5.552   5.511   5.073 -0.7733  0.4306 -1.9114
 3929TIP3   OH233201   1.547   3.620   5.350 -0.0129 -0.0892  0.3364
 3929TIP3    H133202   1.484   3.691   5.338  1.0066  0.7569 -0.1573
 3929TIP3    H233203   1.496   3.540   5.336 -0.6667  0.6194 -1.6119
 3930TIP3   OH233204   3.616   1.930   5.631  0.3815 -0.3673  0.8290
 3930TIP3    H133205   3.633   1.841   5.601  0.8921  0.0150 -0.0395
 3930TIP3    H233206   3.579   1.975   5.555  0.3661  0.2326  1.1810
 3931TIP3   OH233207   6.431   6.650   2.333 -0.1187 -0.0343  0.3998
 3931TIP3    H133208   6.432   6.557   2.354 -0.7712 -0.3128 -0.7245
 3931TIP3    H233209   6.421   6.694   2.418 -1.0336 -1.0413  0.8353
 3932TIP3   OH233210   0.274   4.663  14.158  0.2133  0.1622 -0.1535
 3932TIP3    H133211   0.278   4.644  14.252  0.2095 -1.1422 -0.3923
 3932TIP3    H233212   0.283   4.758  14.152 -0.3801  0.3235  1.1992
 3933TIP3   OH233213   1.784   2.996  11.850  0.2218  0.1879 -0.0614
 3933TIP3    H133214   1.774   2.948  11.933  0.4279  1.0952  0.5024
 3933TIP3    H233215   1.779   3.088  11.875  0.4208  0.4765 -1.0498
 3934TIP3   OH233216   5.114   4.428   0.661  0.0780  0.0540  0.2474
 3934TIP3    H133217   5.107   4.337   0.690  2.2707  0.0892  1.0632
 3934TIP3    H233218   5.153   4.474   0.736  0.6678  1.2946 -0.7879
 3935TIP3   OH233219   5.268   0.361   1.826 -0.3962  0.1444  0.0181
 3935TIP3    H133220   5.324   0.352   1.749  0.7514 -1.3201  0.9620
 3935TIP3    H233221   5.180   0.346   1.794  0.0019  0.0873 -1.0887
 3936TIP3   OH233222   1.590   1.673   3.535 -0.2723  0.5030  0.3555
 3936TIP3    H133223   1.554   1.670   3.446  1.2346 -1.0578 -0.2781
 3936TIP3    H233224   1.589   1.581   3.564 -0.6857  0.9819  1.9458
 3937TIP3   OH233225   3.485   3.856  12.720  0.7024  0.1445  0.2241
 3937TIP3    H133226   3.407   3.851  12.774  0.3097  0.5578 -0.2866
 3937TIP3    H233227   3.524   3.769  12.724  0.8904  0.2773  1.4684
 3938TIP3   OH233228   6.384   0.287  12.661  0.5184 -0.2878  0.2901
 3938TIP3    H133229   6.393   0.369  12.711  0.3571 -0.1819  0.1444
 3938TIP3    H233230   6.414   0.309  12.573 -1.9995  0.3495 -0.5061
 3939TIP3   OH233231   1.192   1.590   5.445  0.5078 -0.2186 -0.0181
 3939TIP3    H133232   1.276   1.627   5.470  0.4306  0.1654 -0.3184
 3939TIP3    H233233   1.128   1.634   5.501  0.3059  0.8356 -1.0547
 3940TIP3   OH233234   1.876   5.232  16.130 -0.3214 -0.0869 -0.4159
 3940TIP3    H133235   1.882   5.191  16.044 -1.8127 -1.0711 -0.0957
 3940TIP3    H233236   1.884   5.326  16.112 -1.4440 -0.2062 -1.7469
 3941TIP3   OH233237   5.094   1.802   3.258  0.3209  0.2390  0.6565
 3941TIP3    H133238   5.126   1.818   3.170  1.2647 -3.3207  0.1911
 3941TIP3    H233239   4.999   1.814   3.252  0.0809 -1.9789 -1.5044
 3942TIP3   OH233240   0.180   2.612   0.048 -0.0447  0.3379  0.0461
 3942TIP3    H133241   0.231   2.543   0.005 -0.0578  0.4106 -0.0867
 3942TIP3    H233242   0.155   2.671  -0.023  1.4336  1.4407  0.3887
 3943TIP3   OH233243   0.748   2.679   0.802  0.5054  0.9284 -0.2857
 3943TIP3    H133244   0.711   2.596   0.831  0.9134  0.7916 -0.1575
 3943TIP3    H233245   0.719   2.687   0.711  1.7869 -0.1337 -0.8126
 3944TIP3   OH233246   5.271   6.348  16.531  0.0733  0.5220  0.3865
 3944TIP3    H133247   5.183   6.337  16.495  0.3469 -0.2168 -0.0837
 3944TIP3    H233248   5.271   6.436  16.568 -0.9595  0.4121  0.6759
 3945TIP3   OH233249   6.331   4.377   1.125  0.1271  0.0078  0.0278
 3945TIP3    H133250   6.419   4.349   1.149  0.6818  1.6757  0.0802
 3945TIP3    H233251   6.281   4.369   1.206  0.1437 -1.1985 -0.0643
 3946TIP3   OH233252   2.583   4.463   4.927 -0.2462  0.4950 -0.0792
 3946TIP3    H133253   2.674   4.449   4.900  0.1528  2.0394  0.3629
 3946TIP3    H233254   2.531   4.426   4.856  0.7154 -0.5968 -0.2440
 3947TIP3   OH233255   6.247   4.024  14.696  0.2761  0.0295 -0.3126
 3947TIP3    H133256   6.219   4.057  14.611  0.4564  1.5387  0.1700
 3947TIP3    H233257   6.323   3.970  14.677  3.0532  3.7216 -0.8713
 3948TIP3   OH233258   6.140   4.432  11.154 -0.1415  0.7623 -0.5292
 3948TIP3    H133259   6.192   4.494  11.102  2.1852 -0.6000  0.0419
 3948TIP3    H233260   6.054   4.473  11.161  0.5066  2.6379 -2.4445
 3949TIP3   OH233261   1.561   1.151  15.676 -0.2256 -0.3713  0.2091
 3949TIP3    H133262   1.635   1.192  15.721 -0.4523 -0.1582  0.3894
 3949TIP3    H233263   1.601   1.091  15.614  0.1073 -2.3278  2.1886
 3950TIP3   OH233264   2.018   3.013  16.453 -0.3629 -0.1927 -0.3702
 3950TIP3    H133265   2.081   3.083  16.472 -0.7164 -0.4815  2.0959
 3950TIP3    H233266   2.067   2.932  16.465 -0.8655 -0.4060  0.2456
 3951TIP3   OH233267   0.362   3.374  11.354  0.1506  0.3105  0.4200
 3951TIP3    H133268   0.396   3.424  11.279 -1.5006  1.7657  0.6026
 3951TIP3    H233269   0.299   3.432  11.395 -1.9902 -1.9691  0.5624
 3952TIP3   OH233270   4.968   0.096  16.040  0.0823  0.0226 -0.4880
 3952TIP3    H133271   5.005   0.054  16.118  2.4518  0.3234 -1.3572
 3952TIP3    H233272   4.873   0.086  16.050  0.3559 -1.0083  1.8150
 3953TIP3   OH233273   5.193   1.455  13.664 -0.0495  0.0950 -0.0670
 3953TIP3    H133274   5.187   1.359  13.666  0.2535  0.0206 -1.3782
 3953TIP3    H233275   5.237   1.478  13.746  0.6955 -0.9703 -0.1443
 3954TIP3   OH233276   5.967   2.716  14.382  0.2369  0.0303  1.0579
 3954TIP3    H133277   6.001   2.667  14.306  0.1112  0.9259  0.4029
 3954TIP3    H233278   5.889   2.669  14.408 -0.4948  0.4656 -0.2520
 3955TIP3   OH233279   1.609   3.200  15.326  0.8873  0.0367  0.5160
 3955TIP3    H133280   1.568   3.130  15.378  2.3403 -0.5794  0.8725
 3955TIP3    H233281   1.664   3.246  15.389 -0.3520  1.7874  0.3743
 3956TIP3   OH233282   2.938   4.779   2.502  0.2441 -0.0519 -0.6588
 3956TIP3    H133283   2.944   4.809   2.593 -2.3940  0.4292 -0.5567
 3956TIP3    H233284   2.861   4.723   2.501  0.5066 -0.4216 -2.5229
 3957TIP3   OH233285   5.613   0.718  13.832 -0.5208 -0.2159  1.0362
 3957TIP3    H133286   5.583   0.703  13.921  0.0553  0.1128  1.2942
 3957TIP3    H233287   5.696   0.764  13.842 -0.6460  0.1860  0.3190
 3958TIP3   OH233288   2.590   2.689  16.201 -0.1412  0.2927  1.1348
 3958TIP3    H133289   2.581   2.640  16.119  1.9530  0.4326  0.7656
 3958TIP3    H233290   2.649   2.761  16.180 -1.3223  1.6414  2.2521
 3959TIP3   OH233291   4.248   5.592  12.034  0.0605  0.5300 -0.2372
 3959TIP3    H133292   4.308   5.666  12.030 -0.8706  1.2428 -1.9629
 3959TIP3    H233293   4.161   5.631  12.029 -0.4812 -0.6250 -0.2820
 3960TIP3   OH233294   4.565   5.758  10.910 -1.0914  0.1698 -0.6190
 3960TIP3    H133295   4.522   5.842  10.928  0.3840  0.7495  0.3925
 3960TIP3    H233296   4.508   5.693  10.952 -0.9650  0.9326  0.8288
 3961TIP3   OH233297   5.684   0.509   0.973 -0.0298  0.3871 -0.4809
 3961TIP3    H133298   5.678   0.599   1.004  2.9433  1.4673 -2.6176
 3961TIP3    H233299   5.649   0.511   0.884 -0.0866 -0.6049 -0.4921
 3962TIP3   OH233300   1.286   2.699   0.924  0.4077 -0.1252 -0.2001
 3962TIP3    H133301   1.195   2.672   0.912  0.2322  1.1682 -2.2427
 3962TIP3    H233302   1.280   2.783   0.970  0.5108  0.3970 -1.1279
 3963TIP3   OH233303   3.441   4.830   4.973  0.1586  0.0261 -0.1982
 3963TIP3    H133304   3.447   4.794   4.885  3.6785  0.2495 -0.2009
 3963TIP3    H233305   3.457   4.755   5.031 -0.8466  0.1241  0.2386
 3964TIP3   OH233306   6.204   6.214  14.622 -0.3875  0.1902 -0.4327
 3964TIP3    H133307   6.206   6.147  14.554  0.6553 -0.5694  0.2994
 3964TIP3    H233308   6.116   6.252  14.617 -0.4210 -0.0422 -1.9896
 3965TIP3   OH233309   1.892   4.203   4.157  0.0431  0.0667 -0.1113
 3965TIP3    H133310   1.843   4.123   4.140 -0.2095  0.4046 -0.9986
 3965TIP3    H233311   1.826   4.272   4.166  0.3433  0.6498 -1.9869
 3966TIP3   OH233312   2.337   0.191  12.776 -0.2999  0.4849 -0.0245
 3966TIP3    H133313   2.243   0.204  12.790 -0.4168  0.4616 -0.7324
 3966TIP3    H233314   2.348   0.201  12.681  0.0261 -1.7435 -0.2805
 3967TIP3   OH233315   4.269   6.760   3.928 -0.1284  0.4736  0.5265
 3967TIP3    H133316   4.309   6.717   4.003  2.8259  0.5363 -0.8714
 3967TIP3    H233317   4.257   6.690   3.863 -1.6402  0.6037  0.6445
 3968TIP3   OH233318   2.970   1.109   0.016  0.0677  0.4656  0.4030
 3968TIP3    H133319   2.935   1.035  -0.032 -1.6229  1.2696  0.3388
 3968TIP3    H233320   3.059   1.082   0.041  0.3335 -0.6472 -1.5945
 3969TIP3   OH233321   3.396   0.964  16.581 -0.2633 -0.7779 -0.4051
 3969TIP3    H133322   3.475   0.925  16.545  1.6895  2.5785 -0.1590
 3969TIP3    H233323   3.384   1.045  16.532 -3.0964 -0.7224  0.1839
 3970TIP3   OH233324   3.727   6.719   5.816 -0.0017  0.3269 -0.1007
 3970TIP3    H133325   3.732   6.687   5.906  0.5204  0.1882 -0.1806
 3970TIP3    H233326   3.636   6.701   5.790 -0.4898  1.3947  0.7802
 3971TIP3   OH233327   0.980   1.031   1.302 -0.0471  0.0992 -0.1316
 3971TIP3    H133328   1.057   0.989   1.339  0.6638  0.3082 -1.3428
 3971TIP3    H233329   1.009   1.068   1.218 -1.5139 -0.0553 -0.7502
 3972TIP3   OH233330   5.174   5.265  14.058 -0.8274  0.4552 -0.2002
 3972TIP3    H133331   5.085   5.278  14.025 -1.7243 -1.1198  1.4167
 3972TIP3    H233332   5.178   5.172  14.081  2.1354 -0.1894 -2.6065
 3973TIP3   OH233333   2.247   4.121   4.110 -0.3891  0.1605  0.1095
 3973TIP3    H133334   2.331   4.080   4.091 -0.6794  0.0045 -0.9195
 3973TIP3    H233335   2.184   4.049   4.106 -0.3514 -0.1904  3.2027
 3974TIP3   OH233336   5.513   4.095  14.637 -0.2098 -0.3465  0.0882
 3974TIP3    H133337   5.567   4.168  14.605  0.9275 -1.0172  0.4399
 3974TIP3    H233338   5.574   4.041  14.687 -0.6565 -2.3816 -1.4649
 3975TIP3   OH233339   6.116   0.796  12.949  0.1355  0.1649 -0.3892
 3975TIP3    H133340   6.188   0.772  13.007  0.7670  0.1035 -1.1825
 3975TIP3    H233341   6.039   0.800  13.007  0.6165 -0.5758  0.3203
 3976TIP3   OH233342   1.506   0.597   0.005 -0.0647  0.1187  0.0666
 3976TIP3    H133343   1.427   0.579   0.056 -0.3048  0.3143 -0.2342
 3976TIP3    H233344   1.548   0.671   0.049 -1.2234  1.5039 -1.0407
 3977TIP3   OH233345   1.116   0.689  13.029  0.0406  0.2479 -0.3503
 3977TIP3    H133346   1.048   0.734  12.978 -0.9835  0.6295  1.2774
 3977TIP3    H233347   1.080   0.683  13.117  1.0366 -1.9188 -0.0196
 3978TIP3   OH233348   0.841   0.118  12.574  0.1821  0.7655  0.7045
 3978TIP3    H133349   0.915   0.080  12.621 -0.0801  0.6678  1.0429
 3978TIP3    H233350   0.812   0.049  12.515  0.7283  1.0052  0.1402
 3979TIP3   OH233351   0.459   4.653   3.264 -0.1329  0.4336  0.2949
 3979TIP3    H133352   0.434   4.745   3.264  0.2834  0.5562 -0.6412
 3979TIP3    H233353   0.380   4.606   3.293  0.0966  1.1714  2.2739
 3980TIP3   OH233354   4.429   0.193   4.684 -0.2237  0.3625 -0.6660
 3980TIP3    H133355   4.453   0.260   4.620 -0.4543  0.6050 -0.4977
 3980TIP3    H233356   4.361   0.234   4.737  2.4940  1.5605  2.1843
 3981TIP3   OH233357   3.187   3.067  11.791  0.4236  0.2673 -0.2589
 3981TIP3    H133358   3.182   3.051  11.886  1.9527 -1.6269 -0.4067
 3981TIP3    H233359   3.281   3.080  11.775  0.3155 -0.5181 -1.6333
 3982TIP3   OH233360   2.795   5.650   4.189  0.7526 -0.0455 -0.3113
 3982TIP3    H133361   2.725   5.702   4.149  1.1996  0.3293 -0.6049
 3982TIP3    H233362   2.748   5.583   4.240  0.1796  0.1302 -0.5970
 3983TIP3   OH233363   5.908   4.819  15.469 -0.2590 -0.1543 -0.0934
 3983TIP3    H133364   5.986   4.813  15.524 -0.0604 -1.0466 -0.4534
 3983TIP3    H233365   5.916   4.745  15.409 -1.4135 -0.2851 -0.0994
 3984TIP3   OH233366   4.962   2.794  16.723  0.1371 -0.5237  0.2273
 3984TIP3    H133367   4.939   2.778  16.632 -2.5093  1.7317  0.3699
 3984TIP3    H233368   5.058   2.796  16.723  0.4552  4.1296 -3.6401
 3985TIP3   OH233369   1.365   4.709   3.384 -0.0792 -0.3879  0.2184
 3985TIP3    H133370   1.329   4.643   3.443 -0.3396  0.8012  1.4367
 3985TIP3    H233371   1.291   4.767   3.365 -0.2796 -1.3392 -2.1843
 3986TIP3   OH233372   2.041   0.099  16.525 -0.4147 -0.1286 -0.2693
 3986TIP3    H133373   2.010   0.181  16.564  1.0850  0.8172 -0.9716
 3986TIP3    H233374   2.030   0.034  16.594 -1.2247  0.7559  0.4582
 3987TIP3   OH233375   6.270   4.034   3.793  0.0065  0.6185  0.1316
 3987TIP3    H133376   6.187   4.000   3.760  0.4109 -1.0035  0.7162
 3987TIP3    H233377   6.335   4.009   3.726  0.7042 -2.0242  1.6699
 3988TIP3   OH233378   3.282   6.508  15.837  0.6771  0.5233  0.0787
 3988TIP3    H133379   3.321   6.452  15.905 -0.6604 -1.1064 -0.4291
 3988TIP3    H233380   3.224   6.567  15.885  2.1791  1.6292  0.6337
 3989TIP3   OH233381   5.592   6.154   2.740 -0.3826 -0.2238 -0.6196
 3989TIP3    H133382   5.572   6.108   2.821  2.7944  0.3990  0.6161
 3989TIP3    H233383   5.602   6.084   2.675 -0.2267 -0.9149  0.1360
 3990TIP3   OH233384   3.119   2.445   5.419 -0.1816  0.2076  0.1257
 3990TIP3    H133385   3.123   2.502   5.496 -1.5138 -0.6768  0.8858
 3990TIP3    H233386   3.197   2.468   5.368  0.8317  0.6812  1.8204
 3991TIP3   OH233387   5.414   2.927  10.981 -0.2806  0.3699  0.5633
 3991TIP3    H133388   5.369   2.861  11.035  1.2940 -1.2235  0.0373
 3991TIP3    H233389   5.400   3.009  11.027 -0.2298 -0.7079  2.6376
 3992TIP3   OH233390   2.719   3.824   3.707 -0.7099 -0.7626 -0.2069
 3992TIP3    H133391   2.728   3.888   3.778 -2.0407  0.0700 -0.7574
 3992TIP3    H233392   2.801   3.775   3.710  0.8746  1.6766 -0.4798
 3993TIP3   OH233393   0.185   4.997  17.208 -0.2400 -0.5345 -0.3784
 3993TIP3    H133394   0.251   4.960  17.266 -1.1457 -0.2282  0.8908
 3993TIP3    H233395   0.230   5.067  17.161  0.3028 -0.1873  0.6187
 3994TIP3   OH233396   6.119   5.876   4.507 -0.0665  0.0247  0.6183
 3994TIP3    H133397   6.050   5.864   4.573 -0.7030  0.3607  0.0318
 3994TIP3    H233398   6.114   5.797   4.453 -1.0622  0.7123 -0.3619
 3995TIP3   OH233399   5.177   1.103  10.758 -0.4506  0.3842  0.1738
 3995TIP3    H133400   5.133   1.182  10.787 -1.2562  1.3412 -3.2637
 3995TIP3    H233401   5.266   1.111  10.793 -1.1842  1.5784  1.8789
 3996TIP3   OH233402   5.428   0.222  10.723 -0.1293  0.1517  0.7215
 3996TIP3    H133403   5.486   0.159  10.765  0.6804  0.0987 -0.4179
 3996TIP3    H233404   5.480   0.259  10.651 -1.6669 -0.3125 -0.7215
 3997TIP3   OH233405   2.862   5.405   2.819  0.0541  0.1561 -0.4978
 3997TIP3    H133406   2.822   5.332   2.773  1.0074 -0.2045 -0.7751
 3997TIP3    H233407   2.900   5.460   2.750  1.5327 -0.4122 -0.1770
 3998TIP3   OH233408   0.172   1.461   5.324  1.1039 -0.3312 -0.4010
 3998TIP3    H133409   0.172   1.366   5.339 -0.2808 -0.2185  0.4948
 3998TIP3    H233410   0.095   1.493   5.371  1.3831  1.2134 -0.9269
 3999TIP3   OH233411   0.741   1.654  13.338  0.1557  0.2310 -0.1037
 3999TIP3    H133412   0.664   1.677  13.285  0.4499  0.2519 -0.5315
 3999TIP3    H233413   0.710   1.586  13.398 -0.2826  0.4931 -0.0330
 4000TIP3   OH233414   1.127   3.415  12.338  0.0559 -0.0642 -0.1688
 4000TIP3    H133415   1.064   3.372  12.280  1.0926 -2.5252  0.3879
 4000TIP3    H233416   1.205   3.427  12.284  0.0482  0.3724 -0.0850
 4001TIP3   OH233417   5.473   5.057  16.917 -0.4898 -0.0929 -0.3175
 4001TIP3    H133418   5.562   5.085  16.895 -0.0586  0.8904  2.2524
 4001TIP3    H233419   5.469   4.965  16.892  1.7238 -0.5200  0.6542
 4002TIP3   OH233420   0.123   3.332  13.981 -0.0764 -0.3900  0.1665
 4002TIP3    H133421   0.074   3.367  13.907  0.5307 -2.1133 -1.1214
 4002TIP3    H233422   0.162   3.409  14.023 -0.9163  0.6646 -0.9426
 4003TIP3   OH233423   3.898   6.513   5.221  0.3875 -0.3779 -0.1656
 4003TIP3    H133424   3.917   6.607   5.218 -0.6317 -0.1852 -2.2199
 4003TIP3    H233425   3.856   6.500   5.306  1.1494  0.8843  0.4359
 4004TIP3   OH233426   3.370   5.408  14.426  0.6417  0.0463  0.3718
 4004TIP3    H133427   3.424   5.470  14.378 -2.1562  0.1056 -3.1032
 4004TIP3    H233428   3.368   5.330  14.370 -0.5098 -1.0039  1.7936
 4005TIP3   OH233429   6.558   1.848   1.927 -0.0538  0.2516  0.0367
 4005TIP3    H133430   6.538   1.764   1.968 -0.2678  1.8588  3.5841
 4005TIP3    H233431   6.654   1.851   1.925 -0.0251  0.2980  0.8816
 4006TIP3   OH233432   2.125   5.732  16.970  0.3267  0.3658  0.0617
 4006TIP3    H133433   2.122   5.737  17.065 -1.1661  0.2253  0.0557
 4006TIP3    H233434   2.102   5.641  16.949 -1.3947  0.8711 -0.4410
 4007TIP3   OH233435   1.847   4.579  16.254  0.1417  0.1692  0.0071
 4007TIP3    H133436   1.771   4.632  16.276 -0.1252 -0.6925  1.2883
 4007TIP3    H233437   1.854   4.516  16.327  1.6546 -0.2150 -0.4407
 4008TIP3   OH233438   1.646   4.828   2.594  0.2104  0.7346 -0.1184
 4008TIP3    H133439   1.706   4.835   2.668  0.1509  1.6239 -0.1528
 4008TIP3    H233440   1.695   4.779   2.528  0.1342 -0.3887  0.6320
 4009TIP3   OH233441   4.101   5.538   1.003 -0.1740 -0.9273 -0.7483
 4009TIP3    H133442   4.135   5.581   0.924  0.4312 -1.7038 -0.9270
 4009TIP3    H233443   4.178   5.521   1.057 -0.7638  1.2985  0.9245
 4010TIP3   OH233444   6.645   0.054   4.848  0.2898  0.0425  0.2432
 4010TIP3    H133445   6.572   0.030   4.905  0.2849 -2.0649 -0.5459
 4010TIP3    H233446   6.604   0.094   4.771  0.2048  1.5155  1.0153
 4011TIP3   OH233447   4.524   3.688   1.776  0.0800 -0.1054 -0.3440
 4011TIP3    H133448   4.563   3.616   1.727  1.2519 -0.4698  1.0553
 4011TIP3    H233449   4.580   3.698   1.853 -0.7570  1.5173  0.0970
 4012TIP3   OH233450   2.852   6.400   5.413  0.4146 -0.0316 -0.0753
 4012TIP3    H133451   2.872   6.424   5.504  0.3537  1.1136 -0.3555
 4012TIP3    H233452   2.764   6.434   5.398  0.6102  0.2101 -0.7059
 4013TIP3   OH233453   6.490   5.007   2.681  0.4132  0.5669 -0.7136
 4013TIP3    H133454   6.470   5.048   2.597  0.5987  1.1996 -0.4543
 4013TIP3    H233455   6.420   5.035   2.739  1.3014  1.7307 -0.1493
 4014TIP3   OH233456   0.129   0.310  10.952  0.2905 -0.8467 -0.3984
 4014TIP3    H133457   0.081   0.238  10.992  1.4157 -1.2800  0.2025
 4014TIP3    H233458   0.079   0.331  10.872 -2.6417  0.7661  1.6483
 4015TIP3   OH233459   4.292   3.703  16.333 -0.5979  0.0232  0.0013
 4015TIP3    H133460   4.267   3.618  16.295 -0.0678 -0.1068 -0.0550
 4015TIP3    H233461   4.387   3.705  16.327 -0.5559  0.2918  0.7267
 4016TIP3   OH233462   1.348   4.569   3.143  0.0379  0.2584  0.2269
 4016TIP3    H133463   1.370   4.636   3.208  1.2283  2.8273 -2.5513
 4016TIP3    H233464   1.291   4.615   3.081  2.2438 -0.7097 -2.7219
 4017TIP3   OH233465   1.261   4.674   3.748  0.2238  0.0579  0.3402
 4017TIP3    H133466   1.305   4.596   3.715  2.3945  0.9591  0.9723
 4017TIP3    H233467   1.184   4.683   3.691  0.0869 -2.3100  0.0443
 4018TIP3   OH233468   5.606   4.623   2.538  0.1084  0.1994  0.2311
 4018TIP3    H133469   5.569   4.656   2.620  0.5917  0.0118  0.5280
 4018TIP3    H233470   5.678   4.567   2.565  1.0909  1.1439 -0.3543
 4019TIP3   OH233471   0.106   5.835   3.163  0.4322  0.4621 -0.3316
 4019TIP3    H133472   0.128   5.770   3.229 -1.8131  0.7566  0.7876
 4019TIP3    H233473   0.091   5.784   3.083  1.0773 -0.1141 -0.0915
 4020TIP3   OH233474   3.962   6.785   0.744  0.0570 -0.1921 -0.4075
 4020TIP3    H133475   4.053   6.803   0.768  0.0443 -1.3801  0.6182
 4020TIP3    H233476   3.954   6.818   0.654  1.0222  1.4088  0.0566
 4021TIP3   OH233477   1.661   2.470  13.927 -0.2898  0.2741 -0.7106
 4021TIP3    H133478   1.695   2.384  13.902  0.6918  0.0539  1.1945
 4021TIP3    H233479   1.622   2.457  14.013  0.3171  1.8171 -0.1566
 4022TIP3   OH233480   2.195   3.989   4.513  0.8326  0.1960  0.0717
 4022TIP3    H133481   2.235   3.913   4.471  1.2452  1.3398 -1.7443
 4022TIP3    H233482   2.112   4.001   4.466  0.9568  1.0759  0.0595
 4023TIP3   OH233483   3.930   4.967   4.849  0.4764  0.1748  0.1748
 4023TIP3    H133484   3.843   4.954   4.886 -0.2334  1.7436 -0.8184
 4023TIP3    H233485   3.915   5.018   4.769  2.2886  0.2717 -0.1599
 4024TIP3   OH233486   6.411   0.623  14.452 -0.5865  0.2449 -0.6130
 4024TIP3    H133487   6.398   0.705  14.404  0.4662  0.3072 -0.8056
 4024TIP3    H233488   6.437   0.560  14.384  1.2173  0.4066 -0.1080
 4025TIP3   OH233489   4.417   1.823  13.129 -0.6134 -0.0731  1.0565
 4025TIP3    H133490   4.445   1.914  13.116 -0.4368 -0.0734  1.4298
 4025TIP3    H233491   4.322   1.829  13.141 -0.6730  0.0074  0.5654
 4026TIP3   OH233492   6.701   0.319   0.058  0.3201 -0.1322  0.1275
 4026TIP3    H133493   6.605   0.316   0.066  0.3055 -1.0730 -0.2927
 4026TIP3    H233494   6.717   0.364  -0.025  0.3199  2.3401  1.3702
 4027TIP3   OH233495   4.665   0.280   3.023 -0.0582  0.0278 -0.3638
 4027TIP3    H133496   4.750   0.257   2.985 -0.1267  0.8288 -1.0216
 4027TIP3    H233497   4.661   0.375   3.017 -1.1743 -0.0300 -0.7066
 4028TIP3   OH233498   6.069   0.604  10.504 -0.0257  0.2117  0.2380
 4028TIP3    H133499   6.107   0.569  10.585  0.9289  0.3850 -0.1274
 4028TIP3    H233500   6.071   0.530  10.443  0.9831  0.5811 -0.1961
 4029TIP3   OH233501   3.200   1.019  13.644 -0.0468  0.0643  0.3969
 4029TIP3    H133502   3.174   1.089  13.704 -1.2426  1.1255 -1.2890
 4029TIP3    H233503   3.145   0.945  13.670 -1.3706  0.8531 -0.0667
 4030TIP3   OH233504   3.256   2.160  16.155 -0.1146 -0.1903 -0.3541
 4030TIP3    H133505   3.219   2.239  16.196  1.9768  0.6419  0.0683
 4030TIP3    H233506   3.322   2.129  16.217 -1.5783 -2.9379 -0.0315
 4031TIP3   OH233507   0.858   0.541   1.382  0.4172 -0.3808 -0.3409
 4031TIP3    H133508   0.823   0.453   1.395  1.4543 -0.6046  1.2096
 4031TIP3    H233509   0.950   0.527   1.360  0.9314  0.3095  1.2149
 4032TIP3   OH233510   4.162   0.114  14.120  0.2100 -0.5830 -0.2277
 4032TIP3    H133511   4.116   0.189  14.084 -1.0252 -1.8450 -1.4371
 4032TIP3    H233512   4.163   0.129  14.215 -0.8093  0.5140 -0.3654
 4033TIP3   OH233513   5.880   4.659   2.104  0.0516  0.0084 -0.2067
 4033TIP3    H133514   5.949   4.704   2.056  1.3040 -2.0522 -0.4695
 4033TIP3    H233515   5.822   4.625   2.036 -0.7230  0.9279 -0.0247
 4034TIP3   OH233516   2.171   0.375   4.386  0.3595 -0.1303  0.6251
 4034TIP3    H133517   2.199   0.296   4.433  3.9341  1.6200  1.8599
 4034TIP3    H233518   2.142   0.435   4.454  1.8829  1.0873  0.2661
 4035TIP3   OH233519   6.370   5.459   4.489 -0.3701 -0.5993 -0.1126
 4035TIP3    H133520   6.431   5.496   4.426  0.2039  0.1102  0.8450
 4035TIP3    H233521   6.328   5.386   4.442  0.1358 -0.1660 -1.2531
 4036TIP3   OH233522   1.580   6.748   0.263  0.7300  0.1825 -0.1512
 4036TIP3    H133523   1.531   6.673   0.298  0.7560 -0.5269 -1.5788
 4036TIP3    H233524   1.648   6.764   0.328 -0.8076  0.6229  1.4357
 4037TIP3   OH233525   0.923   0.511   0.806 -0.0130  0.2610 -0.2775
 4037TIP3    H133526   0.911   0.498   0.712 -2.2993  1.2015 -0.1836
 4037TIP3    H233527   0.857   0.455   0.847  0.1238  0.7871  0.6997
 4038TIP3   OH233528   1.119   0.658  16.706  0.4794 -0.3414  0.5394
 4038TIP3    H133529   1.024   0.666  16.702  0.5892  0.9719  0.0756
 4038TIP3    H233530   1.140   0.585  16.648 -0.2669 -0.9301  0.9941
 4039TIP3   OH233531   5.481   4.533   0.130  0.2723 -0.1050 -0.4280
 4039TIP3    H133532   5.512   4.605   0.184 -1.6309 -0.5847  1.4848
 4039TIP3    H233533   5.399   4.565   0.092  1.2002 -0.0597 -2.4927
 4040TIP3   OH233534   0.066   0.586  12.797 -0.3847 -1.0064  0.3866
 4040TIP3    H133535   0.095   0.495  12.792 -0.9757 -1.3667  2.4599
 4040TIP3    H233536   0.146   0.636  12.814 -0.0134 -1.0616 -1.0524
 4041TIP3   OH233537   0.647   1.669   5.328  0.1748 -0.2618  0.5777
 4041TIP3    H133538   0.555   1.646   5.323  0.1585 -0.3288  1.1106
 4041TIP3    H233539   0.670   1.657   5.421  0.7004 -0.1916  0.4605
 4042TIP3   OH233540   5.412   3.920   4.459  0.4050 -0.4735  0.1635
 4042TIP3    H133541   5.497   3.909   4.502  0.7685  0.3562 -0.3214
 4042TIP3    H233542   5.410   3.851   4.393  1.2539  0.2548 -0.6564
 4043TIP3   OH233543   4.575   0.090   3.347 -0.0474  0.4692  0.0893
 4043TIP3    H133544   4.560   0.185   3.339 -0.2350  0.5598  1.3066
 4043TIP3    H233545   4.663   0.083   3.382  1.2325  0.0560 -2.8888
 4044TIP3   OH233546   6.543   2.746  14.941 -0.5984 -0.2670 -0.0733
 4044TIP3    H133547   6.569   2.782  14.856  1.4050 -0.6872  0.3011
 4044TIP3    H233548   6.463   2.793  14.963 -1.0195  0.0423 -2.0584
 4045TIP3   OH233549   5.742   5.209  13.855  0.3328 -0.4128 -0.3207
 4045TIP3    H133550   5.788   5.245  13.931 -0.3331  1.8354 -0.9275
 4045TIP3    H233551   5.746   5.278  13.789 -1.5590 -1.2032 -1.3347
 4046TIP3   OH233552   2.933   3.595  11.838 -0.3862  0.3798  0.2393
 4046TIP3    H133553   3.019   3.618  11.803 -0.3740 -0.5984 -0.4346
 4046TIP3    H233554   2.918   3.506  11.807 -1.6810  0.5628  0.2865
 4047TIP3   OH233555   6.244   4.223  13.360 -0.0425 -0.0195 -0.9041
 4047TIP3    H133556   6.268   4.148  13.305  1.3363 -1.2139  1.2036
 4047TIP3    H233557   6.295   4.211  13.440 -2.3532  1.3525  0.8803
 4048TIP3   OH233558   2.042   5.024   4.889  0.8921 -0.0043  0.6440
 4048TIP3    H133559   2.037   4.956   4.956  0.2836 -0.6088  0.0055
 4048TIP3    H233560   2.035   4.976   4.806  2.5441  0.6379  0.1033
 4049TIP3   OH233561   1.568   1.130   3.220 -0.4033 -0.8502  0.5584
 4049TIP3    H133562   1.487   1.105   3.266 -0.9563  1.1531  0.7538
 4049TIP3    H233563   1.545   1.127   3.128 -0.8620  0.0934  0.6235
 4050TIP3   OH233564   5.682   1.571   4.017 -0.8098  0.3819  0.2640
 4050TIP3    H133565   5.754   1.634   4.008 -0.5058  0.0364  0.2369
 4050TIP3    H233566   5.677   1.529   3.931 -0.0883 -0.6041  0.6951
 4051TIP3   OH233567   4.941   4.936  13.552  0.2432  1.0216  0.3199
 4051TIP3    H133568   4.900   4.851  13.535 -0.7696  1.6729 -0.6506
 4051TIP3    H233569   4.985   4.925  13.636 -0.5100 -0.2273  0.5825
 4052TIP3   OH233570   3.523   0.136  11.426 -0.1354 -0.5050  0.3003
 4052TIP3    H133571   3.608   0.168  11.395 -0.9141  1.3662 -0.0186
 4052TIP3    H233572   3.544   0.070  11.492  1.5788 -2.2537 -1.8280
 4053TIP3   OH233573   2.589   6.198   4.236  0.2994  0.1389 -0.0721
 4053TIP3    H133574   2.546   6.255   4.172 -0.1715 -1.1512 -0.9575
 4053TIP3    H233575   2.537   6.118   4.235  0.9310 -0.3074  1.1475
 4054TIP3   OH233576   4.025   5.921   3.035  0.1584 -1.0428 -0.0756
 4054TIP3    H133577   3.979   5.924   2.952  0.6475 -0.5653 -0.3353
 4054TIP3    H233578   3.976   5.980   3.092  0.5622 -0.3789 -0.4118
 4055TIP3   OH233579   6.305   0.086   0.528 -0.1972 -0.6373  0.7154
 4055TIP3    H133580   6.253   0.027   0.475 -0.0556 -0.4284  0.3412
 4055TIP3    H233581   6.242   0.132   0.583 -0.7328  1.4127 -1.4435
 4056TIP3   OH233582   2.259   1.733  15.525  0.5202 -0.1584  0.2264
 4056TIP3    H133583   2.223   1.738  15.614  1.9673  1.0055  0.7928
 4056TIP3    H233584   2.319   1.659  15.529  1.4577  0.5986  0.5889
 4057TIP3   OH233585   1.260   5.561  15.673  0.3300  0.2759 -0.2411
 4057TIP3    H133586   1.268   5.520  15.759  0.8723  0.2162 -0.3138
 4057TIP3    H233587   1.221   5.646  15.690 -1.7049 -0.6129 -0.1829
 4058TIP3   OH233588   1.709   0.955   0.090  0.4800  0.2754 -0.4375
 4058TIP3    H133589   1.744   1.021   0.149  1.1179 -0.8716  0.5223
 4058TIP3    H233590   1.733   0.984   0.003 -0.1893  1.8442 -0.1376
 4059TIP3   OH233591   6.434   0.725   0.264 -0.2836 -0.0709  0.0974
 4059TIP3    H133592   6.349   0.736   0.221  0.6034  4.2225 -0.9684
 4059TIP3    H233593   6.413   0.687   0.349 -3.2126  0.3456 -0.3424
 4060TIP3   OH233594   2.355   3.868  16.764  0.0073 -0.3772  0.4831
 4060TIP3    H133595   2.431   3.926  16.772  0.9153 -1.1869 -1.5982
 4060TIP3    H233596   2.298   3.910  16.700  0.8069 -1.8105 -1.2705
 4061TIP3   OH233597   1.975   4.019  12.928  0.3171 -0.1812 -0.2516
 4061TIP3    H133598   2.057   4.058  12.898  1.5807 -3.2139 -1.1756
 4061TIP3    H233599   1.913   4.033  12.856  0.7509  0.0446 -0.5843
 4062TIP3   OH233600   4.931   4.278  12.394  0.5080  0.4375  0.2595
 4062TIP3    H133601   5.026   4.265  12.395  0.2644 -1.8853 -0.4485
 4062TIP3    H233602   4.917   4.348  12.331  1.7770  1.2449  0.8397
 4063TIP3   OH233603   0.997   5.675   3.216  0.3734  0.6290  0.3290
 4063TIP3    H133604   0.996   5.732   3.293 -1.6785  1.0021  0.0994
 4063TIP3    H233605   0.905   5.651   3.203  0.7088  0.2404 -1.7541
 4064TIP3   OH233606   0.396   4.358  13.702  0.5708 -0.4290 -0.1236
 4064TIP3    H133607   0.398   4.449  13.732  1.6176 -0.5945  0.3521
 4064TIP3    H233608   0.443   4.309  13.770  1.2498 -1.1185 -1.0648
 4065TIP3   OH233609   4.392   3.356   4.249  0.1024  0.1086 -0.0885
 4065TIP3    H133610   4.372   3.418   4.319 -0.1177 -0.5055  0.3990
 4065TIP3    H233611   4.375   3.405   4.168 -0.6250  0.5065  0.2931
 4066TIP3   OH233612   6.103   6.429   4.007 -0.1890 -0.1295 -0.4624
 4066TIP3    H133613   6.018   6.463   3.980 -0.6492  0.2441  1.3427
 4066TIP3    H233614   6.143   6.501   4.056  0.2128 -1.0790  0.6259
 4067TIP3   OH233615   4.397   1.076   0.612  0.2100 -0.4493 -0.4283
 4067TIP3    H133616   4.469   1.139   0.619  2.0199 -2.3104 -1.2448
 4067TIP3    H233617   4.380   1.050   0.703 -0.9401  1.5336 -0.0213
 4068TIP3   OH233618   3.593   1.044  10.904 -0.4791  0.2010  0.0498
 4068TIP3    H133619   3.562   1.010  10.820  0.2866  0.9646 -0.5647
 4068TIP3    H233620   3.661   1.107  10.880  0.0008  0.1606  1.2687
 4069TIP3   OH233621   5.059   6.050  14.424  0.0181  0.0786 -0.1430
 4069TIP3    H133622   5.102   6.102  14.357  0.0822  1.4101  0.8830
 4069TIP3    H233623   4.966   6.052  14.399  0.4175 -2.5115 -2.1652
 4070TIP3   OH233624   1.584   0.761   2.669  0.3507 -0.3948  0.0577
 4070TIP3    H133625   1.503   0.711   2.675 -0.3943  0.7404 -0.2397
 4070TIP3    H233626   1.601   0.768   2.575  1.0807 -1.0682  0.1326
 4071TIP3   OH233627   4.543   3.400  13.419 -0.1767  0.5416  0.0092
 4071TIP3    H133628   4.501   3.483  13.441  0.0602  0.9506 -1.0042
 4071TIP3    H233629   4.605   3.384  13.490 -0.3883  1.1175  0.3233
 4072TIP3   OH233630   1.868   1.561  11.739  0.2321  0.2264  0.0097
 4072TIP3    H133631   1.884   1.505  11.815 -0.7323 -1.2739 -0.8568
 4072TIP3    H233632   1.807   1.512  11.685 -0.2496  1.9045 -1.0488
 4073TIP3   OH233633   0.722   0.369  15.110  0.2329  0.6041  0.1284
 4073TIP3    H133634   0.810   0.331  15.104  0.1817  0.4622  0.2676
 4073TIP3    H233635   0.733   0.446  15.167  0.0894  0.0368  0.9390
 4074TIP3   OH233636   4.412   5.275  12.047  0.1871 -0.9539 -0.0917
 4074TIP3    H133637   4.377   5.290  11.959  0.9008  0.0021 -0.2336
 4074TIP3    H233638   4.507   5.281  12.037  0.2581 -0.1927  0.8412
 4075TIP3   OH233639   3.969   3.756  13.658  0.2613 -0.1102 -0.0899
 4075TIP3    H133640   4.011   3.787  13.739 -2.6620  0.9164  1.1707
 4075TIP3    H233641   3.962   3.661  13.670 -0.1177  0.0271  0.8824
 4076TIP3   OH233642   2.287   6.291  11.399  0.7120  0.1930 -0.2034
 4076TIP3    H133643   2.227   6.218  11.416  2.0365 -0.7907  0.3381
 4076TIP3    H233644   2.313   6.322  11.485  0.1047  1.4034 -0.4231
 4077TIP3   OH233645   0.608   0.372  13.919  0.4545 -0.4169  0.5244
 4077TIP3    H133646   0.606   0.282  13.886 -1.5459 -0.6006  1.0177
 4077TIP3    H233647   0.518   0.403  13.908  0.8984  1.2036  1.2460
 4078TIP3   OH233648   3.303   3.853   4.064  0.2356  0.6001  0.2479
 4078TIP3    H133649   3.228   3.830   4.009  1.0027  1.5553 -1.2724
 4078TIP3    H233650   3.293   3.799   4.142 -1.8310  0.4469 -0.0673
 4079TIP3   OH233651   6.348   2.048  13.862 -0.0504 -0.1013 -1.0388
 4079TIP3    H133652   6.315   1.990  13.931  1.5343 -0.9216 -0.9207
 4079TIP3    H233653   6.426   2.089  13.901  0.2463  0.2400 -1.9746
 4080TIP3   OH233654   4.773   2.209   3.685  0.1249 -0.8293 -0.3221
 4080TIP3    H133655   4.694   2.261   3.701 -0.3093 -1.6727  0.3542
 4080TIP3    H233656   4.786   2.214   3.590 -1.0684 -1.1331 -0.5240
 4081TIP3   OH233657   4.503   2.674  12.137 -0.2288 -0.7393  0.4431
 4081TIP3    H133658   4.554   2.737  12.189  0.2421 -1.2189  0.5690
 4081TIP3    H233659   4.463   2.727  12.068  0.6773 -0.3958  0.1685
 4082TIP3   OH233660   0.718   6.496   2.021  0.3286 -0.1604  0.3810
 4082TIP3    H133661   0.778   6.469   1.951  0.1964 -0.6673  0.4565
 4082TIP3    H233662   0.747   6.446   2.097 -1.1058 -1.5882  0.0545
 4083TIP3   OH233663   4.588   2.196   2.986 -0.1349  0.4141 -0.4781
 4083TIP3    H133664   4.610   2.171   2.896 -0.6532 -0.1732 -0.4511
 4083TIP3    H233665   4.647   2.268   3.006 -1.3344  1.8872 -1.9844
 4084TIP3   OH233666   5.387   0.032  12.859  0.1194  0.2857 -0.1468
 4084TIP3    H133667   5.475   0.022  12.896  0.3176 -1.1294 -0.9251
 4084TIP3    H233668   5.336  -0.040  12.896 -0.4779  0.6029 -0.3405
 4085TIP3   OH233669   2.328   0.417   3.050  0.1086  0.6754  0.3495
 4085TIP3    H133670   2.378   0.344   3.013 -1.1193 -0.7459  1.3503
 4085TIP3    H233671   2.394   0.481   3.077  1.2329 -0.1664 -0.3519
 4086TIP3   OH233672   3.670   4.022  14.381 -0.4729 -0.3072 -0.4979
 4086TIP3    H133673   3.760   4.048  14.360 -0.2605  2.1008  2.7132
 4086TIP3    H233674   3.678   3.933  14.413  0.9012  0.0529  0.2404
 4087TIP3   OH233675   1.425   1.643   5.557  0.5631  0.4689  0.1674
 4087TIP3    H133676   1.480   1.707   5.603  0.8389  0.6836 -0.4446
 4087TIP3    H233677   1.470   1.559   5.570  0.6688  0.5378  0.2514
 4088TIP3   OH233678   1.915   4.869   6.530  0.1448  0.6679  0.1640
 4088TIP3    H133679   1.952   4.785   6.557  1.4440  0.4409 -2.0493
 4088TIP3    H233680   1.924   4.926   6.606  0.8160 -0.7114  1.1456
 4089TIP3   OH233681   6.010   1.651   4.790  0.1476  0.3676  0.2024
 4089TIP3    H133682   6.059   1.575   4.758  1.7625  2.4033 -2.4568
 4089TIP3    H233683   5.918   1.621   4.789  0.7631 -1.6800 -0.3375
 4090TIP3   OH233684   6.500   1.301  13.914  0.2301 -0.1446  0.0327
 4090TIP3    H133685   6.458   1.347  13.841  3.1730  0.3940 -1.5012
 4090TIP3    H233686   6.497   1.363  13.986 -2.4825 -0.5707  0.3669
 4091TIP3   OH233687   4.344   0.142   6.490 -0.5895 -0.5971  0.0921
 4091TIP3    H133688   4.267   0.197   6.498 -1.2925 -1.5624  0.1116
 4091TIP3    H233689   4.321   0.061   6.535  1.1373 -0.2169  1.7919
 4092TIP3   OH233690   1.760   6.740   5.189 -0.2636  0.6025 -0.3202
 4092TIP3    H133691   1.682   6.687   5.176 -0.3680  0.7732 -0.3922
 4092TIP3    H233692   1.740   6.824   5.148 -0.5286  1.0854  0.7580
 4093TIP3   OH233693   1.688   4.147   2.960 -0.3728  0.6557  0.4269
 4093TIP3    H133694   1.612   4.206   2.960 -1.6799 -0.9645 -0.3368
 4093TIP3    H233695   1.747   4.185   2.895 -1.1249  1.1957  0.0385
 4094TIP3   OH233696   3.373   5.104  17.169  0.0967 -0.2848  0.6844
 4094TIP3    H133697   3.316   5.075  17.097 -1.5052  1.5565  1.1183
 4094TIP3    H233698   3.455   5.128  17.125 -0.9399  1.0744 -0.6404
 4095TIP3   OH233699   6.274   0.358  16.166 -0.1550  0.1074 -0.6186
 4095TIP3    H133700   6.277   0.290  16.233 -0.4765 -1.2920 -1.9585
 4095TIP3    H233701   6.192   0.342  16.120  0.4863  0.4606 -1.9208
 4096TIP3   OH233702   6.748   5.022  12.103  0.5469 -0.3677  0.5565
 4096TIP3    H133703   6.788   5.072  12.174  2.8608 -3.6009  1.7337
 4096TIP3    H233704   6.819   5.008  12.040 -1.2470  1.7242 -2.2162
 4097TIP3   OH233705   0.926   6.358   0.975 -0.0389  0.0873  0.0583
 4097TIP3    H133706   0.993   6.318   0.919  0.9279  0.0704  1.2026
 4097TIP3    H233707   0.974   6.414   1.035 -0.8566 -1.1859  2.0102
 4098TIP3   OH233708   3.385   2.337   5.343 -0.3005  0.5867  0.4992
 4098TIP3    H133709   3.468   2.300   5.313 -0.6880 -0.1110  0.2673
 4098TIP3    H233710   3.331   2.261   5.366 -0.6451  1.0512  1.2756
 4099TIP3   OH233711   4.430   0.975   0.892 -0.0539  0.0469  0.0884
 4099TIP3    H133712   4.482   1.004   0.967  1.7443 -0.9889 -0.6894
 4099TIP3    H233713   4.356   1.036   0.889  0.9474  1.4008  1.4382
 4100TIP3   OH233714   2.717   3.715   4.152 -0.1985  0.0240  0.2482
 4100TIP3    H133715   2.692   3.629   4.119 -0.5012  0.3716 -0.4532
 4100TIP3    H233716   2.651   3.736   4.218 -1.0584  0.3985 -0.7075
 4101TIP3   OH233717   0.318   0.276  15.168 -0.1355  0.5089  0.2559
 4101TIP3    H133718   0.308   0.326  15.250 -1.0679  0.4287  0.1994
 4101TIP3    H233719   0.266   0.324  15.104  0.4471  0.4682 -0.2558
 4102TIP3   OH233720   6.332   4.508  15.313 -0.3395  0.0341  0.4845
 4102TIP3    H133721   6.427   4.516  15.322 -0.5211  1.6717  1.4436
 4102TIP3    H233722   6.309   4.432  15.365  0.3784  0.0925  0.8997
 4103TIP3   OH233723   3.529   0.573  11.480  0.0183 -0.3255  0.6836
 4103TIP3    H133724   3.581   0.501  11.444 -0.1221 -0.5874  0.9962
 4103TIP3    H233725   3.579   0.652  11.461  0.8679 -0.6356  1.5879
 4104TIP3   OH233726   6.280   1.027  12.927  0.1385 -0.1581 -0.1177
 4104TIP3    H133727   6.217   0.958  12.950 -1.2302  0.5647 -1.4819
 4104TIP3    H233728   6.244   1.066  12.847  1.8363  0.9416 -0.3951
 4105TIP3   OH233729   0.080   2.917  11.087  0.6612 -0.0862  0.2777
 4105TIP3    H133730   0.107   3.005  11.113 -0.4146  0.1413  0.6801
 4105TIP3    H233731   0.025   2.931  11.010  3.1594 -0.6898 -1.7399
 4106TIP3   OH233732   0.464   4.261   0.849  0.4807  0.2420 -0.4037
 4106TIP3    H133733   0.431   4.237   0.936  1.4263 -0.3612 -0.2062
 4106TIP3    H233734   0.526   4.332   0.865  0.7903  0.0105 -0.5673
 4107TIP3   OH233735   2.729   2.729   2.176 -0.3517  0.1456 -0.2957
 4107TIP3    H133736   2.743   2.643   2.137  3.2290  0.7788 -0.7022
 4107TIP3    H233737   2.695   2.782   2.103  0.2865 -0.2044 -0.8588
 4108TIP3   OH233738   1.755   4.674   6.413  0.9576  0.7078 -0.0600
 4108TIP3    H133739   1.808   4.596   6.396  0.9715  0.3404  1.5617
 4108TIP3    H233740   1.816   4.738   6.449  0.5622  0.7245  0.6015
 4109TIP3   OH233741   0.034   0.343   2.376 -0.2592  0.2429  0.1142
 4109TIP3    H133742   0.021   0.271   2.314 -0.3041 -0.5546  1.0218
 4109TIP3    H233743  -0.007   0.312   2.457  1.0296  0.6646  0.9555
 4110TIP3   OH233744   5.111   4.811  15.958 -0.3283 -0.5458 -0.1497
 4110TIP3    H133745   5.197   4.830  15.996  0.4841 -1.0616 -1.6301
 4110TIP3    H233746   5.070   4.897  15.946  1.8086  0.2033 -3.4336
 4111TIP3   OH233747   2.883   1.556  16.425 -0.5549 -0.4732 -0.0788
 4111TIP3    H133748   2.826   1.611  16.480 -1.1802 -1.6456  0.4926
 4111TIP3    H233749   2.838   1.552  16.341  0.3068  1.1705 -0.6630
 4112TIP3   OH233750   1.092   0.237   1.181  0.1149  0.0664 -0.1210
 4112TIP3    H133751   1.132   0.286   1.109  0.6561  1.2913  0.9675
 4112TIP3    H233752   1.020   0.190   1.141  0.3849  0.7432 -1.4585
 4113TIP3   OH233753   3.436   2.035   4.010 -0.4463 -0.4459  0.9936
 4113TIP3    H133754   3.400   1.954   4.047 -1.0323  0.3208  2.1632
 4113TIP3    H233755   3.462   2.087   4.087  1.3479 -0.1317  0.2334
 4114TIP3   OH233756   6.584   2.083   4.812  0.5276  0.3065  0.1138
 4114TIP3    H133757   6.541   2.054   4.731 -2.0910  1.7407  0.8832
 4114TIP3    H233758   6.656   2.138   4.782  2.1156 -2.2795 -1.2306
 4115TIP3   OH233759   3.673   1.365  10.959 -0.6998 -0.1496 -0.3283
 4115TIP3    H133760   3.684   1.433  11.025 -1.8681  0.3631 -0.6253
 4115TIP3    H233761   3.609   1.304  10.997 -0.4146 -0.5367 -0.4646
 4116TIP3   OH233762   6.211   4.498  14.110  0.6841 -0.6151  0.3583
 4116TIP3    H133763   6.306   4.484  14.115  1.0505  0.5483 -1.9150
 4116TIP3    H233764   6.201   4.593  14.114  0.0230 -0.4297 -3.1256
 4117TIP3   OH233765   5.185   2.375  15.042 -0.3995 -0.9069 -0.6826
 4117TIP3    H133766   5.113   2.435  15.022  0.2600  0.2857  0.4262
 4117TIP3    H233767   5.164   2.338  15.127 -0.4561 -1.7499 -1.0499
 4118TIP3   OH233768   5.743   2.544  14.401  0.1529 -0.5265 -0.2825
 4118TIP3    H133769   5.753   2.462  14.450 -0.9094 -0.3162  0.3433
 4118TIP3    H233770   5.653   2.541  14.368  0.1183  0.3585 -0.2998
 4119TIP3   OH233771   2.270   0.315  10.835  0.1813  0.6642 -0.2504
 4119TIP3    H133772   2.244   0.343  10.747  0.1856  1.5579  0.0305
 4119TIP3    H233773   2.355   0.272  10.821  0.8207  1.9578 -0.5257
 4120TIP3   OH233774   6.461   6.338   2.834  0.7905 -0.3672 -0.1218
 4120TIP3    H133775   6.407   6.274   2.880 -2.2674  0.3945 -2.2977
 4120TIP3    H233776   6.433   6.332   2.743  3.7432  0.8730 -1.2474
 4121TIP3   OH233777   0.429   1.882  10.765 -0.6499  0.2183 -0.6105
 4121TIP3    H133778   0.403   1.802  10.810  1.2237  0.6184  1.3466
 4121TIP3    H233779   0.442   1.856  10.674  2.2098 -2.3559  0.3739
 4122TIP3   OH233780   4.870   6.672   0.974  0.0746  0.0382 -0.4679
 4122TIP3    H133781   4.883   6.764   0.998 -0.5582  0.3169 -1.1548
 4122TIP3    H233782   4.909   6.665   0.887  0.2533 -0.3788 -0.3523
 4123TIP3   OH233783   5.435   6.550  15.772  0.0682 -0.2467  0.3838
 4123TIP3    H133784   5.409   6.458  15.779 -0.2999 -0.0262  2.6298
 4123TIP3    H233785   5.353   6.598  15.782  0.2324  0.3677 -0.9683
 4124TIP3   OH233786   6.355   6.230  13.580 -0.5362  0.5317  0.0611
 4124TIP3    H133787   6.324   6.319  13.564 -0.4087  0.8093  1.2674
 4124TIP3    H233788   6.449   6.233  13.565 -0.7200  0.2628 -1.2343
 4125TIP3   OH233789   5.348   2.822  16.252  0.6589  0.0510 -0.4882
 4125TIP3    H133790   5.377   2.743  16.206 -1.5996 -0.9898 -0.2529
 4125TIP3    H233791   5.419   2.840  16.314  0.7765 -2.4767  0.2425
 4126TIP3   OH233792   4.533   1.774   1.128  0.1338  0.0473  0.4969
 4126TIP3    H133793   4.455   1.820   1.159  0.1624  0.8326 -0.5411
 4126TIP3    H233794   4.571   1.832   1.062  1.4207 -0.4704  0.7458
 4127TIP3   OH233795   4.724   6.367  12.260 -0.2564  0.4226 -0.1856
 4127TIP3    H133796   4.630   6.366  12.280 -0.3875 -0.2607 -0.7912
 4127TIP3    H233797   4.730   6.402  12.171  0.0157  0.0296 -0.3297
 4128TIP3   OH233798   1.253   6.661  16.402  0.0106  0.1700 -0.6625
 4128TIP3    H133799   1.252   6.591  16.338 -0.1973 -0.1183 -0.3468
 4128TIP3    H233800   1.202   6.732  16.361  0.1788  0.1199 -0.9573
 4129TIP3   OH233801   4.521   5.743   0.878 -0.2388 -0.5456  0.1037
 4129TIP3    H133802   4.586   5.676   0.898 -0.7342 -1.6165 -1.5777
 4129TIP3    H233803   4.569   5.826   0.881  0.5320 -1.0207  1.6348
 4130TIP3   OH233804   2.360   2.998  13.304 -0.4622  0.4423 -0.3126
 4130TIP3    H133805   2.379   2.933  13.372 -0.4661  0.0619 -0.6695
 4130TIP3    H233806   2.275   2.971  13.268 -0.4162  0.5829 -0.5304
 4131TIP3   OH233807   6.546   5.821  13.114  0.0158  0.5246 -0.3160
 4131TIP3    H133808   6.619   5.762  13.135 -0.0607  1.1901  2.1711
 4131TIP3    H233809   6.526   5.802  13.023  2.3122 -0.7538 -0.6479
 4132TIP3   OH233810   5.436   4.693  14.249  0.5022  0.4859  0.7334
 4132TIP3    H133811   5.372   4.738  14.194 -0.5319 -0.0631  1.4599
 4132TIP3    H233812   5.487   4.640  14.187  0.0547  0.6888  0.1779
 4133TIP3   OH233813   4.687   1.087   0.203 -0.2296  0.6153 -0.3486
 4133TIP3    H133814   4.749   1.092   0.277  0.2098  1.8462 -0.7854
 4133TIP3    H233815   4.715   1.009   0.155 -1.2747 -0.9437  1.4044
 4134TIP3   OH233816   0.688   3.192  11.336  0.2209 -0.0799  0.3378
 4134TIP3    H133817   0.748   3.118  11.352 -0.0219 -0.4457 -0.4023
 4134TIP3    H233818   0.618   3.180  11.401 -1.1206 -1.9449 -1.3244
 4135TIP3   OH233819   5.815   4.185   6.283  0.2153  0.0501 -0.2963
 4135TIP3    H133820   5.731   4.141   6.295 -1.1521  2.7999  1.2573
 4135TIP3    H233821   5.878   4.128   6.327 -1.1889 -1.0531  0.3676
 4136TIP3   OH233822   1.857   5.966  16.703  0.5045  0.6381 -0.4071
 4136TIP3    H133823   1.861   6.043  16.759  0.7068  0.4339 -0.1409
 4136TIP3    H233824   1.896   5.994  16.620  2.0133  0.3967  0.1921
 4137TIP3   OH233825   1.562   3.045  15.936  0.4218 -0.7187  0.0734
 4137TIP3    H133826   1.616   3.042  16.015 -0.3388 -1.3283  0.5852
 4137TIP3    H233827   1.505   2.968  15.943  0.7195 -1.0967 -1.3488
 4138TIP3   OH233828   6.356   5.815   5.294  0.4529 -0.1096  0.7057
 4138TIP3    H133829   6.442   5.854   5.278 -0.4481  1.7522  0.1517
 4138TIP3    H233830   6.297   5.889   5.305 -1.4774 -1.2644 -1.0199
 4139TIP3   OH233831   4.115   3.484   3.510  0.0209  0.1670 -0.4675
 4139TIP3    H133832   4.079   3.399   3.483  0.9169 -0.5669  0.6035
 4139TIP3    H233833   4.038   3.535   3.536 -0.3863 -1.0288  0.8115
 4140TIP3   OH233834   1.073   1.232  16.446 -0.0797  0.0312  0.2783
 4140TIP3    H133835   1.158   1.251  16.407 -0.9963  0.6268 -1.5449
 4140TIP3    H233836   1.011   1.241  16.374 -1.7546  0.0776  1.6559
 4141TIP3   OH233837   2.672   4.848   5.278  0.6193 -0.0023 -0.2636
 4141TIP3    H133838   2.645   4.927   5.231  1.2050  0.3225 -0.0671
 4141TIP3    H233839   2.759   4.869   5.312  0.2221 -0.2355  0.9523
 4142TIP3   OH233840   0.725   2.311  16.863  0.3979  0.0482 -0.0286
 4142TIP3    H133841   0.785   2.306  16.788 -0.1015  0.5238 -0.4678
 4142TIP3    H233842   0.776   2.354  16.932  0.4657  0.7380 -0.5009
 4143TIP3   OH233843   3.949   6.652  14.915  0.1142 -0.0934  0.3041
 4143TIP3    H133844   3.924   6.594  14.843 -1.1544 -1.6240  1.8901
 4143TIP3    H233845   3.881   6.639  14.981  0.6935  1.9984  1.4159
 4144TIP3   OH233846   6.655   6.641   0.010  0.6241 -0.0818 -0.1651
 4144TIP3    H133847   6.561   6.629  -0.005  0.7584  1.0507 -2.2383
 4144TIP3    H233848   6.695   6.563  -0.030  0.5904 -0.7191  0.9898
 4145TIP3   OH233849   1.430   2.908  15.115  0.1651 -0.1690 -0.2235
 4145TIP3    H133850   1.452   3.001  15.107 -0.6748 -0.0547 -1.5066
 4145TIP3    H233851   1.338   2.903  15.088  0.3768 -1.4553 -0.7930
 4146TIP3   OH233852   0.829   3.232   4.013 -0.2567  0.1605 -0.3018
 4146TIP3    H133853   0.844   3.250   4.106  0.2871 -0.0279 -0.3517
 4146TIP3    H233854   0.840   3.137   4.005 -1.2004  0.0468 -0.3943
 4147TIP3   OH233855   0.870   1.275   4.195 -0.1928 -0.0636  0.1060
 4147TIP3    H133856   0.830   1.253   4.279 -0.5749 -0.3850 -0.1580
 4147TIP3    H233857   0.922   1.354   4.213 -0.4829  0.0216  0.5803
 4148TIP3   OH233858   2.425   5.649   5.986  0.0599 -0.2567  0.6277
 4148TIP3    H133859   2.447   5.635   6.078 -1.0317  2.5604  1.4332
 4148TIP3    H233860   2.496   5.704   5.953 -0.3254 -0.0022  0.2128
 4149TIP3   OH233861   3.244   5.245   2.335 -0.4069  0.6475 -0.3423
 4149TIP3    H133862   3.292   5.173   2.375 -0.0846  0.3963 -1.1538
 4149TIP3    H233863   3.225   5.305   2.407 -0.2016  0.0151  0.2439
 4150TIP3   OH233864   2.282   0.775  14.943  0.0623 -0.1413  0.7627
 4150TIP3    H133865   2.287   0.757  15.036 -1.2501 -0.3627  0.8025
 4150TIP3    H233866   2.210   0.721  14.911 -0.1543  0.6707 -0.1968
 4151TIP3   OH233867   3.281   0.261  11.782  0.0740 -0.1726 -0.4949
 4151TIP3    H133868   3.337   0.325  11.825  0.0955 -0.3211 -0.2999
 4151TIP3    H233869   3.336   0.184  11.770 -0.1718 -0.4332 -0.0123
 4152TIP3   OH233870   6.229   2.135   5.007  0.3177 -0.1653  0.2700
 4152TIP3    H133871   6.324   2.147   5.005  0.0947  1.9510 -1.2413
 4152TIP3    H233872   6.195   2.223   5.024 -1.4046 -0.0283 -3.0650
 4153TIP3   OH233873   6.011   4.183   1.539 -0.3570  0.5136  0.2298
 4153TIP3    H133874   5.958   4.252   1.500  0.3372  0.8945 -0.0563
 4153TIP3    H233875   5.959   4.103   1.529 -1.7170  1.1681  1.6626
 4154TIP3   OH233876   3.991   0.666   3.944 -0.1627 -0.4443 -0.4350
 4154TIP3    H133877   3.975   0.730   3.874 -0.0223 -1.4673 -1.4363
 4154TIP3    H233878   4.085   0.672   3.962 -0.0942 -0.5701 -0.7424
 4155TIP3   OH233879   0.393   3.739   3.011 -0.3656 -0.4876 -0.4381
 4155TIP3    H133880   0.383   3.726   2.917  0.1788 -0.5491 -0.4883
 4155TIP3    H233881   0.476   3.697   3.032 -0.3282 -0.1878  0.0148
 4156TIP3   OH233882   6.309   3.416   0.215  0.0351 -0.0011  0.2101
 4156TIP3    H133883   6.311   3.341   0.274 -0.9806  0.4173  0.8030
 4156TIP3    H233884   6.308   3.492   0.273  2.0454  0.5368 -0.3857
 4157TIP3   OH233885   0.304   5.533  12.235 -0.2426 -0.1731  0.3677
 4157TIP3    H133886   0.330   5.477  12.308  1.3471  1.0095  0.7567
 4157TIP3    H233887   0.385   5.553  12.190 -1.0286  0.2824 -0.8969
 4158TIP3   OH233888   2.634   0.360   4.625 -0.1296 -0.2087  0.0763
 4158TIP3    H133889   2.563   0.404   4.578 -0.6302 -1.6298 -0.5422
 4158TIP3    H233890   2.630   0.270   4.595  1.0699 -0.6213  1.0899
 4159TIP3   OH233891   2.337   6.705   3.998  0.2663  0.2555  0.2296
 4159TIP3    H133892   2.290   6.769   3.945  0.2490  1.4727  1.6431
 4159TIP3    H233893   2.409   6.755   4.037  2.2451 -1.3322 -1.1225
 4160TIP3   OH233894   5.835   0.018  11.920 -0.2381 -0.0873  0.4679
 4160TIP3    H133895   5.823  -0.032  11.839  1.5679  1.0333 -0.5640
 4160TIP3    H233896   5.781   0.096  11.909 -0.1537 -0.0331  0.4382
 4161TIP3   OH233897   1.688   2.388   1.176 -0.3886 -0.3149 -0.4792
 4161TIP3    H133898   1.685   2.388   1.080  0.1168 -1.7687 -0.5133
 4161TIP3    H233899   1.598   2.367   1.203 -0.5699  0.2580 -0.6204
 4162TIP3   OH233900   0.235   2.711   2.133 -0.0379  0.5630  0.1139
 4162TIP3    H133901   0.194   2.740   2.214  1.0327  1.7649  0.2554
 4162TIP3    H233902   0.322   2.750   2.134  1.6557 -2.8080  0.3836
 4163TIP3   OH233903   4.839   3.551  15.156 -0.0345 -0.2514 -0.1158
 4163TIP3    H133904   4.829   3.518  15.067 -2.4842  0.5637 -0.2142
 4163TIP3    H233905   4.751   3.550  15.193  0.3207  2.5807  1.1227
 4164TIP3   OH233906   1.367   2.025   4.503  0.4684 -0.0255  0.3333
 4164TIP3    H133907   1.457   2.030   4.535  0.3987  2.5994  0.2937
 4164TIP3    H233908   1.368   1.952   4.440  2.6794  0.2766 -0.0493
 4165TIP3   OH233909   6.365   2.698  13.249  0.8942 -0.2908 -0.1399
 4165TIP3    H133910   6.423   2.666  13.318  0.3647 -1.1731 -0.0930
 4165TIP3    H233911   6.389   2.791  13.238  0.7705 -0.0593  1.4213
 4166TIP3   OH233912   0.220   3.382  14.652  0.2033  0.0698  0.2078
 4166TIP3    H133913   0.188   3.399  14.564 -2.0109 -1.0869  0.7117
 4166TIP3    H233914   0.187   3.456  14.704 -1.9638 -1.2101  0.7612
 4167TIP3   OH233915   1.165   3.398  17.125 -0.1050 -0.2062 -0.2977
 4167TIP3    H133916   1.105   3.341  17.077 -2.0725  0.4527  1.2227
 4167TIP3    H233917   1.213   3.339  17.183  0.9528 -0.7706 -1.6908
 4168TIP3   OH233918   6.597   1.745   1.475  0.3196  0.4003  0.2443
 4168TIP3    H133919   6.580   1.661   1.520  0.1030 -0.1592 -0.8519
 4168TIP3    H233920   6.511   1.784   1.464  0.3045  0.2370 -0.2397
 4169TIP3   OH233921   4.200   2.035  13.105  0.5344 -0.7293  0.6055
 4169TIP3    H133922   4.291   2.063  13.099  0.2814 -0.1429 -1.0258
 4169TIP3    H233923   4.180   1.999  13.019 -1.0475  0.0394  0.6060
 4170TIP3   OH233924   5.605   5.055  15.006 -0.6768 -0.1733  0.0371
 4170TIP3    H133925   5.555   5.130  15.038 -2.0496 -1.3770  0.8006
 4170TIP3    H233926   5.681   5.051  15.064 -1.4289 -0.3095  1.0377
 4171TIP3   OH233927   5.584   5.987   3.227 -0.0563 -0.2724  0.1448
 4171TIP3    H133928   5.668   5.985   3.182 -1.0335 -0.0111 -1.7910
 4171TIP3    H233929   5.530   5.923   3.180 -0.8930 -0.5471  1.4391
 4172TIP3   OH233930   3.591   3.022   1.596  0.4797  0.0061  0.4596
 4172TIP3    H133931   3.612   3.045   1.505  2.5135 -0.2517  0.8302
 4172TIP3    H233932   3.549   2.937   1.590 -0.4764  0.5035 -0.3152
 4173TIP3   OH233933   3.765   6.080   1.693 -0.5875  0.1767  0.9353
 4173TIP3    H133934   3.740   6.101   1.783  0.4658 -0.3831  1.3740
 4173TIP3    H233935   3.796   6.163   1.657 -0.2794  0.2419  1.3448
 4174TIP3   OH233936   0.534   1.987  15.714  0.0717 -0.3781 -0.2410
 4174TIP3    H133937   0.462   2.003  15.654  0.7981 -0.3874 -1.1416
 4174TIP3    H233938   0.577   1.908  15.680  0.5781 -0.3023  0.2020
 4175TIP3   OH233939   4.249   6.066  13.969  0.2713 -0.5632 -0.2934
 4175TIP3    H133940   4.286   6.024  14.046  1.4090 -0.9023 -1.0039
 4175TIP3    H233941   4.266   6.159  13.980 -1.0241 -0.4085  0.6238
 4176TIP3   OH233942   5.477   3.487   0.069  0.8167  0.6436 -0.0768
 4176TIP3    H133943   5.497   3.453   0.156 -1.1334 -1.2143 -0.2761
 4176TIP3    H233944   5.426   3.566   0.085  0.7479  0.4908  0.4751
 4177TIP3   OH233945   4.775   1.753   2.374 -0.1812  0.1765 -0.2464
 4177TIP3    H133946   4.770   1.811   2.299  1.3312  0.6654  0.0052
 4177TIP3    H233947   4.686   1.754   2.411 -1.3634 -1.2236 -2.8180
 4178TIP3   OH233948   5.881   1.792  14.851  0.0847  0.2385 -0.2846
 4178TIP3    H133949   5.810   1.856  14.848  1.0405  1.5616  2.3019
 4178TIP3    H233950   5.955   1.835  14.810  0.3038  0.2181  0.0780
 4179TIP3   OH233951   0.931   2.766   1.625 -0.7161 -0.1725  0.3114
 4179TIP3    H133952   0.891   2.756   1.711  1.0128 -1.0206  1.0581
 4179TIP3    H233953   0.978   2.684   1.610 -0.1287  0.3657 -0.9673
 4180TIP3   OH233954   0.450   5.164  14.240 -0.5527  0.0178  0.3541
 4180TIP3    H133955   0.451   5.090  14.179  0.0926 -0.0256  0.4072
 4180TIP3    H233956   0.536   5.162  14.281 -0.6301  0.6340  0.5572
 4181TIP3   OH233957   3.487   4.602  16.806  0.3152 -0.0233 -0.6443
 4181TIP3    H133958   3.485   4.583  16.900 -2.8047 -1.1594 -0.8271
 4181TIP3    H233959   3.457   4.693  16.799 -0.3658 -0.2362 -0.5628
 4182TIP3   OH233960   6.394   3.000  16.763 -0.5215  0.0555 -0.1606
 4182TIP3    H133961   6.402   2.971  16.854 -2.2593  0.8232  0.2613
 4182TIP3    H233962   6.302   2.988  16.741 -0.0391 -0.6916 -2.0518
 4183TIP3   OH233963   0.207   1.884   1.564  0.1984 -0.4207  1.1111
 4183TIP3    H133964   0.256   1.840   1.633  0.6366 -0.3806  0.8305
 4183TIP3    H233965   0.262   1.959   1.540 -1.0481  0.9651  2.3607
 4184TIP3   OH233966   4.514   6.595   1.807 -0.5328  0.2535 -0.0555
 4184TIP3    H133967   4.533   6.668   1.866 -1.7463  2.1704 -1.8989
 4184TIP3    H233968   4.420   6.579   1.819 -0.5328 -0.1578 -0.5819
 4185TIP3   OH233969   4.660   1.226   3.792  0.1982  0.1769 -0.8319
 4185TIP3    H133970   4.654   1.172   3.870  0.1756  1.2002 -0.0987
 4185TIP3    H233971   4.731   1.188   3.741  2.2848  1.2215  1.1227
 4186TIP3   OH233972   4.823   2.527   5.319  0.4584 -0.4866 -0.3226
 4186TIP3    H133973   4.879   2.539   5.396 -0.6113 -1.4600  0.6489
 4186TIP3    H233974   4.757   2.596   5.326  0.0020 -0.9490 -0.0266
 4187TIP3   OH233975   1.376   4.751  16.492  0.2960 -0.1265 -0.5880
 4187TIP3    H133976   1.444   4.792  16.439 -0.7077 -0.3465 -2.1240
 4187TIP3    H233977   1.315   4.823  16.511 -0.4127 -0.4562 -1.5402
 4188TIP3   OH233978   0.453   1.030  10.990  0.3042 -0.2757  0.2169
 4188TIP3    H133979   0.369   1.067  10.964 -0.6425 -1.6499  1.1986
 4188TIP3    H233980   0.466   1.061  11.080  1.0824  0.2955 -0.0805
 4189TIP3   OH233981   2.454   3.348  15.099  0.1155 -0.3366 -0.7150
 4189TIP3    H133982   2.375   3.351  15.045  1.3463 -0.0887 -2.6056
 4189TIP3    H233983   2.481   3.439  15.108 -0.6902 -0.2381  1.4009
 4190TIP3   OH233984   6.722   5.769  16.911  0.1360 -0.0266  0.0878
 4190TIP3    H133985   6.786   5.702  16.889  0.7575  0.4159  0.5059
 4190TIP3    H233986   6.638   5.731  16.888  0.5656 -0.5403 -0.6518
 4191TIP3   OH233987   6.661   3.383  13.680 -0.2044 -0.7028 -0.6307
 4191TIP3    H133988   6.647   3.410  13.771  2.1993  2.6367 -1.0600
 4191TIP3    H233989   6.584   3.415  13.633  0.0828  0.5943 -0.2416
 4192TIP3   OH233990   3.452   5.822   3.324  0.2099 -0.2136  0.6016
 4192TIP3    H133991   3.403   5.847   3.245  1.5543 -0.7621 -0.4394
 4192TIP3    H233992   3.407   5.744   3.355 -1.2113  0.8207  1.2390
 4193TIP3   OH233993   6.527   6.460  11.044 -0.3822  0.1200 -0.2554
 4193TIP3    H133994   6.536   6.546  11.002  0.1999  0.0718 -0.2400
 4193TIP3    H233995   6.492   6.403  10.975 -2.2416  0.7057  0.1540
 4194TIP3   OH233996   1.344   5.448   3.608 -0.2273 -0.0576 -0.3615
 4194TIP3    H133997   1.295   5.486   3.534 -1.0923 -1.4451 -0.5257
 4194TIP3    H233998   1.360   5.522   3.666 -1.2893  0.6911 -0.9864
 4195TIP3   OH233999   2.825   2.216   4.203  0.0935 -0.0281 -0.0583
 4195TIP3    H134000   2.820   2.176   4.290  2.0520 -1.8408 -0.6886
 4195TIP3    H234001   2.909   2.262   4.203 -1.2157  2.5395 -0.0583
 4196TIP3   OH234002   0.461   1.674   1.549  0.3424 -0.0015  0.6167
 4196TIP3    H134003   0.397   1.699   1.616 -1.4201 -0.3984 -0.8406
 4196TIP3    H234004   0.543   1.715   1.578 -0.9548  2.0446  1.6522
 4197TIP3   OH234005   3.109   1.360  15.551  0.6262 -0.3157 -0.1392
 4197TIP3    H134006   3.113   1.448  15.514  0.4727 -0.7025 -1.1116
 4197TIP3    H234007   3.154   1.305  15.486  1.2783 -0.8634  0.7451
 4198TIP3   OH234008   2.012   3.942   4.716 -0.0225  0.0198  0.0246
 4198TIP3    H134009   2.068   3.945   4.638  0.6439 -1.0369  0.4401
 4198TIP3    H234010   2.011   4.032   4.748 -0.0769  0.4147 -1.0410
 4199TIP3   OH234011   0.454   3.178  11.504  0.0013  0.0163 -0.2632
 4199TIP3    H134012   0.373   3.178  11.555 -0.5081 -0.0392 -1.0610
 4199TIP3    H234013   0.448   3.256  11.449  1.7354  1.5621  1.5756
 4200TIP3   OH234014   6.078   2.004  11.546  0.0628  0.4557  0.7241
 4200TIP3    H134015   5.986   2.004  11.520  0.3762 -2.0553 -0.7435
 4200TIP3    H234016   6.118   2.072  11.492 -0.6369  0.3310  0.0178
 4201TIP3   OH234017   1.092   1.401  16.670  0.3246  0.1633  0.2715
 4201TIP3    H134018   1.185   1.411  16.689  0.8579 -4.4607  1.4845
 4201TIP3    H234019   1.090   1.337  16.598 -1.8241 -1.0019  1.2658
 4202TIP3   OH234020   3.922   3.831   5.512  0.0829  0.0255  0.0115
 4202TIP3    H134021   3.864   3.789   5.576 -0.9095 -0.6219 -1.2624
 4202TIP3    H234022   4.009   3.803   5.538 -0.3299 -0.5431  0.8560
 4203TIP3   OH234023   4.886   0.076  15.175  0.2229  0.1118  0.1892
 4203TIP3    H134024   4.913   0.079  15.267  1.1481  1.5510 -0.1012
 4203TIP3    H234025   4.849  -0.012  15.164 -0.5142  0.1293  2.0912
 4204TIP3   OH234026   2.810   4.073   0.365 -0.2243 -0.1024 -0.5853
 4204TIP3    H134027   2.822   4.068   0.270  0.4500  0.6660 -0.5548
 4204TIP3    H234028   2.783   3.985   0.391 -1.5773 -0.0269 -1.6442
 4205TIP3   OH234029   4.695   5.581  12.607  0.1083 -0.3348  0.3835
 4205TIP3    H134030   4.752   5.511  12.636  1.2263 -0.1547 -1.2538
 4205TIP3    H234031   4.748   5.632  12.546 -1.1170  1.1224  0.4687
 4206TIP3   OH234032   4.033   4.853   4.529 -0.4618  0.2705  0.2813
 4206TIP3    H134033   4.102   4.872   4.592 -0.5054  1.7874 -0.0952
 4206TIP3    H234034   4.038   4.925   4.466 -2.3418  0.3715  0.2109
 4207TIP3   OH234035   2.606   2.325  14.044 -0.0443  0.2965 -0.4199
 4207TIP3    H134036   2.610   2.326  14.140 -0.2715  1.3687 -0.4136
 4207TIP3    H234037   2.686   2.279  14.017  0.0469  0.0306  0.2788
 4208TIP3   OH234038   6.445   1.403  16.557  0.0061 -0.7238 -0.4362
 4208TIP3    H134039   6.507   1.333  16.539  0.1800 -0.5489 -0.5264
 4208TIP3    H234040   6.498   1.471  16.600 -0.6756 -1.7629  2.2294
 4209TIP3   OH234041   6.167   6.322  11.032 -0.0623  0.8374 -0.2192
 4209TIP3    H134042   6.150   6.320  10.938 -1.0158  0.0407 -0.0522
 4209TIP3    H234043   6.203   6.410  11.048  0.2536  0.9298 -1.3347
 4210TIP3   OH234044   3.978   3.824  17.053 -0.0497 -0.4953 -0.6099
 4210TIP3    H134045   3.910   3.849  17.116  0.8452 -1.2124  0.7031
 4210TIP3    H234046   3.952   3.867  16.971 -0.9892  0.8964  0.3654
 4211TIP3   OH234047   3.438   5.975   1.430  0.4714  0.0271 -0.2177
 4211TIP3    H134048   3.479   5.949   1.512 -0.6455  2.7403  1.3548
 4211TIP3    H234049   3.424   5.893   1.382 -1.2638 -2.0763  3.4625
 4212TIP3   OH234050   2.171   3.184  10.748 -0.1003 -0.1592 -0.3836
 4212TIP3    H134051   2.105   3.170  10.816 -1.2919 -0.7616 -1.6205
 4212TIP3    H234052   2.249   3.213  10.796 -1.5946  1.8204  0.9985
 4213TIP3   OH234053   2.446   0.399   1.819  0.4251 -0.1794 -0.4202
 4213TIP3    H134054   2.433   0.446   1.737 -1.1651 -1.5054 -0.9775
 4213TIP3    H234055   2.540   0.409   1.838  0.9008 -0.1439 -2.5745
 4214TIP3   OH234056   0.306   3.766  10.287  0.0197 -0.6163  0.6570
 4214TIP3    H134057   0.338   3.752  10.376  0.3801 -1.2319  0.4327
 4214TIP3    H234058   0.350   3.846  10.258  0.7158 -0.9895  0.6598
 4215TIP3   OH234059   5.176   4.840  12.655  0.2558  0.1067  0.3708
 4215TIP3    H134060   5.233   4.902  12.700 -0.3336  0.4067  0.7256
 4215TIP3    H234061   5.193   4.854  12.562  1.7306 -0.7470  0.4776
 4216TIP3   OH234062   3.646   2.914   3.349 -0.2035 -0.0416 -0.0383
 4216TIP3    H134063   3.735   2.877   3.348  0.0357  0.5220 -1.0410
 4216TIP3    H234064   3.659   3.005   3.372 -0.4541  0.1893 -0.7872
 4217TIP3   OH234065   0.312   6.765   0.124 -0.2162 -0.0559 -0.0586
 4217TIP3    H134066   0.361   6.744   0.044 -2.0056 -0.0288 -1.2110
 4217TIP3    H234067   0.234   6.811   0.093 -0.7536  0.3379  1.7592
 4218TIP3   OH234068   5.165   4.683   4.499  0.1896 -0.1910  0.0511
 4218TIP3    H134069   5.073   4.691   4.474  0.4850 -2.6456 -2.2745
 4218TIP3    H234070   5.187   4.592   4.480  2.6001 -0.2640  2.5205
 4219TIP3   OH234071   1.748   3.101  13.791  0.6289 -0.3425  0.2256
 4219TIP3    H134072   1.826   3.079  13.841  1.4930 -0.9126 -1.3273
 4219TIP3    H234073   1.693   3.023  13.796  0.4453 -0.1907  0.7278
 4220TIP3   OH234074   2.273   2.960  17.206 -0.1398 -0.0405 -0.3783
 4220TIP3    H134075   2.236   2.986  17.290  0.1997 -0.2656 -0.1598
 4220TIP3    H234076   2.304   3.042  17.167 -1.7380  0.3024 -0.9974
 4221TIP3   OH234077   3.421   4.672  12.352 -0.1169 -0.2017  0.3760
 4221TIP3    H134078   3.469   4.696  12.273 -1.9167 -2.0017 -1.3936
 4221TIP3    H234079   3.330   4.696  12.334 -0.5579 -0.5070  1.9884
 4222TIP3   OH234080   0.291   2.466  12.103  0.1338  0.3471 -0.1979
 4222TIP3    H134081   0.226   2.501  12.165 -0.1681 -0.3041 -0.1416
 4222TIP3    H234082   0.356   2.423  12.159  0.5340  0.8601 -0.2648
 4223TIP3   OH234083   2.330   0.259   2.572 -0.0408 -0.1175 -0.8092
 4223TIP3    H134084   2.306   0.190   2.634 -1.1235  0.6229 -0.3739
 4223TIP3    H234085   2.320   0.218   2.486 -1.3296 -0.3294 -0.5798
 4224TIP3   OH234086   3.886   0.009   5.584  0.6571  0.0261  0.3488
 4224TIP3    H134087   3.833  -0.010   5.661  0.3422 -0.6428 -0.0242
 4224TIP3    H234088   3.866   0.100   5.562 -0.2081 -0.1645  0.3152
 4225TIP3   OH234089   6.498   5.558   2.248  0.0882 -0.2789 -0.6399
 4225TIP3    H134090   6.440   5.634   2.244 -0.4992 -0.5958  1.2498
 4225TIP3    H234091   6.568   5.585   2.307 -0.8238 -1.6159  1.1430
 4226TIP3   OH234092   3.168   6.710   0.399  0.0129  0.3591  0.0878
 4226TIP3    H134093   3.096   6.725   0.460 -0.5406  0.5418 -0.5945
 4226TIP3    H234094   3.144   6.761   0.321  1.2806  1.0795  0.1460
 4227TIP3   OH234095   0.215   2.776  12.774 -0.4843 -0.0500 -0.0741
 4227TIP3    H134096   0.213   2.739  12.862  1.1810  0.8519  0.3902
 4227TIP3    H234097   0.129   2.816  12.763 -1.2451 -1.4241  0.5445
 4228TIP3   OH234098   0.878   0.624   3.660 -0.1603 -0.3261  0.2413
 4228TIP3    H134099   0.864   0.557   3.727 -1.1182 -0.0079  0.3773
 4228TIP3    H234100   0.813   0.691   3.680 -1.9454 -1.1782 -2.2426
 4229TIP3   OH234101   5.879   1.999  15.884  0.4742  0.0567  0.0428
 4229TIP3    H134102   5.938   1.933  15.847 -1.9637 -2.4742  0.3512
 4229TIP3    H234103   5.852   2.051  15.808  0.2591 -1.1561 -0.7511
 4230TIP3   OH234104   3.500   2.293  10.694 -0.3001  0.2297  0.2245
 4230TIP3    H134105   3.415   2.278  10.654  0.1693 -0.1947 -0.6349
 4230TIP3    H234106   3.530   2.205  10.720  0.9517  0.0344 -1.7282
 4231TIP3   OH234107   2.457   3.056  10.686 -0.0544  0.0895 -0.0132
 4231TIP3    H134108   2.479   2.987  10.748 -4.6922 -1.0671  0.7193
 4231TIP3    H234109   2.498   3.135  10.723 -0.2789 -1.0639  3.0093
 4232TIP3   OH234110   6.126   1.846   5.334 -0.0543 -0.1870 -0.2435
 4232TIP3    H134111   6.181   1.860   5.411  2.0027  1.0030 -1.8441
 4232TIP3    H234112   6.087   1.759   5.348  1.8800 -0.8948  1.1549
 4233TIP3   OH234113   1.479   4.565   0.110 -0.2532  0.9491 -0.4655
 4233TIP3    H134114   1.447   4.511   0.182  0.5341  0.6628 -0.3166
 4233TIP3    H234115   1.401   4.607   0.074 -0.7439  0.5080  0.0744
 4234TIP3   OH234116   4.565   2.528  14.340 -0.1315 -0.4053 -0.4638
 4234TIP3    H134117   4.557   2.468  14.414  0.1462 -0.9803 -0.8853
 4234TIP3    H234118   4.614   2.602  14.375  0.2854 -0.8192 -0.1469
 4235TIP3   OH234119   3.173   1.551   6.391  0.5574 -0.8930 -0.1904
 4235TIP3    H134120   3.147   1.564   6.482 -0.1455  0.0032 -0.5015
 4235TIP3    H234121   3.108   1.599   6.341 -0.9363 -3.9050 -1.3658
 4236TIP3   OH234122   5.349   2.548  15.410  0.0729 -0.6148  0.2587
 4236TIP3    H134123   5.436   2.532  15.373 -0.0567  0.3357 -0.4978
 4236TIP3    H234124   5.365   2.599  15.490  0.1435  1.4341 -0.9917
 4237TIP3   OH234125   4.414   3.469   1.471 -0.1855  0.1847 -0.1054
 4237TIP3    H134126   4.409   3.387   1.519 -1.4638  0.1686 -0.2389
 4237TIP3    H234127   4.384   3.535   1.534 -0.7650  0.3168 -0.5129
 4238TIP3   OH234128   1.177   6.698   3.941 -0.3408  0.0989  0.4970
 4238TIP3    H134129   1.266   6.687   3.976 -0.6308 -1.6001  0.8135
 4238TIP3    H234130   1.187   6.683   3.847 -0.0601  1.4929  0.2911
 4239TIP3   OH234131   5.265   4.402   5.841 -0.2387 -0.2562 -0.0623
 4239TIP3    H134132   5.356   4.431   5.852 -0.6865  0.7143  1.5803
 4239TIP3    H234133   5.270   4.331   5.778  1.3236  1.5001 -2.0769
 4240TIP3   OH234134   1.696   1.599   2.979  0.0682 -0.5355  0.2780
 4240TIP3    H134135   1.672   1.691   2.971  1.6305  0.1479  2.5921
 4240TIP3    H234136   1.616   1.556   3.011 -1.0085 -0.2840 -1.8369
 4241TIP3   OH234137   5.622   6.418   1.041  0.3032 -0.4478  0.3384
 4241TIP3    H134138   5.549   6.473   1.067  0.9218  0.8920 -0.6514
 4241TIP3    H234139   5.633   6.434   0.947  1.0028 -1.6770  0.1794
 4242TIP3   OH234140   1.832   1.073   2.661  0.4182  0.3164  0.5180
 4242TIP3    H134141   1.764   1.112   2.606 -0.4077  0.8881  1.8909
 4242TIP3    H234142   1.816   0.979   2.656  0.4869  0.3373 -0.3509
 4243TIP3   OH234143   4.828   3.367  16.207 -0.3650  0.5681 -0.3187
 4243TIP3    H134144   4.862   3.303  16.145 -1.1338  0.3640 -0.5392
 4243TIP3    H234145   4.733   3.357  16.203 -0.4248  0.2391  1.2216
 4244TIP3   OH234146   4.389   1.393  11.293 -0.2680  0.0863  0.0032
 4244TIP3    H134147   4.355   1.405  11.204  0.3021  1.2240 -0.0769
 4244TIP3    H234148   4.421   1.303  11.294 -0.5627 -0.0452 -0.8470
 4245TIP3   OH234149   6.150   0.759   1.479 -0.4406  0.3365 -0.1158
 4245TIP3    H134150   6.209   0.687   1.458 -1.7646 -1.5365  2.1739
 4245TIP3    H234151   6.069   0.718   1.507 -1.7019  2.7624  0.1133
 4246TIP3   OH234152   3.050   3.574   2.156 -0.3286  0.6189  0.6131
 4246TIP3    H134153   2.990   3.592   2.084 -1.9664 -1.3922  1.3689
 4246TIP3    H234154   3.013   3.498   2.200  2.3091 -0.1513  1.7204
 4247TIP3   OH234155   1.880   4.597   2.763 -0.0548 -0.6937 -0.3326
 4247TIP3    H134156   1.873   4.539   2.839  1.0137 -1.5097 -0.8258
 4247TIP3    H234157   1.969   4.632   2.769 -0.2129 -0.2056 -0.8223
 4248TIP3   OH234158   6.511   4.478  17.140  0.1467 -0.0483 -0.4189
 4248TIP3    H134159   6.425   4.519  17.147  0.2267 -0.0646  0.8500
 4248TIP3    H234160   6.523   4.464  17.046 -0.4864  1.5504 -0.7732
 4249TIP3   OH234161   3.462   3.056  11.730  0.4127 -0.2440  0.1716
 4249TIP3    H134162   3.548   3.099  11.734  0.8184 -1.1001  3.5076
 4249TIP3    H234163   3.480   2.965  11.751 -1.1182 -0.9763 -1.3999
 4250TIP3   OH234164   1.961   3.557  13.771 -0.2238 -0.2029  0.6073
 4250TIP3    H134165   2.001   3.626  13.822 -0.3515 -0.6355  1.3003
 4250TIP3    H234166   1.876   3.542  13.812 -0.1791 -0.8020  0.4903
 4251TIP3   OH234167   3.149   1.759  14.915 -0.0217  0.2613  0.0518
 4251TIP3    H134168   3.162   1.720  14.828  2.4972 -0.3280  0.6084
 4251TIP3    H234169   3.193   1.844  14.910 -1.3848  0.9900  0.2505
 4252TIP3   OH234170   2.594   4.369   5.779 -0.2166 -0.3968  0.6129
 4252TIP3    H134171   2.690   4.372   5.786 -0.3348  1.8251  2.6634
 4252TIP3    H234172   2.566   4.330   5.862 -1.1029  0.2576  0.6299
 4253TIP3   OH234173   4.823   0.045   5.287  0.0894  0.2149  0.0393
 4253TIP3    H134174   4.814  -0.050   5.293 -1.0634  0.3639  0.9234
 4253TIP3    H234175   4.899   0.065   5.341 -0.6990 -0.0511  1.2748
 4254TIP3   OH234176   5.156   3.207  15.258 -0.4141  0.3429 -0.0424
 4254TIP3    H134177   5.216   3.148  15.213 -1.9884 -0.6319 -0.9813
 4254TIP3    H234178   5.195   3.294  15.249 -0.1605  0.0361 -2.4413
 4255TIP3   OH234179   3.779   6.732  16.291  0.3702 -0.5926  0.0362
 4255TIP3    H134180   3.733   6.802  16.337  1.8332  0.2457  0.2941
 4255TIP3    H234181   3.827   6.686  16.360 -0.6170 -1.9084 -0.1282
 4256TIP3   OH234182   1.758   3.567   5.629 -0.2011  0.4436 -0.5991
 4256TIP3    H134183   1.686   3.553   5.567  0.1763  0.1206 -0.9740
 4256TIP3    H234184   1.752   3.493   5.689 -1.1986  1.2950  0.3939
 4257TIP3   OH234185   0.698   3.537  15.186  0.0273  0.2222  0.4477
 4257TIP3    H134186   0.785   3.526  15.148 -0.7231  0.2874 -1.3959
 4257TIP3    H234187   0.708   3.609  15.248  1.1063  0.8166 -0.3867
 4258TIP3   OH234188   1.261   5.642   5.352  0.0439 -0.1740 -0.1089
 4258TIP3    H134189   1.215   5.721   5.323  1.6610  0.3302 -1.4432
 4258TIP3    H234190   1.291   5.663   5.440 -0.2175  0.3981 -0.1497
 4259TIP3   OH234191   6.321   6.361   4.338  0.8119  0.8825  0.4460
 4259TIP3    H134192   6.257   6.322   4.397  1.2886  0.2377  0.5416
 4259TIP3    H234193   6.329   6.298   4.267  1.4639  0.8816  0.5180
 4260TIP3   OH234194   6.261   5.436   1.036 -0.0859  0.1165  0.0588
 4260TIP3    H134195   6.192   5.371   1.054 -0.5730  0.2792 -1.0901
 4260TIP3    H234196   6.328   5.419   1.101 -0.6305 -0.9360  0.3681
 4261TIP3   OH234197   3.007   6.046   5.468 -0.0578  0.2703 -0.0171
 4261TIP3    H134198   2.947   5.985   5.425  0.5362 -0.0584 -0.3949
 4261TIP3    H234199   2.955   6.087   5.537 -0.4484 -0.7262  0.3008
 4262TIP3   OH234200   2.134   1.099   4.751  0.5173 -0.3443 -0.0024
 4262TIP3    H134201   2.192   1.062   4.816  1.7403  1.4855  0.0195
 4262TIP3    H234202   2.050   1.110   4.796  0.7423 -1.0768  0.6006
 4263TIP3   OH234203   3.779   4.503  16.964 -0.4665 -0.1104  0.5920
 4263TIP3    H134204   3.819   4.588  16.981  4.1845 -2.4586  3.2607
 4263TIP3    H234205   3.704   4.499  17.023 -1.1661  2.2113 -0.0237
 4264TIP3   OH234206   0.306   5.169  16.206  0.1032  0.3849 -0.0033
 4264TIP3    H134207   0.293   5.253  16.250  0.4012 -0.2694  1.4123
 4264TIP3    H234208   0.382   5.183  16.150  0.9325  0.7442  1.1537
 4265TIP3   OH234209   6.743   4.886  16.870 -0.7680  0.2763 -0.8614
 4265TIP3    H134210   6.824   4.835  16.875 -0.6794  0.3711 -1.2525
 4265TIP3    H234211   6.694   4.862  16.949 -0.1261  0.6228 -0.3560
 4266TIP3   OH234212   1.957   0.935  15.065  0.0564  0.5417  0.0515
 4266TIP3    H134213   2.050   0.917  15.073  0.2518  1.3768 -0.2308
 4266TIP3    H234214   1.924   0.865  15.009  0.2301 -0.5684  1.2874
 4267TIP3   OH234215   0.991   2.440  10.465  0.2132 -0.4848 -0.2959
 4267TIP3    H134216   0.958   2.521  10.426  0.3787 -0.6348 -0.7499
 4267TIP3    H234217   0.918   2.408  10.519 -0.0065 -0.2632 -0.4601
 4268TIP3   OH234218   2.301   4.505   5.284 -0.0914  0.2050 -0.6140
 4268TIP3    H134219   2.314   4.537   5.195  0.9981  1.1901 -0.1376
 4268TIP3    H234220   2.336   4.575   5.340  0.3262 -0.8807  0.5394
 4269TIP3   OH234221   0.519   3.998  13.662 -0.0304 -0.0843  0.2980
 4269TIP3    H134222   0.453   4.067  13.662  0.7666  0.7221  1.7409
 4269TIP3    H234223   0.485   3.932  13.722  1.9069  1.8929  3.8698
 4270TIP3   OH234224   2.456   6.202   5.285 -0.4345  0.0634  0.6402
 4270TIP3    H134225   2.503   6.189   5.367 -1.5463 -0.3689  1.2408
 4270TIP3    H234226   2.520   6.185   5.217  0.7051  1.0993  1.4030
 4271TIP3   OH234227   0.622   0.533   4.976  0.1054 -0.7412  0.1517
 4271TIP3    H134228   0.573   0.564   5.052 -0.3719 -0.4704 -0.2599
 4271TIP3    H234229   0.554   0.514   4.910  0.6120  1.1418 -0.9853
 4272TIP3   OH234230   5.614   2.404  12.528 -0.2660  0.5933 -0.4461
 4272TIP3    H134231   5.564   2.382  12.450 -1.4456  0.3736  0.3344
 4272TIP3    H234232   5.645   2.493  12.514  0.1045  0.3157 -1.4322
 4273TIP3   OH234233   3.308   4.131  14.246  0.2177 -0.1584 -0.1456
 4273TIP3    H134234   3.286   4.184  14.169  2.6632  0.6636 -0.3489
 4273TIP3    H234235   3.229   4.078  14.261 -0.5650  0.0379 -2.8769
 4274TIP3   OH234236   5.777   2.859  16.068  0.0936 -0.2819 -0.4946
 4274TIP3    H134237   5.709   2.850  16.134  0.1951  1.0600 -0.1756
 4274TIP3    H234238   5.839   2.922  16.106 -1.3729  3.0214 -3.0113
 4275TIP3   OH234239   1.573   3.348   3.670  0.3688 -0.3652  0.0012
 4275TIP3    H134240   1.580   3.423   3.729  0.6349 -1.3733  1.2902
 4275TIP3    H234241   1.615   3.377   3.589 -0.5013  1.2303  0.0906
 4276TIP3   OH234242   5.959   1.979   1.940  0.1585  1.1604 -0.8237
 4276TIP3    H134243   5.993   1.938   2.019  1.6318 -1.8431 -2.8330
 4276TIP3    H234244   5.890   1.920   1.909 -0.0281  1.9816 -2.0584
 4277TIP3   OH234245   4.102   5.045  16.135 -0.6038  0.0873  0.5659
 4277TIP3    H134246   4.128   5.064  16.045 -1.2141 -2.8168 -0.3174
 4277TIP3    H234247   4.184   5.026  16.180 -0.3655  0.8361  0.4692
 4278TIP3   OH234248   1.552   3.049  14.270 -0.4289 -0.4214 -0.0960
 4278TIP3    H134249   1.608   3.020  14.342 -1.9818  1.0338  1.8175
 4278TIP3    H234250   1.468   3.007  14.286 -0.6268 -0.6092 -1.4925
 4279TIP3   OH234251   1.447   2.672   1.330 -0.0539  0.7009 -0.3046
 4279TIP3    H134252   1.501   2.633   1.261 -2.4187 -0.5215 -1.5797
 4279TIP3    H234253   1.468   2.621   1.409  0.3782 -0.0156 -0.8713
 4280TIP3   OH234254   5.407   0.935  14.849 -1.0857  0.1776  0.7156
 4280TIP3    H134255   5.385   1.028  14.854  0.1302  0.5991 -0.9035
 4280TIP3    H234256   5.453   0.916  14.930  0.5468  1.5601  0.1536
 4281TIP3   OH234257   3.126   1.710   3.954  0.0771  0.1791  0.8248
 4281TIP3    H134258   3.220   1.720   3.969  0.2470 -1.6140  1.1137
 4281TIP3    H234259   3.086   1.779   4.008  1.2744  2.6709 -1.2748
 4282TIP3   OH234260   1.182   4.699  13.001 -0.4344 -0.1594 -0.0742
 4282TIP3    H134261   1.175   4.747  13.083 -0.5628 -0.0019 -0.1750
 4282TIP3    H234262   1.210   4.765  12.937  0.4384 -0.4538  0.0023
 4283TIP3   OH234263   0.861   0.187   0.654 -0.2416 -0.4150 -0.7931
 4283TIP3    H134264   0.799   0.157   0.587  0.0409 -1.4325 -0.6145
 4283TIP3    H234265   0.809   0.192   0.734 -0.6611  1.1294 -1.1282
 4284TIP3   OH234266   3.914   1.873  11.492  0.0825 -0.4143  0.2752
 4284TIP3    H134267   3.972   1.895  11.565 -1.7594 -0.3935  1.8112
 4284TIP3    H234268   3.941   1.932  11.422 -0.3824  2.1670  2.1101
 4285TIP3   OH234269   1.769   6.694  11.466  0.4770  0.1451 -0.8183
 4285TIP3    H134270   1.781   6.619  11.408  1.1491 -1.0944  0.8378
 4285TIP3    H234271   1.689   6.737  11.433 -0.8311 -2.1799 -0.9067
 4286TIP3   OH234272   3.707   4.122  16.480  0.0683  0.3226  0.1763
 4286TIP3    H134273   3.801   4.131  16.468  0.0444  0.6102  0.1926
 4286TIP3    H234274   3.692   4.146  16.572 -0.0749  0.7124  0.0536
 4287TIP3   OH234275   4.876   4.866  16.388  0.5216  0.0091  0.6682
 4287TIP3    H134276   4.953   4.922  16.395  0.2920  0.4383 -0.0925
 4287TIP3    H234277   4.898   4.802  16.321  0.0676  0.4009  0.1325
 4288TIP3   OH234278   6.665   3.346  12.652  0.2638  0.1542 -0.1603
 4288TIP3    H134279   6.732   3.283  12.679 -1.4312 -2.0978 -0.8920
 4288TIP3    H234280   6.660   3.336  12.557 -1.7418 -0.4769 -0.0311
 4289TIP3   OH234281   3.503   0.517   2.785 -0.0487  0.2331 -0.2252
 4289TIP3    H134282   3.506   0.558   2.871  0.7201 -1.2169  0.4762
 4289TIP3    H234283   3.592   0.525   2.751 -0.5557  1.6349 -1.3366
 4290TIP3   OH234284   2.546   4.229  11.832  0.4495 -0.0841 -0.1480
 4290TIP3    H134285   2.500   4.248  11.750  0.5115 -2.7546 -0.8883
 4290TIP3    H234286   2.637   4.218  11.807  0.7045  0.4077  0.5337
 4291TIP3   OH234287   4.522   4.296   6.366  0.2991  0.3683 -0.1438
 4291TIP3    H134288   4.508   4.206   6.337  0.8184  0.0967  0.4295
 4291TIP3    H234289   4.459   4.348   6.315 -0.1670 -0.3435 -0.3028
 4292TIP3   OH234290   0.775   4.195   6.740 -0.3175 -0.1869 -0.0057
 4292TIP3    H134291   0.739   4.223   6.656 -1.9612 -1.1953  0.3215
 4292TIP3    H234292   0.756   4.268   6.799  0.3116  0.2752 -0.3618
 4293TIP3   OH234293   1.693   2.187   0.223 -0.2557  1.1436 -0.1989
 4293TIP3    H134294   1.654   2.126   0.160 -0.1516  0.6749  0.1852
 4293TIP3    H234295   1.707   2.268   0.172  2.5339 -0.0956 -1.6167
 4294TIP3   OH234296   2.745   3.058   3.454  0.6578  0.1524 -0.1225
 4294TIP3    H134297   2.777   3.045   3.365 -0.4540 -0.4030 -0.4562
 4294TIP3    H234298   2.769   3.149   3.475 -1.6474  1.3564 -2.1235
 4295TIP3   OH234299   4.097   0.922   3.992  0.6435 -0.4690 -0.0190
 4295TIP3    H134300   4.104   1.005   3.946 -1.1290 -0.2415  0.0466
 4295TIP3    H234301   4.007   0.921   4.026  1.6403 -0.8970  2.9188
 4296TIP3   OH234302   1.189   2.467  11.862  0.6734 -1.0581 -0.4905
 4296TIP3    H134303   1.213   2.383  11.824  0.3078 -1.4962  0.2118
 4296TIP3    H234304   1.164   2.446  11.952  1.2677 -0.0990 -0.0828
 4297TIP3   OH234305   6.139   6.446   2.948 -0.5008 -0.0890 -0.3609
 4297TIP3    H134306   6.163   6.481   2.862 -1.5241 -0.2943 -0.7417
 4297TIP3    H234307   6.106   6.358   2.930 -0.1532 -0.3617  0.3143
 4298TIP3   OH234308   2.156   2.565   4.541  0.3274  0.5100  0.8554
 4298TIP3    H134309   2.196   2.561   4.628  0.0721  2.0874  1.0830
 4298TIP3    H234310   2.145   2.659   4.525 -1.9396  0.1910  0.1978
 4299TIP3   OH234311   6.118   5.310   2.591  0.2899 -0.4858  0.2120
 4299TIP3    H134312   6.153   5.348   2.672  0.0058 -0.2522  0.2278
 4299TIP3    H234313   6.193   5.268   2.550  1.3613  2.5576 -1.2556
 4300TIP3   OH234314   0.703   0.873   4.112  0.1051  0.4841  0.6474
 4300TIP3    H134315   0.720   0.965   4.090  2.1485  0.3778  1.5957
 4300TIP3    H234316   0.741   0.824   4.040  0.6641  0.3417  1.0332
 4301TIP3   OH234317   4.932   3.236   3.494 -0.1731 -0.0235 -0.0501
 4301TIP3    H134318   4.916   3.281   3.411 -1.0027  0.3209  0.2831
 4301TIP3    H234319   4.855   3.180   3.506  0.4682 -0.9216 -0.0565
 4302TIP3   OH234320   6.530   4.760  11.660  0.3878 -0.2205 -0.1715
 4302TIP3    H134321   6.448   4.714  11.645  0.0005  0.4352 -0.1042
 4302TIP3    H234322   6.564   4.722  11.741  0.5211 -1.0032 -0.5867
 4303TIP3   OH234323   5.606   0.074   3.017  0.1338  0.1883 -0.3476
 4303TIP3    H134324   5.558  -0.004   3.046 -0.1451 -0.6645 -2.9025
 4303TIP3    H234325   5.579   0.142   3.079 -1.1843 -1.2485  0.7533
 4304TIP3   OH234326   6.223   3.737   3.205 -0.1640 -0.2059 -0.3289
 4304TIP3    H134327   6.209   3.824   3.241 -0.3405 -0.4466  0.2004
 4304TIP3    H234328   6.284   3.695   3.266  0.9877 -0.0051 -1.3011
 4305TIP3   OH234329   1.368   5.142   2.501  0.3006 -0.2116 -0.4616
 4305TIP3    H134330   1.384   5.048   2.495 -2.8669 -0.8815  0.1614
 4305TIP3    H234331   1.343   5.168   2.413  0.1548 -0.1700 -0.4078
 4306TIP3   OH234332   4.637   0.096  16.164 -0.0641 -0.5534  0.4093
 4306TIP3    H134333   4.563   0.139  16.207  0.2903  0.8732 -0.3528
 4306TIP3    H234334   4.676   0.042  16.232 -1.9748 -1.5809  0.7439
 4307TIP3   OH234335   1.483   4.175   0.733 -0.2279 -0.1043 -0.3544
 4307TIP3    H134336   1.510   4.249   0.679  0.8659  1.7521  2.5145
 4307TIP3    H234337   1.419   4.211   0.794 -1.5046 -2.1315 -0.3914
 4308TIP3   OH234338   6.315   3.727   3.804 -0.3862  0.0287 -0.2374
 4308TIP3    H134339   6.277   3.685   3.882  0.9911  1.4793  1.2864
 4308TIP3    H234340   6.241   3.770   3.761 -0.8926  0.8378  1.3747
 4309TIP3   OH234341   4.640   4.030  11.270 -0.0841 -0.5347  0.2035
 4309TIP3    H134342   4.602   4.113  11.301 -0.0924 -1.0596  1.6998
 4309TIP3    H234343   4.649   3.977  11.350  0.1122 -1.8987 -0.6958
 4310TIP3   OH234344   4.339   6.322  14.587  0.2896 -0.0779 -0.2184
 4310TIP3    H134345   4.327   6.289  14.676  3.4116 -0.5663  0.1465
 4310TIP3    H234346   4.254   6.311  14.545 -1.0332 -0.6700  2.4107
 4311TIP3   OH234347   1.099   5.634  16.292 -0.5797  0.3346  0.3358
 4311TIP3    H134348   1.149   5.709  16.323  0.1266 -0.5976  1.5358
 4311TIP3    H234349   1.129   5.621  16.202  0.9393  0.1543  0.8320
 4312TIP3   OH234350   4.465   1.258   1.342  0.1927  0.6946 -0.2276
 4312TIP3    H134351   4.382   1.305   1.334  0.3035  1.0806  0.7830
 4312TIP3    H234352   4.458   1.209   1.424 -0.4067 -2.0879 -1.7987
 4313TIP3   OH234353   2.527   6.706   1.451  0.1007  0.0938 -0.1030
 4313TIP3    H134354   2.517   6.619   1.412 -2.9150 -0.5416  1.7679
 4313TIP3    H234355   2.450   6.754   1.422 -1.3333  0.1712  3.2824
 4314TIP3   OH234356   4.198   0.498   1.871 -0.0833  0.0456 -0.5810
 4314TIP3    H134357   4.154   0.522   1.952 -0.1996  1.2497 -0.9901
 4314TIP3    H234358   4.128   0.460   1.817 -0.2149  0.1946 -0.5144
 4315TIP3   OH234359   5.729   5.715   3.904  0.2704 -0.3405 -0.5850
 4315TIP3    H134360   5.733   5.746   3.994  0.9491 -2.0559  0.0104
 4315TIP3    H234361   5.753   5.623   3.909 -0.0377 -0.5615 -2.4823
 4316TIP3   OH234362   5.716   3.429   5.639 -0.0683  0.2828 -0.0366
 4316TIP3    H134363   5.800   3.448   5.679 -0.2123 -1.3074  1.1419
 4316TIP3    H234364   5.676   3.364   5.697 -1.1265 -0.6957 -1.7563
 4317TIP3   OH234365   5.074   2.691  15.221  0.6409  0.7790 -0.1746
 4317TIP3    H134366   5.014   2.722  15.289 -1.9019 -2.3078 -0.8075
 4317TIP3    H234367   5.150   2.658  15.270 -0.0436  0.8644  0.9964
 4318TIP3   OH234368   3.515   1.995   3.301 -0.3772 -0.3250  0.2698
 4318TIP3    H134369   3.538   1.903   3.285  0.8786 -0.3863  2.0958
 4318TIP3    H234370   3.567   2.020   3.378 -1.2139  1.7205  0.2448
 4319TIP3   OH234371   3.207   6.667   2.002 -0.3405  0.1140  0.3160
 4319TIP3    H134372   3.183   6.712   2.083 -1.2493  0.8375 -0.3431
 4319TIP3    H234373   3.293   6.629   2.021 -1.1110 -0.8896  2.0621
 4320TIP3   OH234374   3.752   6.261   4.020  0.0938 -0.0668 -0.4537
 4320TIP3    H134375   3.682   6.199   4.042 -0.8568  1.4692  1.1218
 4320TIP3    H234376   3.804   6.267   4.100 -0.3473  1.7537 -0.2499
 4321TIP3   OH234377   2.031   5.342   0.610 -0.2940 -0.2821 -1.0342
 4321TIP3    H134378   1.975   5.410   0.574 -0.3180  0.3319  0.1442
 4321TIP3    H234379   2.099   5.330   0.543  0.0433  1.3182 -1.0056
 4322TIP3   OH234380   4.563   1.326   5.598  0.6050  0.2801  0.3085
 4322TIP3    H134381   4.586   1.418   5.582 -0.9849  0.8701  1.1923
 4322TIP3    H234382   4.566   1.317   5.693 -0.2575 -0.2974  0.2875
 4323TIP3   OH234383   1.147   2.774  13.637  0.4762  0.1597 -0.4554
 4323TIP3    H134384   1.138   2.768  13.732  1.9022  2.4876 -0.0776
 4323TIP3    H234385   1.069   2.732  13.602  1.4433 -3.7779  1.5877
 4324TIP3   OH234386   2.520   1.474  14.948 -0.6947 -0.7217  0.0677
 4324TIP3    H134387   2.459   1.546  14.963 -0.0050 -0.2554  0.7103
 4324TIP3    H234388   2.519   1.460  14.853  1.0138  1.8074 -0.4111
 4325TIP3   OH234389   1.295   5.746   3.501  0.5419  0.0660 -0.0718
 4325TIP3    H134390   1.298   5.816   3.436  2.5486  0.0315 -0.0627
 4325TIP3    H234391   1.219   5.768   3.555  0.6138  1.7551 -0.5868
 4326TIP3   OH234392   5.967   6.009  15.531  0.0057  0.0185  0.4258
 4326TIP3    H134393   6.002   6.000  15.442  0.4793 -0.2979  0.6414
 4326TIP3    H234394   6.025   6.073  15.573  0.2570 -0.4092  0.7422
 4327TIP3   OH234395   4.842   2.092  16.187 -0.4718 -0.0005 -0.3909
 4327TIP3    H134396   4.878   2.021  16.133 -0.9631  0.3926 -1.2637
 4327TIP3    H234397   4.752   2.103  16.155 -0.4300  0.9405 -0.2065
 4328TIP3   OH234398   5.255   2.093  13.541  0.6327 -0.2668  0.2436
 4328TIP3    H134399   5.171   2.089  13.587  0.6597  2.3087  0.6844
 4328TIP3    H234400   5.235   2.137  13.458  1.5231  0.3201  0.3251
 4329TIP3   OH234401   4.108   6.134   2.630  0.3794  0.6616 -0.1672
 4329TIP3    H134402   4.068   6.182   2.703  0.1912  1.6178 -0.8741
 4329TIP3    H234403   4.080   6.043   2.643  1.3912  0.5537  1.6602
 4330TIP3   OH234404   5.752   2.331  14.894 -0.4700 -0.1304 -0.3255
 4330TIP3    H134405   5.685   2.396  14.870 -1.6954 -1.7856 -1.6093
 4330TIP3    H234406   5.828   2.357  14.843 -0.9702  0.2615 -0.8974
 4331TIP3   OH234407   4.516   1.843   3.477 -0.1280 -0.0156  1.2018
 4331TIP3    H134408   4.439   1.817   3.427  0.3749  0.1038  0.3466
 4331TIP3    H234409   4.486   1.847   3.568 -1.3071  0.7554  0.7965
 4332TIP3   OH234410   1.739   0.786  12.852 -0.2019 -0.6950 -0.3548
 4332TIP3    H134411   1.711   0.878  12.855 -2.5688 -1.3588  1.9332
 4332TIP3    H234412   1.834   0.790  12.868 -0.2628  1.3321 -0.1930
 4333TIP3   OH234413   5.358   0.550   3.613 -0.0116  0.3765  0.1660
 4333TIP3    H134414   5.428   0.493   3.582  0.1220  1.4292 -1.5990
 4333TIP3    H234415   5.277   0.504   3.589  0.0771 -0.0976  0.7659
 4334TIP3   OH234416   4.274   2.205  13.330 -0.3761  0.0964 -0.3811
 4334TIP3    H134417   4.268   2.278  13.269  1.5020 -1.3023 -2.3697
 4334TIP3    H234418   4.209   2.142  13.299 -2.1582  0.9014  1.4629
 4335TIP3   OH234419   4.102   0.345  13.045 -0.6964 -0.3498  0.0466
 4335TIP3    H134420   4.115   0.439  13.037 -0.7195 -0.3276  0.2724
 4335TIP3    H234421   4.153   0.320  13.122 -0.3588 -0.5883 -0.2506
 4336TIP3   OH234422   2.074   0.938  12.219  0.8161 -0.3243  0.2876
 4336TIP3    H134423   2.036   0.901  12.140  1.7746 -1.4850  0.3351
 4336TIP3    H234424   2.007   0.997  12.253 -0.0975 -0.7570 -0.7046
 4337TIP3   OH234425   1.861   4.036  11.384 -0.7914 -0.0692 -0.6749
 4337TIP3    H134426   1.913   4.097  11.332 -0.2569  0.5302  0.5075
 4337TIP3    H234427   1.868   3.953  11.339  0.2155  0.2809 -1.1867
 4338TIP3   OH234428   4.397   4.898   2.344 -0.1274  0.1169 -0.1434
 4338TIP3    H134429   4.330   4.947   2.391 -0.8037 -0.5369 -0.3956
 4338TIP3    H234430   4.347   4.834   2.292  0.6612  0.0129 -0.7914
 4339TIP3   OH234431   3.975   2.359  12.163  0.0402 -0.2701  0.1196
 4339TIP3    H134432   4.055   2.350  12.111 -0.2445 -0.4264 -0.2967
 4339TIP3    H234433   3.908   2.316  12.111 -0.2126 -0.6110  0.7134
 4340TIP3   OH234434   1.209   0.102  15.439 -0.3504 -0.3002 -0.0669
 4340TIP3    H134435   1.153   0.030  15.409  0.4139 -0.9355 -0.0102
 4340TIP3    H234436   1.157   0.181  15.422 -0.9898 -0.8216 -0.6373
 4341TIP3   OH234437   3.298   6.023   0.847  0.1867  0.2012 -0.6580
 4341TIP3    H134438   3.234   5.975   0.794 -0.7948 -0.7822  1.3076
 4341TIP3    H234439   3.257   6.108   0.862  0.6839  0.6659 -1.8252
 4342TIP3   OH234440   4.894   3.837   3.235 -0.0806 -0.2061 -0.6017
 4342TIP3    H134441   4.989   3.822   3.238  0.1302  0.9081 -1.1087
 4342TIP3    H234442   4.865   3.792   3.156  0.3523  0.9704 -1.4692
 4343TIP3   OH234443   6.491   3.027   2.770  0.6220 -0.1825 -0.3480
 4343TIP3    H134444   6.401   3.039   2.740  0.3248 -1.1922  0.0954
 4343TIP3    H234445   6.495   3.076   2.852  0.1459 -1.0442  0.1967
 4344TIP3   OH234446   1.039   6.284  11.009 -0.0411 -0.6940 -0.6372
 4344TIP3    H134447   1.090   6.240  10.942  0.6889  0.3986 -0.8245
 4344TIP3    H234448   1.031   6.374  10.978  0.7263 -0.0422  0.9524
 4345TIP3   OH234449   4.245   3.244  14.825 -0.4676  0.1208  0.1395
 4345TIP3    H134450   4.251   3.241  14.729 -0.6413 -0.0671  0.1315
 4345TIP3    H234451   4.151   3.238  14.842 -0.5694  1.7518  0.2749
 4346TIP3   OH234452   5.832   4.604   4.524  0.5169  0.1527  0.0422
 4346TIP3    H134453   5.781   4.683   4.540  3.4558  2.0765  0.6881
 4346TIP3    H234454   5.831   4.557   4.608  1.0668  1.0081  0.5446
 4347TIP3   OH234455   3.499   4.317  16.412  0.6858 -0.0081 -0.5135
 4347TIP3    H134456   3.521   4.385  16.476  0.4535 -0.9989  0.6486
 4347TIP3    H234457   3.576   4.260  16.410  0.0357 -0.9494  0.1978
 4348TIP3   OH234458   4.544   2.611   4.382  0.6902  0.5166  0.2764
 4348TIP3    H134459   4.607   2.644   4.445  1.6346  2.0304 -1.3810
 4348TIP3    H234460   4.504   2.690   4.345  0.8054 -0.2809 -1.6335
 4349TIP3   OH234461   2.692   3.808   6.594 -0.3828  0.4144  0.4661
 4349TIP3    H134462   2.680   3.724   6.638 -2.7080  1.6913  2.4674
 4349TIP3    H234463   2.608   3.826   6.552 -0.0913  1.9649  0.4913
 4350TIP3   OH234464   1.956   3.030  11.594 -0.4967 -0.0019  0.0633
 4350TIP3    H134465   1.939   2.940  11.622 -1.4881  0.2211  0.2017
 4350TIP3    H234466   1.934   3.084  11.671 -1.1012  0.4431 -0.4093
 4351TIP3   OH234467   2.525   3.091  15.637  0.5045 -0.2319 -0.5561
 4351TIP3    H134468   2.566   3.014  15.599 -2.0413 -1.7324 -0.4846
 4351TIP3    H234469   2.496   3.143  15.562  1.5860  0.3416 -0.5993
 4352TIP3   OH234470   4.585   0.823   5.024  1.1188 -0.0094 -0.8851
 4352TIP3    H134471   4.644   0.748   5.023  0.7364 -0.3118 -0.8589
 4352TIP3    H234472   4.638   0.895   5.057  1.0800 -0.6068  0.5527
 4353TIP3   OH234473   4.510   3.174   4.889  0.3826 -0.1519 -0.1369
 4353TIP3    H134474   4.528   3.117   4.814 -2.0234 -0.4840 -0.5326
 4353TIP3    H234475   4.455   3.244   4.853 -2.5835 -1.3942  1.5849
 4354TIP3   OH234476   6.625   0.911   4.699 -0.1199 -0.7988 -0.9233
 4354TIP3    H134477   6.599   0.981   4.639  0.0191 -1.0167 -1.2377
 4354TIP3    H234478   6.566   0.838   4.678 -0.8473 -0.5032 -0.0153
 4355TIP3   OH234479   6.654   3.078  16.347 -0.1606 -0.4356 -0.4372
 4355TIP3    H134480   6.599   3.022  16.402 -2.4061  2.5759  0.6717
 4355TIP3    H234481   6.732   3.093  16.399  0.0166 -1.6324 -0.3180
 4356TIP3   OH234482   0.947   1.406  11.166  0.0430 -0.1982  0.3569
 4356TIP3    H134483   1.029   1.448  11.191  0.1175 -0.3332  0.3341
 4356TIP3    H234484   0.933   1.338  11.232  0.2422 -0.5580  0.0285
 4357TIP3   OH234485   4.981   2.416  16.762  1.0750  0.0770  0.7662
 4357TIP3    H134486   4.987   2.349  16.695  0.2668 -1.1987  1.9192
 4357TIP3    H234487   4.902   2.466  16.740  1.1623  0.0591  0.4185
 4358TIP3   OH234488   2.104   3.996  14.045  0.0411  0.9345 -0.1259
 4358TIP3    H134489   2.152   4.079  14.049 -1.2177  1.6262  1.8074
 4358TIP3    H234490   2.014   4.020  14.065 -0.5721 -0.7633 -0.7271
 4359TIP3   OH234491   1.948   5.561   5.606 -0.5038 -0.6800  0.3255
 4359TIP3    H134492   2.030   5.511   5.616 -0.5161 -0.4682  1.7477
 4359TIP3    H234493   1.908   5.557   5.693 -3.1698 -2.7345 -0.8539
 4360TIP3   OH234494   5.355   5.575   4.404  0.4280 -0.4868 -0.0012
 4360TIP3    H134495   5.392   5.634   4.470 -1.3318 -0.1918  0.7585
 4360TIP3    H234496   5.345   5.491   4.448 -0.9269 -0.2400  0.1759
 4361TIP3   OH234497   3.711   4.562  12.524  0.3199 -0.1194  0.4231
 4361TIP3    H134498   3.736   4.649  12.491 -2.5903  0.4267 -0.6443
 4361TIP3    H234499   3.771   4.502  12.480  1.4042  1.2116 -0.0033
 4362TIP3   OH234500   0.579   4.072   5.406  0.3717  0.2162  0.5249
 4362TIP3    H134501   0.594   4.160   5.371 -1.7984 -0.4151 -2.3551
 4362TIP3    H234502   0.665   4.043   5.436  1.4275  2.7280  0.1491
 4363TIP3   OH234503   3.524   5.756   2.561  0.0418 -0.1702 -0.1960
 4363TIP3    H134504   3.487   5.831   2.515 -0.4001 -0.2716 -0.0108
 4363TIP3    H234505   3.559   5.700   2.492  0.0885  0.0539 -0.3544
 4364TIP3   OH234506   3.805   5.046   6.246 -0.4783 -0.0858  0.3417
 4364TIP3    H134507   3.855   4.997   6.181 -0.4609 -1.5227  1.3939
 4364TIP3    H234508   3.866   5.056   6.320 -1.0916 -0.1134  0.8587
 4365TIP3   OH234509   6.505   1.412  12.439 -0.0462 -0.1617  0.1608
 4365TIP3    H134510   6.527   1.326  12.476  1.2789  0.6118  1.2494
 4365TIP3    H234511   6.585   1.464  12.450 -0.7958  1.1838 -0.5724
 4366TIP3   OH234512   5.991   2.397  14.767  0.1551 -0.0798  0.5097
 4366TIP3    H134513   6.071   2.376  14.814  0.6673 -0.2064 -0.3909
 4366TIP3    H234514   5.971   2.487  14.793  1.6379  0.6331 -0.6607
 4367TIP3   OH234515   3.234   2.121   5.357  0.1513 -0.5414 -0.2602
 4367TIP3    H134516   3.236   2.121   5.261 -1.7524  0.0423 -0.3384
 4367TIP3    H234517   3.158   2.067   5.379  0.2625 -0.2409  0.9017
 4368TIP3   OH234518   6.049   2.706  12.479  0.5560  0.2255 -0.1208
 4368TIP3    H134519   6.067   2.730  12.388  0.5425  0.2410 -0.1194
 4368TIP3    H234520   6.016   2.616  12.474 -0.8478  0.7274 -0.2680
 4369TIP3   OH234521   4.602   4.946   2.845 -0.5327  0.2412  0.0030
 4369TIP3    H134522   4.559   5.030   2.830 -2.4245 -0.9322 -1.5411
 4369TIP3    H234523   4.596   4.900   2.761  0.5305 -1.4180  0.7731
 4370TIP3   OH234524   5.847   2.087   0.268 -0.0716  0.0177 -0.6164
 4370TIP3    H134525   5.931   2.099   0.223 -0.3099  1.4205 -0.7088
 4370TIP3    H234526   5.869   2.095   0.361 -0.1630  0.8341 -0.6593
 4371TIP3   OH234527   4.728   2.376   4.270 -0.1172  0.3392 -0.2523
 4371TIP3    H134528   4.641   2.414   4.269  0.5312  1.9522  0.7010
 4371TIP3    H234529   4.745   2.352   4.179 -0.7511  1.9491 -0.8237
 4372TIP3   OH234530   5.792   2.937  11.163 -0.2611 -0.3557 -0.4132
 4372TIP3    H134531   5.745   2.926  11.081  1.2746  2.3546 -1.8162
 4372TIP3    H234532   5.853   3.009  11.146  0.5076 -0.0283  2.9520
 4373TIP3   OH234533   0.492   2.724  13.018 -0.1961  0.1901  0.2228
 4373TIP3    H134534   0.542   2.758  13.093 -0.1392  0.4154  0.0836
 4373TIP3    H234535   0.402   2.717  13.051 -0.2496  0.6800  0.1917
 4374TIP3   OH234536   3.826   0.494  13.882  0.1024  0.3287  0.7732
 4374TIP3    H134537   3.750   0.437  13.888 -0.3928  1.0924  2.2688
 4374TIP3    H234538   3.852   0.491  13.790 -0.8091 -1.1180  0.5431
 4375TIP3   OH234539   2.731   0.592  10.580 -0.1990 -0.1963  0.8712
 4375TIP3    H134540   2.788   0.517  10.563  0.1429  0.4341 -0.9526
 4375TIP3    H234541   2.642   0.557  10.572 -0.0496 -0.2178 -1.1277
 4376TIP3   OH234542   5.037   2.287   3.142 -0.0297 -0.3137  0.1507
 4376TIP3    H134543   5.009   2.360   3.198  0.1729 -0.8456  0.9684
 4376TIP3    H234544   4.965   2.275   3.081 -0.1386  0.4633  0.1184
 4377TIP3   OH234545   1.253   6.001  12.581 -0.1261 -0.3228 -0.1819
 4377TIP3    H134546   1.266   6.020  12.489 -1.2597  0.9968 -0.1001
 4377TIP3    H234547   1.262   5.906  12.588  1.9443 -0.2669 -1.2780
 4378TIP3   OH234548   3.505   3.392   1.098 -0.0763 -0.6120 -0.1828
 4378TIP3    H134549   3.429   3.447   1.078  0.8775  0.1134 -2.0294
 4378TIP3    H234550   3.556   3.390   1.017  1.3445 -1.9638  0.6811
 4379TIP3   OH234551   2.906   4.176   3.260 -0.2611  0.5415  0.3739
 4379TIP3    H134552   2.851   4.099   3.246  0.2333  0.3041 -0.3695
 4379TIP3    H234553   2.857   4.231   3.321 -0.5415 -0.4355  1.0479
 4380TIP3   OH234554   3.608   4.239  11.397  0.1756 -0.0128 -0.1098
 4380TIP3    H134555   3.639   4.329  11.386 -1.4651  0.5169 -0.6916
 4380TIP3    H234556   3.667   4.202  11.463  3.0293  0.3871 -2.2143
 4381TIP3   OH234557   6.069   2.046  12.415  0.2323  0.1784 -0.0869
 4381TIP3    H134558   6.090   2.019  12.325  1.1395  0.5172  0.0146
 4381TIP3    H234559   5.974   2.058  12.414 -0.0793 -1.8641 -0.4465
 4382TIP3   OH234560   0.378   3.655  12.345  0.0569  0.1784 -0.7955
 4382TIP3    H134561   0.345   3.603  12.271 -3.0600 -1.3684  1.4570
 4382TIP3    H234562   0.348   3.608  12.422  1.8618  2.5336  1.5051
 4383TIP3   OH234563   4.684   2.459   0.094  0.2037 -0.1672 -0.2293
 4383TIP3    H134564   4.691   2.501   0.180  1.9230  3.0563 -1.7739
 4383TIP3    H234565   4.772   2.425   0.077 -0.1372 -0.8163 -0.7439
 4384TIP3   OH234566   5.284   6.099  12.218 -0.2038 -0.3927 -0.5169
 4384TIP3    H134567   5.241   6.014  12.211  0.4716 -0.6506 -1.8291
 4384TIP3    H234568   5.235   6.155  12.158 -0.6757  0.1778  0.3765
 4385TIP3   OH234569   3.724   6.056   2.043  0.3292 -0.2889 -0.9240
 4385TIP3    H134570   3.681   6.007   1.972 -0.9046 -1.1208  0.3443
 4385TIP3    H234571   3.816   6.029   2.038  0.1413 -0.8248 -1.8179
 4386TIP3   OH234572   0.938   3.484  13.603 -0.2854 -0.2942  0.3494
 4386TIP3    H134573   0.899   3.409  13.558 -0.9639  0.2505  0.0160
 4386TIP3    H234574   0.876   3.556  13.589  0.1146  0.2064  1.0832
 4387TIP3   OH234575   5.042   0.632   4.051 -0.0813 -0.1305 -0.0392
 4387TIP3    H134576   5.041   0.542   4.020  1.7958 -0.8352  1.7090
 4387TIP3    H234577   4.955   0.646   4.088 -0.2414 -1.3859  0.0834
 4388TIP3   OH234578   2.459   1.222   2.764 -0.6871  0.2663 -0.5766
 4388TIP3    H134579   2.514   1.296   2.789 -0.8515  0.7582 -1.6285
 4388TIP3    H234580   2.435   1.182   2.847  0.5194  0.5735 -0.0512
 4389TIP3   OH234581   3.507   0.327  16.076 -0.4299  0.2747 -0.2850
 4389TIP3    H134582   3.580   0.313  16.015 -1.1443  0.8654 -1.2956
 4389TIP3    H234583   3.544   0.383  16.145  0.4507 -0.5971 -0.0305
 4390TIP3   OH234584   1.511   5.753   1.384 -0.0435  0.1141 -0.3049
 4390TIP3    H134585   1.544   5.799   1.307  0.2762 -1.6569 -1.2816
 4390TIP3    H234586   1.417   5.746   1.369 -0.1192  0.5868 -0.0675
 4391TIP3   OH234587   3.896   6.234   5.434 -0.0509 -0.0793 -0.0464
 4391TIP3    H134588   3.979   6.272   5.460 -1.3763  1.4310  2.3035
 4391TIP3    H234589   3.871   6.283   5.356  0.6638  0.3077 -0.0373
 4392TIP3   OH234590   2.325   5.947   4.200 -0.0881 -0.4634 -0.0760
 4392TIP3    H134591   2.254   6.008   4.218 -0.6757 -1.5397  1.5786
 4392TIP3    H234592   2.315   5.924   4.108 -0.2714  1.3718 -0.5389
 4393TIP3   OH234593   3.756   4.712  13.270 -0.1741 -0.6217 -0.3383
 4393TIP3    H134594   3.679   4.729  13.324 -1.5952 -0.3774 -2.3045
 4393TIP3    H234595   3.721   4.667  13.193  1.6557 -0.4529 -1.3224
 4394TIP3   OH234596   0.566   1.113   2.481 -0.1452  0.4521 -0.0214
 4394TIP3    H134597   0.498   1.053   2.452 -0.2924  0.4770  0.2660
 4394TIP3    H234598   0.550   1.124   2.575  0.6505 -0.0619  0.1876
 4395TIP3   OH234599   3.876   1.039   5.444  0.1741 -0.5288 -0.4960
 4395TIP3    H134600   3.902   0.961   5.492  1.2458  0.2232  0.1852
 4395TIP3    H234601   3.889   1.016   5.352 -2.0147 -2.0227 -0.4936
 4396TIP3   OH234602   3.530   6.242  16.269  0.0525 -0.5397  0.3049
 4396TIP3    H134603   3.445   6.199  16.272 -0.0746 -0.3763 -0.7572
 4396TIP3    H234604   3.558   6.246  16.361 -2.0783  1.4786  0.9394
 4397TIP3   OH234605   0.267   4.976  13.407 -0.1659  0.5316  0.1100
 4397TIP3    H134606   0.310   5.048  13.453 -0.6405  0.6870  0.3209
 4397TIP3    H234607   0.177   4.977  13.440  0.0800 -0.8153  0.9056
 4398TIP3   OH234608   1.908   0.291   6.274 -0.4121 -0.1925  0.3675
 4398TIP3    H134609   1.821   0.329   6.285 -0.7866 -0.7983 -0.4500
 4398TIP3    H234610   1.906   0.248   6.189  1.0429  0.7220 -0.1763
 4399TIP3   OH234611   0.155   0.583  14.210  0.1520  0.0688  0.2603
 4399TIP3    H134612   0.240   0.608  14.175 -0.7397  0.7186 -1.5601
 4399TIP3    H234613   0.099   0.571  14.133 -1.0640 -1.7028  1.3201
 4400TIP3   OH234614   4.062   0.014  17.017 -0.5558 -0.0445 -0.5931
 4400TIP3    H134615   4.021  -0.061  16.974  1.6791  0.4430 -3.9587
 4400TIP3    H234616   4.153  -0.012  17.029 -0.3488  1.1585  0.7542
 4401TIP3   OH234617   0.158   2.466  16.489  0.2589  0.8027  0.1896
 4401TIP3    H134618   0.070   2.469  16.527  0.1134 -1.1993  0.1156
 4401TIP3    H234619   0.204   2.539  16.530 -0.6081  0.1773  2.4270
 4402TIP3   OH234620   5.363   1.207  12.434  0.5045 -0.0340  0.4550
 4402TIP3    H134621   5.270   1.224  12.441  0.5427 -0.3187  1.9341
 4402TIP3    H234622   5.401   1.290  12.405 -0.2216  0.0252 -0.3388
 4403TIP3   OH234623   2.723   4.627   2.484  0.0716 -0.2372 -0.1469
 4403TIP3    H134624   2.732   4.588   2.397  1.3006  0.0397 -0.1563
 4403TIP3    H234625   2.631   4.654   2.488 -0.2562 -1.1719 -0.9618
 4404TIP3   OH234626   6.273   4.298   6.653  0.1539 -0.0850  0.5662
 4404TIP3    H134627   6.289   4.251   6.735  1.1811  0.8556  0.9294
 4404TIP3    H234628   6.307   4.386   6.669  0.3248  0.1321 -0.8523
 4405TIP3   OH234629   2.975   4.309  14.539  0.0784  0.9123 -0.4490
 4405TIP3    H134630   2.940   4.229  14.576  0.5036  1.0489  0.2550
 4405TIP3    H234631   2.970   4.295  14.444 -0.0175  0.1326 -0.3378
 4406TIP3   OH234632   6.653   3.635  12.649  0.1094  0.1093  0.3350
 4406TIP3    H134633   6.721   3.701  12.664  1.6942 -1.3779 -0.0295
 4406TIP3    H234634   6.641   3.593  12.734  0.2760 -0.1959  0.2094
 4407TIP3   OH234635   3.008   4.501  11.572  0.3441 -0.2434  0.0484
 4407TIP3    H134636   3.024   4.424  11.518  0.3343 -1.4257  1.6547
 4407TIP3    H234637   3.029   4.472  11.661 -1.8524  0.9240  1.0038
 4408TIP3   OH234638   0.865   2.747  14.589 -0.5747 -0.2420  0.0214
 4408TIP3    H134639   0.916   2.803  14.647 -1.9743 -0.8228  1.9132
 4408TIP3    H234640   0.869   2.791  14.504  1.9932  0.3591  0.3563
 4409TIP3   OH234641   3.790   6.773  15.710  0.1480 -0.4014 -0.4388
 4409TIP3    H134642   3.879   6.744  15.693 -0.6155 -2.1468 -1.8955
 4409TIP3    H234643   3.744   6.694  15.739 -1.1630  0.2029 -0.7777
 4410TIP3   OH234644   2.351   4.755   1.607  0.2225  0.4739  0.2946
 4410TIP3    H134645   2.425   4.799   1.566 -0.3976  0.8708 -0.4223
 4410TIP3    H234646   2.289   4.740   1.536  0.6866 -2.2196  0.3461
 4411TIP3   OH234647   6.513   5.909  16.161  0.3232  0.0523 -0.8623
 4411TIP3    H134648   6.478   5.998  16.163  1.6924  0.6248 -0.9476
 4411TIP3    H234649   6.492   5.873  16.247 -0.3536  0.4035 -0.8731
 4412TIP3   OH234650   0.282   3.061   5.724 -0.1570  0.2230 -0.2605
 4412TIP3    H134651   0.361   3.036   5.676  0.8046  0.0270  1.3416
 4412TIP3    H234652   0.296   3.028   5.813 -0.3389  3.4018  1.0974
 4413TIP3   OH234653   2.052   0.356   2.514 -0.8211  0.0285 -0.1832
 4413TIP3    H134654   2.135   0.400   2.529 -1.7712  1.5165  1.0698
 4413TIP3    H234655   2.075   0.276   2.468  1.6407 -1.0596  2.6094
 4414TIP3   OH234656   4.554   4.879   2.588 -0.3317  0.1946 -0.1449
 4414TIP3    H134657   4.630   4.844   2.542  0.4037  0.0827  1.1331
 4414TIP3    H234658   4.483   4.871   2.524 -0.1321 -3.2545 -0.1493
 4415TIP3   OH234659   2.531   0.443   5.567 -0.2006 -0.2725  0.5236
 4415TIP3    H134660   2.551   0.355   5.535 -0.6235 -0.6448  1.2282
 4415TIP3    H234661   2.521   0.431   5.662 -0.8770  0.4163  0.5472
 4416TIP3   OH234662   3.987   3.172   1.771 -0.0347  0.2159  0.5595
 4416TIP3    H134663   3.922   3.102   1.778 -0.1968  0.3865  0.7448
 4416TIP3    H234664   3.940   3.243   1.727 -0.6507  1.1732  2.6526
 4417TIP3   OH234665   1.656   4.757  16.390 -0.3890  0.2699  0.3143
 4417TIP3    H134666   1.694   4.780  16.474  0.2631  0.3132  0.0084
 4417TIP3    H234667   1.711   4.801  16.325 -0.6796 -0.0455 -0.1547
 4418TIP3   OH234668   6.525   5.660  15.513 -0.0417  0.5497 -0.0945
 4418TIP3    H134669   6.506   5.611  15.433  0.0858  1.5322 -0.7399
 4418TIP3    H234670   6.586   5.728  15.485  1.0380  0.1080  1.1009
 4419TIP3   OH234671   2.547   5.588  12.708  0.0322  0.1950 -0.0055
 4419TIP3    H134672   2.562   5.494  12.716 -0.8322  0.1222  0.9289
 4419TIP3    H234673   2.614   5.617  12.647  1.2747 -0.7694  0.8348
 4420TIP3   OH234674   0.718   4.221  15.028  0.3458 -0.1402 -0.2694
 4420TIP3    H134675   0.754   4.159  15.092 -0.7082 -1.1982 -0.6488
 4420TIP3    H234676   0.635   4.181  15.001 -0.3689  1.4649 -0.5414
 4421TIP3   OH234677   2.669   0.677  16.696  0.0233 -0.1658  0.0366
 4421TIP3    H134678   2.721   0.698  16.774 -1.4922  0.4525  0.9261
 4421TIP3    H234679   2.580   0.702  16.720 -0.2857  1.3333 -2.3876
 4422TIP3   OH234680   4.697   3.076   3.457 -0.1984 -0.3541  0.2448
 4422TIP3    H134681   4.703   3.083   3.552  2.0182 -2.9695  0.4033
 4422TIP3    H234682   4.606   3.052   3.440 -0.3304 -1.0884  1.8366
 4423TIP3   OH234683   5.418   3.570   5.497  0.3278  0.1051 -0.2668
 4423TIP3    H134684   5.491   3.514   5.468  0.7482  0.5731 -0.1220
 4423TIP3    H234685   5.425   3.569   5.593  0.6895  0.8713 -0.2840
 4424TIP3   OH234686   5.807   6.574   3.870 -0.5366  0.2509  0.8175
 4424TIP3    H134687   5.811   6.633   3.946  0.5726  0.5208  0.5614
 4424TIP3    H234688   5.730   6.603   3.822 -0.7926  0.5964  1.4180
 4425TIP3   OH234689   0.634   3.072   0.306  0.2906  0.0070  0.3569
 4425TIP3    H134690   0.600   3.061   0.395 -0.4019  0.0705  0.1054
 4425TIP3    H234691   0.613   2.990   0.262  1.4126 -0.3693  0.4915
 4426TIP3   OH234692   4.928   1.112  14.806  0.2843  0.1238  0.1851
 4426TIP3    H134693   4.933   1.054  14.730 -0.5771  2.7867 -2.1133
 4426TIP3    H234694   4.984   1.071  14.872 -0.4445 -3.3314 -1.1357
 4427TIP3   OH234695   3.855   5.104   0.137 -0.7007  0.0969 -0.3578
 4427TIP3    H134696   3.836   5.182   0.086 -0.7677  0.2836 -0.0512
 4427TIP3    H234697   3.769   5.074   0.168 -0.5061  1.3135  1.5737
 4428TIP3   OH234698   6.089   6.221  12.401  0.0602  0.0220  0.4686
 4428TIP3    H134699   6.112   6.299  12.451 -3.5036  0.6982  1.3627
 4428TIP3    H234700   6.036   6.254  12.328  0.6825 -1.3911 -0.6746
 4429TIP3   OH234701   4.560   4.303  12.836 -0.0244 -0.6077 -0.1898
 4429TIP3    H134702   4.593   4.216  12.860 -1.5500 -1.3285 -0.6114
 4429TIP3    H234703   4.527   4.293  12.747 -0.4020  0.3559 -0.1729
 4430TIP3   OH234704   5.148   6.353   3.913 -0.3504  0.5155 -0.3842
 4430TIP3    H134705   5.188   6.350   4.000  3.0820 -2.3228 -1.7962
 4430TIP3    H234706   5.191   6.427   3.870 -0.6026  0.7318 -0.2647
 4431TIP3   OH234707   2.717   1.447   5.745  0.5861 -0.5665  0.2856
 4431TIP3    H134708   2.626   1.420   5.736  0.1085  1.5456 -2.4957
 4431TIP3    H234709   2.718   1.505   5.821 -0.3828 -0.5301  0.2777
 4432TIP3   OH234710   2.518   2.478   2.739 -0.2421 -0.1401  0.0391
 4432TIP3    H134711   2.430   2.454   2.711 -0.5470 -0.0293  0.8786
 4432TIP3    H234712   2.541   2.412   2.805  0.6249 -0.6424 -0.7359
 4433TIP3   OH234713   5.876   0.493  12.087  0.0590  0.2831 -0.5516
 4433TIP3    H134714   5.876   0.504  12.182 -1.5659  2.0285 -0.6975
 4433TIP3    H234715   5.788   0.518  12.060  0.2266 -0.9682 -2.4589
 4434TIP3   OH234716   1.039   1.168   5.694  0.0220  0.2266 -0.2081
 4434TIP3    H134717   1.031   1.143   5.786  1.8132  3.0231  0.8279
 4434TIP3    H234718   0.965   1.228   5.679  0.9293  1.4776  0.1224
 4435TIP3   OH234719   6.688   1.334   5.068 -0.1496  0.3368  0.0515
 4435TIP3    H134720   6.728   1.263   5.018 -2.8992 -0.2887 -1.4155
 4435TIP3    H234721   6.739   1.411   5.045 -0.5016 -0.1740 -2.8003
 4436TIP3   OH234722   4.608   4.531   3.297 -0.1088 -0.3464  0.7135
 4436TIP3    H134723   4.682   4.566   3.347  0.3310 -0.7006  0.3242
 4436TIP3    H234724   4.594   4.597   3.228 -0.6356  0.0806  1.2195
 4437TIP3   OH234725   4.810   5.164  13.631  0.3131 -1.4410  0.1339
 4437TIP3    H134726   4.716   5.173  13.616  0.7100  1.9410 -1.2641
 4437TIP3    H234727   4.834   5.085  13.583 -1.4515 -0.9040 -1.7895
 4438TIP3   OH234728   1.469   3.781   2.006  0.3369  0.3976  0.2282
 4438TIP3    H134729   1.384   3.766   1.963  0.1071  1.8890  0.0939
 4438TIP3    H234730   1.489   3.698   2.049  0.1597 -0.9169 -2.0279
 4439TIP3   OH234731   6.178   2.705  11.148  0.2107 -0.4434 -0.4848
 4439TIP3    H134732   6.261   2.725  11.191 -0.4398  0.7885  0.2331
 4439TIP3    H234733   6.135   2.642  11.206  0.3615 -0.6220 -0.5618
 4440TIP3   OH234734   6.758   1.840  13.475 -0.9375  0.2028  0.0477
 4440TIP3    H134735   6.810   1.895  13.534 -0.8643 -0.2874  0.4423
 4440TIP3    H234736   6.699   1.902  13.431 -0.5916  0.6498  0.2021
 4441TIP3   OH234737   5.260   2.359   3.417  0.0620 -0.5233 -0.3693
 4441TIP3    H134738   5.340   2.310   3.434 -0.1658 -1.0804 -0.8931
 4441TIP3    H234739   5.276   2.401   3.331  0.2561  0.3329  0.0676
 4442TIP3   OH234740   2.475   4.944  16.246  0.4553  0.2915  0.7214
 4442TIP3    H134741   2.491   4.876  16.181 -0.9998  0.1481  0.4797
 4442TIP3    H234742   2.402   4.994  16.210  0.0048  0.5592  1.9868
 4443TIP3   OH234743   4.227   2.344   2.548 -0.1284  0.3945 -0.4951
 4443TIP3    H134744   4.263   2.287   2.481  0.6507 -2.6352  2.2431
 4443TIP3    H234745   4.133   2.348   2.528 -0.2345 -2.0171 -0.7787
 4444TIP3   OH234746   6.042   1.416   4.136  0.2112 -0.2060  0.7741
 4444TIP3    H134747   6.122   1.432   4.086  0.0871  1.5883  1.1023
 4444TIP3    H234748   6.013   1.503   4.164 -2.4127 -0.6764 -0.1631
 4445TIP3   OH234749   2.905   4.815  13.465  0.1467 -0.3152 -0.3394
 4445TIP3    H134750   2.861   4.896  13.439 -0.6486 -0.2963  0.9502
 4445TIP3    H234751   2.836   4.749  13.463 -0.3400 -0.0825  2.7458
 4446TIP3   OH234752   6.428   1.233   4.121  0.2808 -0.3807  0.2991
 4446TIP3    H134753   6.369   1.160   4.140 -0.8896  0.4465 -0.0475
 4446TIP3    H234754   6.474   1.207   4.042 -0.0602 -0.7861  0.2310
 4447TIP3   OH234755   1.526   3.489  15.273  0.7046 -0.3350 -0.0431
 4447TIP3    H134756   1.557   3.505  15.184  0.6976 -0.5944 -0.0920
 4447TIP3    H234757   1.606   3.484  15.326  0.8026 -1.7747 -0.2918
 4448TIP3   OH234758   0.164   2.443  12.864 -0.0542  0.6780 -0.6143
 4448TIP3    H134759   0.195   2.387  12.935  0.7870  0.3123 -1.2490
 4448TIP3    H234760   0.240   2.451  12.805 -0.3408  1.9935 -0.8384
 4449TIP3   OH234761   1.907   5.901  11.261 -0.1053 -0.4499  0.1247
 4449TIP3    H134762   1.896   5.903  11.356  0.3059 -0.7897  0.1847
 4449TIP3    H234763   1.991   5.943  11.246  0.3574 -1.3871  0.0113
 4450TIP3   OH234764   0.322   2.895  11.771 -0.4128  0.0581  0.5216
 4450TIP3    H134765   0.396   2.910  11.712 -0.5157  0.8952  0.6033
 4450TIP3    H234766   0.318   2.799  11.780 -1.1246 -0.1801 -1.7677
 4451TIP3   OH234767   1.636   6.358   3.248 -0.0555  0.2557 -0.0988
 4451TIP3    H134768   1.712   6.415   3.260 -0.2957  0.5905 -0.1210
 4451TIP3    H234769   1.594   6.356   3.335  0.0389 -0.0136 -0.0600
 4452TIP3   OH234770   1.818   4.168  13.681  0.6103  0.0867  0.2668
 4452TIP3    H134771   1.837   4.130  13.595 -0.1885  0.4845 -0.0957
 4452TIP3    H234772   1.832   4.262  13.670  0.2820  0.1661  0.5092
 4453TIP3   OH234773   3.731   3.890  13.771  0.1134  0.0562 -0.5420
 4453TIP3    H134774   3.704   3.820  13.831 -0.4815  1.7654  1.2749
 4453TIP3    H234775   3.814   3.859  13.735  0.2609 -1.2472  0.8038
 4454TIP3   OH234776   4.773   4.544   2.484  0.2018  0.2659 -0.0981
 4454TIP3    H134777   4.743   4.551   2.393 -0.5155  0.3696  0.1365
 4454TIP3    H234778   4.865   4.521   2.477 -0.2603 -1.5570 -0.8700
 4455TIP3   OH234779   5.158   2.919  16.549 -0.0930 -0.4162  0.5080
 4455TIP3    H134780   5.089   2.868  16.506 -0.8261  0.0201  1.1332
 4455TIP3    H234781   5.219   2.942  16.479 -2.6709  2.7159 -0.9783
 4456TIP3   OH234782   1.537   1.700  13.104 -0.2270 -0.4242  0.3071
 4456TIP3    H134783   1.547   1.693  13.009  0.6729 -0.6550  0.4044
 4456TIP3    H234784   1.525   1.794  13.119 -1.2639 -0.4829 -0.1000
 4457TIP3   OH234785   1.570   3.005  10.393 -0.0022  0.6927 -0.3091
 4457TIP3    H134786   1.513   3.069  10.436 -0.6587 -0.4027  0.4936
 4457TIP3    H234787   1.512   2.933  10.369  0.2967  1.3511 -3.3251
 4458TIP3   OH234788   3.975   4.337   0.869  0.0517  0.5815 -0.6447
 4458TIP3    H134789   4.029   4.416   0.865 -0.9825  1.4292  1.0883
 4458TIP3    H234790   4.027   4.275   0.922 -0.3482  1.1417  0.4215
 4459TIP3   OH234791   5.930   2.282  15.975 -0.2110  0.6475  0.4237
 4459TIP3    H134792   6.024   2.297  15.982 -0.1514  0.5256 -0.1143
 4459TIP3    H234793   5.921   2.187  15.981 -0.4275  0.7267  1.8991
 4460TIP3   OH234794   2.761   3.876   5.480  0.3140 -0.5738  0.1136
 4460TIP3    H134795   2.792   3.937   5.546 -0.0566 -1.2657  0.9464
 4460TIP3    H234796   2.777   3.920   5.397 -0.8406  1.0881  0.7212
 4461TIP3   OH234797   2.144   5.099  12.986 -0.0953 -0.6834  0.3761
 4461TIP3    H134798   2.172   5.187  12.963 -1.3228 -0.0390  1.2686
 4461TIP3    H234799   2.129   5.101  13.080  0.1182 -1.9245  0.4614
 4462TIP3   OH234800   6.215   0.273  11.875  0.2503 -0.3297  0.3319
 4462TIP3    H134801   6.299   0.318  11.868  0.9843 -1.3121  2.0907
 4462TIP3    H234802   6.149   0.340  11.856  1.3118  1.3735  2.2664
 4463TIP3   OH234803   2.992   5.816   2.874 -0.3058  0.2719 -0.2349
 4463TIP3    H134804   2.944   5.819   2.791  0.0333 -0.5344 -0.4724
 4463TIP3    H234805   3.083   5.833   2.850  0.0380 -1.4168 -0.2602
 4464TIP3   OH234806   2.735   3.096   1.897  0.2036 -0.6375  0.0994
 4464TIP3    H134807   2.750   3.055   1.812  2.2265  1.6314 -0.7777
 4464TIP3    H234808   2.688   3.177   1.876  1.8390  0.5807  0.9273
 4465TIP3   OH234809   6.647   6.740  12.501 -0.1239  0.4714 -0.2466
 4465TIP3    H134810   6.643   6.749  12.406 -1.0158  1.0370 -0.1612
 4465TIP3    H234811   6.740   6.722  12.519 -0.1752 -1.1007 -1.3209
 4466TIP3   OH234812   2.148   3.183  12.070 -0.9534  0.0056 -0.5117
 4466TIP3    H134813   2.085   3.244  12.033 -1.2390 -0.0685 -0.1445
 4466TIP3    H234814   2.230   3.203  12.024 -1.0650  0.5968 -0.4587
 4467TIP3   OH234815   0.848   1.595   1.993  0.0862 -0.1647  0.2472
 4467TIP3    H134816   0.925   1.644   2.021  1.1431 -2.2318  1.2221
 4467TIP3    H234817   0.816   1.552   2.073 -1.7724  0.1969 -0.2477
 4468TIP3   OH234818   3.062   5.215  11.546  0.1817  0.3289 -0.1813
 4468TIP3    H134819   3.157   5.204  11.552  0.3450  1.3825 -0.6105
 4468TIP3    H234820   3.051   5.294  11.493 -0.9168  1.0682  1.1043
 4469TIP3   OH234821   6.349   0.109   4.302  0.5069  0.1930 -0.1798
 4469TIP3    H134822   6.280   0.167   4.272  0.7058  0.4636 -0.1186
 4469TIP3    H234823   6.373   0.058   4.224 -1.2004 -1.4075  0.2599
 4470TIP3   OH234824   3.820   0.977   3.295 -0.2010  0.6153 -0.0797
 4470TIP3    H134825   3.801   0.946   3.384  1.5491  0.1000  0.1670
 4470TIP3    H234826   3.912   1.005   3.299 -0.0888  0.5898 -1.7331
 4471TIP3   OH234827   2.097   2.827  13.552 -0.5737 -0.2673 -0.1875
 4471TIP3    H134828   2.099   2.824  13.456  1.9704  3.0215 -0.4109
 4471TIP3    H234829   2.038   2.900  13.572  0.7901  0.6577  0.5819
 4472TIP3   OH234830   2.797   0.301  11.539 -0.3580 -0.0925  0.1065
 4472TIP3    H134831   2.882   0.268  11.510  0.4617  0.4962  1.7141
 4472TIP3    H234832   2.817   0.353  11.617 -2.3541 -1.2984  1.5253
 4473TIP3   OH234833   3.879   3.072  13.641  0.7576 -0.1911 -0.2721
 4473TIP3    H134834   3.913   3.111  13.721 -0.0937  0.8504 -0.4054
 4473TIP3    H234835   3.792   3.039  13.665  1.2857 -1.6974 -0.2640
 4474TIP3   OH234836   5.948   2.354   4.240 -0.3457  0.4114  0.1578
 4474TIP3    H134837   5.972   2.312   4.158 -0.6885 -0.2801  0.4033
 4474TIP3    H234838   6.021   2.334   4.299 -0.4379  0.2781  0.2291
 4475TIP3   OH234839   2.022   2.276   0.159  0.1459 -0.0560 -0.3092
 4475TIP3    H134840   1.975   2.192   0.162 -0.0219  0.0622  2.1972
 4475TIP3    H234841   2.115   2.252   0.163  0.0969 -0.1189  0.4353
 4476TIP3   OH234842   6.699   2.549  12.809  0.0375  0.3189  0.3438
 4476TIP3    H134843   6.672   2.464  12.844 -1.0756  0.3495 -0.3890
 4476TIP3    H234844   6.791   2.537  12.784 -0.3003 -0.8885 -0.4008
 4477TIP3   OH234845   6.293   5.926  16.979 -0.0902 -0.8072 -0.4075
 4477TIP3    H134846   6.358   5.916  17.049 -0.9855  0.4880  0.6691
 4477TIP3    H234847   6.255   6.013  16.994 -1.4512 -1.1693 -1.5238
 4478TIP3   OH234848   4.835   2.667   3.800  0.0055 -0.2234  0.8060
 4478TIP3    H134849   4.783   2.690   3.877  1.2248 -2.1616  2.3078
 4478TIP3    H234850   4.773   2.670   3.727 -0.6989  4.1274  1.2871
 4479TIP3   OH234851   6.624   5.626  11.673  0.2780 -1.0264  0.4171
 4479TIP3    H134852   6.693   5.673  11.625 -1.3219  0.6802 -0.3251
 4479TIP3    H234853   6.574   5.581  11.605 -1.8038  1.1403  0.3997
 4480TIP3   OH234854   6.382   4.865  14.851  0.4466  0.2130  0.0859
 4480TIP3    H134855   6.454   4.916  14.813 -1.0681  1.4547 -1.2410
 4480TIP3    H234856   6.374   4.898  14.940  0.6385  1.0288 -0.1916
 4481TIP3   OH234857   0.568   3.256  12.259 -0.0996 -0.0706 -0.1607
 4481TIP3    H134858   0.497   3.298  12.212 -0.3294 -0.2845 -0.0078
 4481TIP3    H234859   0.578   3.170  12.217 -0.2449 -0.2255  0.1184
 4482TIP3   OH234860   0.348   3.401   3.427  0.0142 -0.4742 -0.6159
 4482TIP3    H134861   0.316   3.442   3.346 -0.8307 -1.8192 -0.9924
 4482TIP3    H234862   0.271   3.395   3.483  1.0173  2.6909  1.3793
 4483TIP3   OH234863   6.374   1.002  15.970 -0.2137 -0.0516 -0.2994
 4483TIP3    H134864   6.339   0.981  16.057 -2.2456 -0.9967 -1.2745
 4483TIP3    H234865   6.336   1.087  15.948 -1.3231 -0.7064 -1.0243
 4484TIP3   OH234866   3.654   5.643  15.513  0.8999 -0.4058  1.2719
 4484TIP3    H134867   3.636   5.735  15.532  0.5243 -0.6098  1.9429
 4484TIP3    H234868   3.744   5.630  15.543  2.1586  0.5299 -1.7777
 4485TIP3   OH234869   4.269   2.411  16.252 -0.0026 -0.3557 -0.1069
 4485TIP3    H134870   4.204   2.342  16.265 -0.1435 -0.7060 -2.3809
 4485TIP3    H234871   4.218   2.491  16.245 -0.1534 -0.5401 -1.2102
 4486TIP3   OH234872   2.896   2.590  11.492 -0.3204 -0.2654  0.0328
 4486TIP3    H134873   2.979   2.576  11.538 -0.2860 -0.9689 -0.2253
 4486TIP3    H234874   2.898   2.527  11.420 -0.9938 -0.1514 -0.0941
 4487TIP3   OH234875   3.091   0.178   2.779  0.1129 -0.0796  1.0889
 4487TIP3    H134876   3.063   0.101   2.730  0.1923  0.4049  0.2572
 4487TIP3    H234877   3.121   0.240   2.712 -1.4786  1.3240  1.6001
 4488TIP3   OH234878   3.838   4.994   5.332 -0.0819  0.3378  0.1624
 4488TIP3    H134879   3.897   5.009   5.258 -0.5251  1.2873 -0.0101
 4488TIP3    H234880   3.751   5.019   5.300 -0.3570  0.3139  0.8586
 4489TIP3   OH234881   5.359   6.245  11.751  0.2119  0.2674  0.1305
 4489TIP3    H134882   5.311   6.317  11.710 -0.1514 -0.5412 -0.8915
 4489TIP3    H234883   5.440   6.237  11.702 -0.0925 -0.5146 -0.2689
 4490TIP3   OH234884   5.025   4.617  11.677  0.5645 -0.4061 -0.3328
 4490TIP3    H134885   4.936   4.652  11.683  0.1832 -1.1966 -1.1904
 4490TIP3    H234886   5.014   4.522  11.692  1.2524 -0.5192 -0.5337
 4491TIP3   OH234887   4.817   4.687   5.820 -0.6012 -0.1242  0.2559
 4491TIP3    H134888   4.755   4.756   5.844  2.3803  2.8579  0.1395
 4491TIP3    H234889   4.889   4.697   5.883  2.2316  0.3006 -2.7763
 4492TIP3   OH234890   0.622   3.203  15.396 -0.7403 -0.1048  0.0573
 4492TIP3    H134891   0.686   3.143  15.434 -1.6550 -0.6328  0.7891
 4492TIP3    H234892   0.652   3.216  15.306 -0.3516 -1.3919 -0.0124
 4493TIP3   OH234893   3.759   2.072  15.636  0.4462 -0.1316 -0.6051
 4493TIP3    H134894   3.760   2.111  15.548 -2.0026  0.3663 -0.4919
 4493TIP3    H234895   3.748   2.147  15.694 -3.2940 -0.7203 -0.3074
 4494TIP3   OH234896   3.921   5.802   0.720  0.4920 -0.2893 -0.0561
 4494TIP3    H134897   3.951   5.767   0.637  1.3726  0.7436 -0.1995
 4494TIP3    H234898   3.887   5.726   0.768  1.2254 -1.1145 -0.8177
 4495TIP3   OH234899   5.979   0.590   2.727  0.0567  0.2484 -0.1042
 4495TIP3    H134900   6.042   0.562   2.793 -0.5630 -0.5315  0.1754
 4495TIP3    H234901   6.011   0.675   2.697  0.3288  0.6340  1.2298
 4496TIP3   OH234902   0.396   4.129  11.811 -0.0816  0.5168 -0.2220
 4496TIP3    H134903   0.362   4.149  11.898 -0.5519  1.1406 -0.5392
 4496TIP3    H234904   0.349   4.050  11.785  1.3125 -0.6929  0.7760
 4497TIP3   OH234905   0.082   0.049  16.352 -0.0275 -0.0817  0.2222
 4497TIP3    H134906   0.097   0.122  16.412 -1.1699  0.2484  0.1285
 4497TIP3    H234907   0.038  -0.017  16.405 -0.0134 -0.2523  0.0238
 4498TIP3   OH234908   1.194   5.224  13.763 -0.0337  0.3864  0.2516
 4498TIP3    H134909   1.164   5.313  13.742  0.9283  0.4075 -1.1544
 4498TIP3    H234910   1.279   5.237  13.803 -0.9838  0.2113  2.4613
 4499TIP3   OH234911   2.165   0.233  11.635 -0.0784 -0.1460  0.2150
 4499TIP3    H134912   2.078   0.257  11.666 -0.8677 -2.3896 -0.0730
 4499TIP3    H234913   2.161   0.243  11.540 -0.4369 -1.3343  0.0846
 4500TIP3   OH234914   2.036   1.971   0.411  0.6144  0.6259  0.3134
 4500TIP3    H134915   1.966   1.966   0.477  0.3413 -0.8193 -0.0593
 4500TIP3    H234916   1.998   1.929   0.333  2.4230 -1.6817  0.5872
 4501TIP3   OH234917   0.600   5.008   6.034  0.2784 -0.2262 -0.5467
 4501TIP3    H134918   0.537   4.941   6.061  0.2063 -0.3427 -1.0074
 4501TIP3    H234919   0.547   5.086   6.020  0.2368 -0.3301 -0.9555
 4502TIP3   OH234920   2.318   3.633   4.641  0.3910  0.0262  0.4970
 4502TIP3    H134921   2.273   3.599   4.718 -0.4667 -0.4469 -0.1917
 4502TIP3    H234922   2.398   3.580   4.635  1.8104  1.7764  2.5131
 4503TIP3   OH234923   5.396   1.434  13.262 -0.0267  0.1564 -0.0930
 4503TIP3    H134924   5.304   1.448  13.244  0.4837  2.6581 -1.2189
 4503TIP3    H234925   5.398   1.389  13.347 -2.2624  3.9075  2.2037
 4504TIP3   OH234926   1.880   5.920   4.179 -0.4975 -0.0724 -0.0807
 4504TIP3    H134927   1.941   5.971   4.127 -0.2497  1.8945  1.9778
 4504TIP3    H234928   1.794   5.954   4.155 -0.6166 -1.0926 -1.1583
 4505TIP3   OH234929   3.720   4.543   4.835 -0.5284  0.3135  0.2107
 4505TIP3    H134930   3.721   4.463   4.782  1.6691  1.5053 -1.7311
 4505TIP3    H234931   3.677   4.517   4.917  0.8451 -3.0588  0.0288
 4506TIP3   OH234932   4.850   5.149  12.879  0.1314 -0.5064  0.4102
 4506TIP3    H134933   4.870   5.234  12.920 -0.5116 -0.3628  0.4428
 4506TIP3    H234934   4.916   5.139  12.811 -0.3787  0.5083 -0.2675
 4507TIP3   OH234935   0.100   6.743   1.972  0.6617  0.0256 -0.3558
 4507TIP3    H134936   0.084   6.793   2.052 -1.2013 -1.6209  0.3889
 4507TIP3    H234937   0.034   6.774   1.911  0.0688 -0.8928 -0.1870
 4508TIP3   OH234938   4.299   5.655   6.056 -0.7115  0.2638 -0.0286
 4508TIP3    H134939   4.384   5.689   6.029 -0.7258 -0.2963 -0.8461
 4508TIP3    H234940   4.294   5.671   6.150  0.5593 -0.2647  0.1423
 4509TIP3   OH234941   2.807   0.080  14.124 -0.2446  0.1134 -0.2215
 4509TIP3    H134942   2.720   0.067  14.086 -0.2707 -1.8944  0.4243
 4509TIP3    H234943   2.852  -0.003  14.108  1.9452  1.4771 -1.4867
 4510TIP3   OH234944   2.576   0.376   6.091 -0.0346 -0.3567  0.5152
 4510TIP3    H134945   2.649   0.315   6.104 -1.0346 -1.3269  1.8377
 4510TIP3    H234946   2.552   0.403   6.179 -0.8460  0.4734  0.0493
 4511TIP3   OH234947   2.469   1.962  11.800 -0.0598 -0.5481  0.1168
 4511TIP3    H134948   2.401   2.012  11.845 -0.2805 -0.3340 -0.4551
 4511TIP3    H234949   2.514   1.915  11.871  0.4921  0.8545  0.7419
 4512TIP3   OH234950   6.517   1.095  15.585 -0.1718 -0.6907 -0.2454
 4512TIP3    H134951   6.492   1.035  15.515  1.1711 -2.0741  0.4036
 4512TIP3    H234952   6.529   1.040  15.662 -2.3256  0.8795  1.3388
 4513TIP3   OH234953   5.202   3.285   3.109  0.3138 -0.3358 -0.3050
 4513TIP3    H134954   5.123   3.335   3.087 -0.8280 -1.5500  0.8366
 4513TIP3    H234955   5.261   3.349   3.148 -0.4113  0.4594 -0.4747
 4514TIP3   OH234956   2.880   3.835   0.102 -0.4575 -0.0615  0.0114
 4514TIP3    H134957   2.933   3.844   0.181 -1.3989 -0.9862  0.7707
 4514TIP3    H234958   2.832   3.918   0.096  0.5192  0.5029 -0.2948
 4515TIP3   OH234959   3.492   3.318   4.375 -0.2331 -0.2057 -0.4950
 4515TIP3    H134960   3.551   3.327   4.449 -0.6247  0.6682 -0.2705
 4515TIP3    H234961   3.503   3.399   4.325 -3.4943  1.5572  1.2565
 4516TIP3   OH234962   5.025   1.344   5.017  0.3156  0.4068  0.0131
 4516TIP3    H134963   5.106   1.383   4.984  2.0193 -0.4230  2.9004
 4516TIP3    H234964   5.036   1.250   5.003  0.7779  0.0989  2.0867
 4517TIP3   OH234965   5.492   4.878   1.338  0.1075  0.0099  0.2205
 4517TIP3    H134966   5.531   4.929   1.268 -1.2825 -0.3563 -0.8825
 4517TIP3    H234967   5.435   4.940   1.384  0.7959  0.1790  0.8643
 4518TIP3   OH234968   1.580   4.948  15.404 -0.2600  0.1036 -0.0436
 4518TIP3    H134969   1.615   4.880  15.346  0.9780 -0.6264  1.4865
 4518TIP3    H234970   1.524   4.901  15.465 -0.7171  0.7124  0.0082
 4519TIP3   OH234971   2.800   4.244  15.603 -0.0379 -0.1097  0.4580
 4519TIP3    H134972   2.876   4.222  15.657  0.2094  1.3430  0.7507
 4519TIP3    H234973   2.744   4.295  15.662 -0.4908  0.1832 -0.2223
 4520TIP3   OH234974   6.532   2.569   5.569 -0.0427 -0.1193  0.1163
 4520TIP3    H134975   6.453   2.621   5.562 -0.6459 -1.1232 -0.7563
 4520TIP3    H234976   6.603   2.629   5.545 -0.9223 -0.2396 -3.3397
 4521TIP3   OH234977   5.278   2.779  15.064  0.1989  0.0382 -0.2095
 4521TIP3    H134978   5.203   2.732  15.101  0.3114 -0.3000 -0.3968
 4521TIP3    H234979   5.349   2.715  15.066  0.6464  0.5521  0.5243
 4522TIP3   OH234980   3.947   2.575   5.926  0.0428 -0.7190  0.0000
 4522TIP3    H134981   3.895   2.506   5.884 -1.1921  0.6979 -0.8996
 4522TIP3    H234982   4.022   2.588   5.868  1.0395 -2.2057  0.8819
 4523TIP3   OH234983   5.727   0.378  12.577 -0.5183  0.3606  0.2666
 4523TIP3    H134984   5.791   0.307  12.576  0.5062  1.2664  0.0727
 4523TIP3    H234985   5.659   0.348  12.638  1.2165  0.3298  2.3246
 4524TIP3   OH234986   0.287   5.338  14.324  0.2275 -0.1399 -0.7293
 4524TIP3    H134987   0.343   5.268  14.291  1.4755  0.5449 -0.1524
 4524TIP3    H234988   0.280   5.400  14.251  0.1794 -0.2566 -0.8231
 4525TIP3   OH234989   2.645   2.751  14.902  0.7800 -0.0758 -0.1811
 4525TIP3    H134990   2.634   2.760  14.997  1.1602 -0.3318 -0.1081
 4525TIP3    H234991   2.707   2.820  14.879  2.2098 -1.2191  0.0783
 4526TIP3   OH234992   1.978   6.714  12.308 -0.1129 -0.1296 -0.6622
 4526TIP3    H134993   2.016   6.751  12.387  0.2526 -1.6332 -0.0928
 4526TIP3    H234994   2.050   6.710  12.245 -0.1036 -0.0558 -0.6555
 4527TIP3   OH234995   5.783   1.448   4.383 -0.4875  0.3936 -0.3080
 4527TIP3    H134996   5.734   1.406   4.454  0.5864  1.5312  1.1657
 4527TIP3    H234997   5.732   1.526   4.362 -0.5436  0.3229 -0.4349
 4528TIP3   OH234998   0.014   1.935  10.874 -0.3909  0.1963  0.3543
 4528TIP3    H134999   0.016   1.985  10.956 -0.1818  0.4761  0.1791
 4528TIP3    H235000   0.064   1.855  10.893  0.2663  0.5882  0.2876
 4529TIP3   OH235001   6.150   5.488  13.458 -0.4354  0.4370 -0.7188
 4529TIP3    H135002   6.238   5.467  13.488 -1.4093 -1.0536  1.2995
 4529TIP3    H235003   6.112   5.540  13.529 -1.7305 -0.3620 -0.7980
 4530TIP3   OH235004   3.402   0.497  13.400  0.2590 -0.4034 -0.7598
 4530TIP3    H135005   3.345   0.430  13.363 -0.8912  0.5617 -0.8222
 4530TIP3    H235006   3.392   0.572  13.342  1.0498  0.0245 -0.3664
 4531TIP3   OH235007   1.933   3.233  15.005 -0.5551  0.1701 -0.4504
 4531TIP3    H135008   1.967   3.203  14.921 -0.7299  0.4768 -0.6332
 4531TIP3    H235009   1.839   3.240  14.993 -1.2857 -4.0153  1.0747
 4532TIP3   OH235010   6.581   4.284   1.239 -0.3561 -0.5883  0.1287
 4532TIP3    H135011   6.624   4.198   1.245  2.8368  0.9445  1.9566
 4532TIP3    H235012   6.569   4.311   1.330  0.4507  1.6568 -0.3790
 4533TIP3   OH235013   6.550   3.281  12.391  0.4728  0.3539 -0.0292
 4533TIP3    H135014   6.565   3.262  12.298 -1.1158  1.7207 -0.6098
 4533TIP3    H235015   6.523   3.373  12.393 -0.3289  0.1215  1.6845
 4534TIP3   OH235016   3.954   3.505   2.757  0.2035  0.3873  0.4864
 4534TIP3    H135017   4.000   3.454   2.691 -1.8862 -1.8269  0.5922
 4534TIP3    H235018   3.922   3.582   2.710 -0.1002 -0.4762 -0.7738
 4535TIP3   OH235019   1.331   3.753  11.407  0.0413 -0.3180  0.4734
 4535TIP3    H135020   1.319   3.670  11.455  0.7490 -0.1509  0.9702
 4535TIP3    H235021   1.425   3.770  11.414  0.3106 -0.6756 -1.6600
 4536TIP3   OH235022   0.089   4.182   3.000  0.6274  0.3104 -0.0597
 4536TIP3    H135023   0.035   4.240   2.947  0.1429 -0.8091 -0.8224
 4536TIP3    H235024   0.064   4.201   3.090 -2.2679 -1.2614 -0.4150
 4537TIP3   OH235025   3.743   3.676  13.942  0.4451  0.1939 -0.4539
 4537TIP3    H135026   3.836   3.692  13.959  0.1905  1.0366  0.1680
 4537TIP3    H235027   3.738   3.582  13.924  1.2530 -0.0608  0.5975
 4538TIP3   OH235028   2.982   0.215  15.522  0.1627  0.3963 -0.1694
 4538TIP3    H135029   3.003   0.122  15.515 -0.5006  0.1855  0.4962
 4538TIP3    H235030   2.963   0.229  15.615 -0.0113  1.1376 -0.3061
 4539TIP3   OH235031   1.764   3.400  15.646 -0.0019  0.2342  0.2522
 4539TIP3    H135032   1.853   3.428  15.668  0.4437 -0.5568 -0.4800
 4539TIP3    H235033   1.750   3.321  15.697 -0.1472  0.1472  0.0773
 4540TIP3   OH235034   4.786   3.900   0.632 -0.4617 -0.1114 -0.2784
 4540TIP3    H135035   4.770   3.994   0.641  0.3340 -0.0594  0.9059
 4540TIP3    H235036   4.808   3.871   0.721  1.3319 -1.0239 -0.9661
 4541TIP3   OH235037   1.465   2.430   4.380 -0.2151  0.8746 -0.2099
 4541TIP3    H135038   1.393   2.368   4.386  0.4247  0.0407 -0.8812
 4541TIP3    H235039   1.525   2.391   4.316  1.0540  1.3124  0.6602
 4542TIP3   OH235040   1.443   3.004   5.231  0.2092 -0.3489  0.7970
 4542TIP3    H135041   1.467   3.081   5.181  0.1373 -0.7611  0.1111
 4542TIP3    H235042   1.406   2.944   5.167 -1.6406 -0.1704  1.6434
 4543TIP3   OH235043   0.830   5.771   1.090  0.0476 -0.4990 -0.5107
 4543TIP3    H135044   0.776   5.850   1.098 -0.3175 -0.6148 -1.7167
 4543TIP3    H235045   0.854   5.751   1.181 -0.0019  0.8846 -0.1544
 4544TIP3   OH235046   6.538   6.331  17.200  0.6449  0.0774 -0.5934
 4544TIP3    H135047   6.568   6.288  17.280  0.6728 -1.0204 -1.1652
 4544TIP3    H235048   6.618   6.354  17.153  0.7162  2.7597  0.6591
 4545TIP3   OH235049   6.544   6.712  12.210  0.4200 -0.0151 -0.0565
 4545TIP3    H135050   6.626   6.697  12.164  0.3387 -0.7226  0.0066
 4545TIP3    H235051   6.482   6.651  12.168 -0.3568  1.2741 -0.8414
 4546TIP3   OH235052   0.915   4.959  15.435  0.3149  0.1103 -0.3296
 4546TIP3    H135053   0.911   4.948  15.340 -0.4471 -1.7428 -0.1300
 4546TIP3    H235054   1.008   4.951  15.457  0.4280 -0.0404 -0.8548
 4547TIP3   OH235055   2.022   4.892  15.972  0.2573 -0.2597  0.1958
 4547TIP3    H135056   2.053   4.873  15.883  0.0529 -1.0957  0.2917
 4547TIP3    H235057   1.995   4.984  15.969  1.9136  0.2337 -0.1203
 4548TIP3   OH235058   2.438   4.413   0.739 -0.0311  0.3938 -0.1730
 4548TIP3    H135059   2.373   4.440   0.675 -0.3222 -0.4303 -0.2359
 4548TIP3    H235060   2.400   4.336   0.781  0.5788  0.3495  0.3143
 4549TIP3   OH235061   2.440   5.158  14.788  0.5902 -0.3192 -0.1425
 4549TIP3    H135062   2.431   5.180  14.696  0.1693  0.2341  0.0197
 4549TIP3    H235063   2.532   5.174  14.808  0.2797  1.5589  0.0059
 4550TIP3   OH235064   0.024   2.711   4.018  0.1139 -0.1028 -0.3487
 4550TIP3    H135065  -0.046   2.771   3.995  0.1441 -0.3252 -1.0347
 4550TIP3    H235066  -0.009   2.624   3.994 -0.6345 -0.6168  2.2293
 4551TIP3   OH235067   1.836   6.232   1.466  0.1302 -0.0367  0.0333
 4551TIP3    H135068   1.852   6.189   1.550 -0.0142  0.9054  0.5570
 4551TIP3    H235069   1.832   6.325   1.487  2.0340  0.4145 -1.2937
 4552TIP3   OH235070   1.544   6.110  16.354  0.5817 -0.0877  0.4846
 4552TIP3    H135071   1.514   6.084  16.267  0.4762  0.7380  0.2662
 4552TIP3    H235072   1.607   6.042  16.379 -0.7428 -1.3420  0.5489
 4553TIP3   OH235073   3.998   6.317   4.445  0.1942  0.6562  0.3912
 4553TIP3    H135074   4.031   6.354   4.364 -0.6269 -0.7203 -0.6166
 4553TIP3    H235075   4.063   6.341   4.511  1.4966  0.7897 -0.8996
 4554TIP3   OH235076   1.470   4.229   3.470  0.1387 -0.0761  0.3186
 4554TIP3    H135077   1.443   4.240   3.379  0.3086 -0.6430  0.1963
 4554TIP3    H235078   1.541   4.293   3.481 -1.1198  1.3401  0.6131
 4555TIP3   OH235079   2.952   1.887  14.711  0.2209 -0.2940  0.1319
 4555TIP3    H135080   2.991   1.920  14.792  1.1640 -0.1906 -0.3520
 4555TIP3    H235081   2.925   1.798  14.733 -0.5631  0.1178  0.8787
 4556TIP3   OH235082   3.771   6.332   2.034 -0.0212 -0.2465  0.3356
 4556TIP3    H135083   3.839   6.334   2.101  0.5086  0.7880 -0.2095
 4556TIP3    H235084   3.734   6.243   2.039  1.8943 -1.0921  0.1152
 4557TIP3   OH235085   4.158   1.884   0.555  0.1697  0.1586  0.0506
 4557TIP3    H135086   4.093   1.818   0.580 -0.4542 -0.3751 -2.7028
 4557TIP3    H235087   4.241   1.838   0.555  0.1529  0.1080  0.7660
 4558TIP3   OH235088   6.451   6.250  16.858  0.6172  0.3830  0.6886
 4558TIP3    H135089   6.507   6.190  16.908  1.0926  0.2953  0.0693
 4558TIP3    H235090   6.362   6.224  16.881  0.8226  0.1617  1.2694
 4559TIP3   OH235091   6.655   3.978  13.071  0.2899 -0.3172  0.5801
 4559TIP3    H135092   6.653   4.053  13.131  0.7997  0.6645 -0.5803
 4559TIP3    H235093   6.747   3.952  13.067  0.4372  0.3008 -0.5435
 4560TIP3   OH235094   4.727   5.645  16.565  0.3624 -0.0433 -0.1085
 4560TIP3    H135095   4.725   5.607  16.477  0.5899 -0.3634  0.0238
 4560TIP3    H235096   4.733   5.569  16.624  0.0689  0.1623  0.1890
 4561TIP3   OH235097   3.748   1.604   4.496  0.6022  0.4171  0.3606
 4561TIP3    H135098   3.738   1.520   4.540 -0.0282 -0.1142 -0.7614
 4561TIP3    H235099   3.692   1.664   4.546 -1.4801 -0.5609 -0.6625
 4562TIP3   OH235100   5.504   5.909  16.140  0.0644 -0.4108  0.8018
 4562TIP3    H135101   5.524   5.823  16.102 -1.1665  0.3099 -1.6546
 4562TIP3    H235102   5.413   5.903  16.168 -0.4642  0.4295 -0.6078
 4563TIP3   OH235103   0.036   4.142   5.462 -0.1401  0.0965  0.0109
 4563TIP3    H135104   0.111   4.171   5.410  0.8249  1.0711  1.8154
 4563TIP3    H235105   0.054   4.050   5.481  0.9001  0.4288  0.7964
 4564TIP3   OH235106   2.899   5.309   5.366  0.4860  0.2289  0.1891
 4564TIP3    H135107   2.984   5.277   5.337  0.1479  0.4805 -1.1501
 4564TIP3    H235108   2.838   5.239   5.346  0.1256  0.7137 -0.4474
 4565TIP3   OH235109   5.734   2.734  11.323 -0.0688 -0.0177 -0.3248
 4565TIP3    H135110   5.735   2.805  11.259  0.6738  1.0672  0.8590
 4565TIP3    H235111   5.808   2.679  11.298  0.6957  0.8238  0.0341
 4566TIP3   OH235112   0.965   1.161   0.415 -0.0908 -0.0869 -0.3415
 4566TIP3    H135113   1.040   1.196   0.464 -0.5617  0.5624 -0.0701
 4566TIP3    H235114   0.901   1.233   0.414  0.0062  0.0186 -2.1402
 4567TIP3   OH235115   3.431   6.756   3.727  0.3598  0.1064  0.0035
 4567TIP3    H135116   3.378   6.752   3.806  1.3193 -1.1044  0.6277
 4567TIP3    H235117   3.396   6.687   3.671 -0.1260  0.7663 -0.5190
 4568TIP3   OH235118   3.816   0.033   0.295  0.0242 -0.5419  0.7841
 4568TIP3    H135119   3.889   0.061   0.350 -0.6569  0.1689  1.3544
 4568TIP3    H235120   3.739   0.040   0.352 -0.6028 -0.5017 -0.0454
 4569TIP3   OH235121   4.314   2.811   6.703  0.6566 -0.1202 -0.1690
 4569TIP3    H135122   4.261   2.753   6.757  2.2530  0.3145  2.0258
 4569TIP3    H235123   4.404   2.785   6.722  1.4159  2.6548  0.4748
 4570TIP3   OH235124   2.608   2.061   4.383  0.1040 -0.2557  0.8550
 4570TIP3    H135125   2.699   2.040   4.403  0.1115 -0.3473  0.7277
 4570TIP3    H235126   2.588   2.136   4.439  0.3737  0.0028  0.6116
 4571TIP3   OH235127   0.454   4.027  14.076  0.0802  0.2434  0.4967
 4571TIP3    H135128   0.454   3.931  14.079  0.4161  0.2626  2.5432
 4571TIP3    H235129   0.543   4.050  14.048 -0.4413  0.0040 -1.5699
 4572TIP3   OH235130   4.123   4.665  13.546  0.0875 -0.3293  0.0660
 4572TIP3    H135131   4.184   4.722  13.500 -0.6255  0.5986  0.2404
 4572TIP3    H235132   4.066   4.630  13.477 -0.0270 -0.1352  0.0612
 4573TIP3   OH235133   2.374   4.017   5.951 -0.1712 -0.1191  0.6003
 4573TIP3    H135134   2.295   3.974   5.983 -0.0591 -0.5592  0.2849
 4573TIP3    H235135   2.436   4.013   6.025 -0.0437 -0.7959  0.4587
 4574TIP3   OH235136   4.916   5.384  16.316 -0.3244 -0.1040  0.1172
 4574TIP3    H135137   5.006   5.416  16.321 -0.8592  1.5908 -0.4430
 4574TIP3    H235138   4.891   5.370  16.407 -0.0625  1.1687  0.4097
 4575TIP3   OH235139   1.351   3.463  12.056  0.0077  0.3311 -0.0819
 4575TIP3    H135140   1.258   3.467  12.031  0.1977 -0.8704 -1.0258
 4575TIP3    H235141   1.361   3.535  12.119 -2.2184 -1.1353  2.1853
 4576TIP3   OH235142   2.730   5.634  11.660  0.1067  0.4018 -0.2353
 4576TIP3    H135143   2.710   5.658  11.750  0.6355  1.2757 -0.3343
 4576TIP3    H235144   2.733   5.539  11.660 -1.1183  0.3461  0.3923
 4577TIP3   OH235145   1.393   1.466   0.816  0.0483  0.0614  0.3289
 4577TIP3    H135146   1.463   1.492   0.757  0.8691 -1.1937  0.7022
 4577TIP3    H235147   1.327   1.535   0.807 -0.1636 -0.3926 -2.5352
 4578TIP3   OH235148   3.771   6.171  12.381  0.7065  0.4960  0.2376
 4578TIP3    H135149   3.735   6.114  12.449 -0.8122 -0.2525 -1.1219
 4578TIP3    H235150   3.695   6.215  12.343  1.2710 -0.3473 -2.0282
 4579TIP3   OH235151   0.837   6.048   1.244  0.1106  0.7297 -0.2163
 4579TIP3    H135152   0.811   6.012   1.329 -1.3077 -0.9092 -1.2664
 4579TIP3    H235153   0.766   6.107   1.220  0.1951  0.7170 -0.5083
 4580TIP3   OH235154   3.033   1.140  10.536 -0.0727 -0.0700 -0.0608
 4580TIP3    H135155   3.014   1.227  10.571 -2.8256 -1.0166  1.0493
 4580TIP3    H235156   2.970   1.128  10.465 -1.2115 -1.8751  1.1633
 4581TIP3   OH235157   1.652   6.293  17.042 -0.6721  0.4218 -0.4497
 4581TIP3    H135158   1.573   6.248  17.013 -0.7045 -0.3260  0.7149
 4581TIP3    H235159   1.620   6.367  17.093 -0.6207  0.8867 -1.0930
 4582TIP3   OH235160   1.793   6.348   4.685 -0.1009 -0.3613  0.4910
 4582TIP3    H135161   1.719   6.409   4.677  0.4649  0.3243  0.3821
 4582TIP3    H235162   1.861   6.386   4.628  1.0428  0.0847  2.0892
 4583TIP3   OH235163   5.780   1.638   0.780  0.5522 -0.7879 -0.1432
 4583TIP3    H135164   5.833   1.560   0.764  1.7779  0.4036 -2.4382
 4583TIP3    H235165   5.720   1.641   0.705  1.4929  1.1539 -0.8980
 4584TIP3   OH235166   5.460   5.275   1.834 -0.0819  0.5832  0.6305
 4584TIP3    H135167   5.536   5.235   1.877  1.6025 -0.2441 -2.7729
 4584TIP3    H235168   5.485   5.367   1.821  0.7898  0.1504 -1.1462
 4585TIP3   OH235169   1.095   1.798  10.848 -0.1066 -0.9333  0.1694
 4585TIP3    H135170   1.153   1.721  10.852  1.6328  0.1256 -2.2900
 4585TIP3    H235171   1.108   1.842  10.932  0.5434 -2.1598  0.7435
 4586TIP3   OH235172   0.445   6.454  11.365 -0.3174  0.1561 -0.3473
 4586TIP3    H135173   0.351   6.469  11.375 -0.5966 -2.4065  2.5261
 4586TIP3    H235174   0.487   6.524  11.415 -0.8346  0.1826  0.0570
 4587TIP3   OH235175   5.903   5.191   4.925 -0.6376  0.3834  0.1374
 4587TIP3    H135176   5.911   5.143   5.007  1.8923 -2.7545 -1.7184
 4587TIP3    H235177   5.814   5.175   4.895 -0.8784 -0.3014  1.1982
 4588TIP3   OH235178   2.835   0.999  11.734  0.1867  0.0011 -0.3311
 4588TIP3    H135179   2.792   1.084  11.740 -0.2558 -0.1793 -0.8312
 4588TIP3    H235180   2.928   1.018  11.742  0.3019  0.8388 -2.7211
 4589TIP3   OH235181   4.181   6.659  12.106  0.0416  0.1390  0.6673
 4589TIP3    H135182   4.152   6.569  12.117 -3.9174  1.1513 -0.0722
 4589TIP3    H235183   4.211   6.663  12.015  0.3705 -0.4443  0.7453
 4590TIP3   OH235184   2.649   4.110  16.434 -0.2863  0.4605  0.2384
 4590TIP3    H135185   2.689   4.126  16.348 -1.2377  1.0784 -0.1120
 4590TIP3    H235186   2.693   4.171  16.492  1.5185 -1.0819  0.5732
 4591TIP3   OH235187   6.335   2.178  14.642  0.5721 -0.1506  0.1999
 4591TIP3    H135188   6.253   2.223  14.663  1.9816  2.4327  0.5311
 4591TIP3    H235189   6.328   2.094  14.688 -1.8496 -0.0280  0.2201
 4592TIP3   OH235190   5.856   3.234   4.743 -0.1144  0.1579 -0.0344
 4592TIP3    H135191   5.804   3.156   4.761 -0.2358  0.6898  2.2561
 4592TIP3    H235192   5.825   3.299   4.807  2.0301  1.1124  0.1219
 4593TIP3   OH235193   6.417   3.186  10.526 -0.0179 -0.3917  0.2036
 4593TIP3    H135194   6.324   3.180  10.549 -0.0392  0.4257  0.3635
 4593TIP3    H235195   6.453   3.250  10.588  0.4712 -0.0943 -0.3725
 4594TIP3   OH235196   1.597   0.028   1.512  0.7935  0.5127 -0.5620
 4594TIP3    H135197   1.558   0.116   1.514 -1.7351 -0.5214 -0.2910
 4594TIP3    H235198   1.621   0.010   1.603 -1.1278 -0.0103 -0.1048
 4595TIP3   OH235199   3.009   1.911   0.510 -0.4921  0.1867  0.5702
 4595TIP3    H135200   3.020   1.835   0.453 -0.9568  2.2529 -2.5030
 4595TIP3    H235201   2.920   1.902   0.544 -2.2959  1.3215 -3.2493
 4596TIP3   OH235202   0.153   0.157  16.959 -0.3276 -0.5300 -0.2217
 4596TIP3    H135203   0.172   0.081  16.905 -3.0437 -0.8828 -0.8643
 4596TIP3    H235204   0.194   0.231  16.914  1.6324 -1.4601 -0.0340
 4597TIP3   OH235205   5.064   3.822  11.178 -0.2323 -0.3695  0.7984
 4597TIP3    H135206   5.094   3.750  11.121 -1.1836  0.2662 -0.5705
 4597TIP3    H235207   5.125   3.893  11.159  0.0608 -0.4684  1.3549
 4598TIP3   OH235208   1.134   0.664  11.822 -0.4532 -0.2236 -0.6994
 4598TIP3    H135209   1.076   0.740  11.817 -0.0374  0.1082 -0.5198
 4598TIP3    H235210   1.173   0.659  11.735  2.0712  1.8154  0.1858
 4599TIP3   OH235211   6.130   4.137  14.468  0.1294  0.1160 -0.2736
 4599TIP3    H135212   6.184   4.212  14.445  0.0036 -0.0262 -1.0576
 4599TIP3    H235213   6.042   4.160  14.436  0.1318 -0.4442 -0.6988
 4600TIP3   OH235214   0.336   3.943   5.489  0.2051 -0.3331 -0.3054
 4600TIP3    H135215   0.423   3.972   5.463  0.5371 -1.5091 -0.5624
 4600TIP3    H235216   0.306   3.888   5.417 -1.8795  2.1278 -1.4825
 4601TIP3   OH235217   4.359   0.595   1.349 -0.1082  0.1633 -0.2154
 4601TIP3    H135218   4.403   0.574   1.267 -0.2079 -1.4336  0.1096
 4601TIP3    H235219   4.395   0.533   1.412 -1.0641  0.4300  0.6194
 4602TIP3   OH235220   0.448   0.790   3.939 -0.1809  0.8360  0.5755
 4602TIP3    H135221   0.372   0.843   3.962  0.4390  1.9625  0.1038
 4602TIP3    H235222   0.517   0.818   4.000  0.3237  0.9960 -0.0611
 4603TIP3   OH235223   4.224   5.094   2.438 -0.1702 -0.4155  0.8591
 4603TIP3    H135224   4.249   5.185   2.455 -0.3714  0.0558 -1.0655
 4603TIP3    H235225   4.189   5.062   2.521 -1.0004  1.5838  1.3273
 4604TIP3   OH235226   3.514   4.330  10.333  0.0461 -0.0057  0.3846
 4604TIP3    H135227   3.441   4.355  10.390  1.0570 -0.9655  2.1640
 4604TIP3    H235228   3.586   4.388  10.359  0.1763  0.3963 -0.8068
 4605TIP3   OH235229   0.578   3.406   2.379 -0.4127  0.2904 -0.3100
 4605TIP3    H135230   0.666   3.368   2.386  0.0765  1.5276  0.8126
 4605TIP3    H235231   0.552   3.391   2.289  1.2750  0.5473 -0.8785
 4606TIP3   OH235232   1.312   1.717  10.637  0.2127 -0.0528 -0.2761
 4606TIP3    H135233   1.293   1.641  10.692 -1.5757  1.3074  1.1200
 4606TIP3    H235234   1.298   1.685  10.547 -1.8074 -1.0740  0.3320
 4607TIP3   OH235235   0.551   4.097   1.921  0.0627 -0.2344 -0.1092
 4607TIP3    H135236   0.545   4.186   1.954  0.6290 -0.4019  0.4790
 4607TIP3    H235237   0.461   4.066   1.916 -0.2092  0.6830 -1.2113
 4608TIP3   OH235238   0.619   3.805  16.986 -0.3944  0.3705 -0.0215
 4608TIP3    H135239   0.581   3.832  17.070 -0.4125  0.5082 -0.0738
 4608TIP3    H235240   0.650   3.716  17.001 -0.1200  0.5055  0.2194
 4609TIP3   OH235241   5.429   6.210  10.478 -0.0746 -0.0648 -0.0897
 4609TIP3    H135242   5.519   6.221  10.447 -0.3369  0.2172 -0.7552
 4609TIP3    H235243   5.434   6.136  10.539  0.4318 -0.6637 -0.8441
 4610TIP3   OH235244   0.895   6.542   1.336 -0.0100  0.0962 -0.1215
 4610TIP3    H135245   0.967   6.499   1.382 -0.0289  0.1461 -0.0455
 4610TIP3    H235246   0.825   6.476   1.334 -0.6049  0.6456  1.3672
 4611TIP3   OH235247   0.253   4.505   5.490 -0.2300 -0.3799 -0.3136
 4611TIP3    H135248   0.168   4.468   5.512 -0.2627 -0.7044 -0.9496
 4611TIP3    H235249   0.303   4.431   5.456 -0.1485  0.0554 -1.1856
 4612TIP3   OH235250   0.005   5.690  12.261  0.0039 -0.1272  0.1486
 4612TIP3    H135251   0.097   5.716  12.258  0.3907 -1.2338  1.3249
 4612TIP3    H235252  -0.043   5.769  12.238  1.1556  1.2049  2.0459
 4613TIP3   OH235253   3.040   4.363   2.123  0.5374  0.4326  0.0979
 4613TIP3    H135254   3.093   4.442   2.131  0.5707  0.5802 -1.3771
 4613TIP3    H235255   2.998   4.371   2.037 -0.1741 -0.7177  0.3213
 4614TIP3   OH235256   2.492   3.833   2.535  0.1893 -0.1558 -0.2371
 4614TIP3    H135257   2.535   3.774   2.474  0.7607  0.1620 -0.1535
 4614TIP3    H235258   2.540   3.822   2.618 -0.7124 -0.7369  0.2112
 4615TIP3   OH235259   4.767   2.677  12.580  0.3169  0.1067 -0.0229
 4615TIP3    H135260   4.690   2.710  12.627 -0.2697 -0.0540 -0.8527
 4615TIP3    H235261   4.754   2.582  12.579  0.6713  0.0560  0.0670
 4616TIP3   OH235262   3.708   1.714   3.979 -0.2222  0.1987  0.0870
 4616TIP3    H135263   3.771   1.786   3.983  1.2355 -1.0280  0.2187
 4616TIP3    H235264   3.692   1.690   4.070 -0.1617 -0.0931  0.0230
 4617TIP3   OH235265   3.452   2.096  13.767  0.4059 -0.2073  0.1688
 4617TIP3    H135266   3.428   2.023  13.710  1.5877 -0.9790  0.6317
 4617TIP3    H235267   3.468   2.056  13.852 -0.0708  0.7593  0.7214
 4618TIP3   OH235268   2.798   5.123   6.300  0.1843  0.2372 -0.0208
 4618TIP3    H135269   2.737   5.067   6.252  0.0013  1.5344 -1.3743
 4618TIP3    H235270   2.853   5.062   6.349  0.7112 -1.2205 -2.2724
 4619TIP3   OH235271   1.088   6.645  16.632  0.1566 -0.0238  0.1155
 4619TIP3    H135272   1.154   6.674  16.696  0.2831  1.5122 -0.6627
 4619TIP3    H235273   1.129   6.662  16.547 -0.6963 -0.3972 -0.3758
 4620TIP3   OH235274   1.358   1.875  14.742 -0.6942  0.1191 -0.1406
 4620TIP3    H135275   1.325   1.806  14.685 -2.8530  0.5759  0.4655
 4620TIP3    H235276   1.394   1.941  14.682 -0.9929 -0.3666 -0.8620
 4621TIP3   OH235277   2.959   1.698  13.622 -0.0900 -0.5044  0.3427
 4621TIP3    H135278   2.932   1.779  13.580  0.5375 -0.3228  0.2843
 4621TIP3    H235279   3.054   1.705  13.630 -0.0677 -1.0806  0.6536
 4622TIP3   OH235280   4.621   6.317  17.140  0.7140  0.0987  0.0351
 4622TIP3    H135281   4.663   6.338  17.057 -0.9383 -0.1840 -0.9124
 4622TIP3    H235282   4.625   6.399  17.190  1.2291  0.4357 -0.5423
 4623TIP3   OH235283   5.570   3.631   3.498 -0.1832  0.3594  0.1425
 4623TIP3    H135284   5.523   3.704   3.538 -1.9497 -0.7696  0.2691
 4623TIP3    H235285   5.616   3.590   3.571  1.5329  1.7972 -0.0731
 4624TIP3   OH235286   1.122   3.764   4.203 -0.2544 -0.5059  0.0596
 4624TIP3    H135287   1.198   3.712   4.227  0.6098  1.6892  2.6579
 4624TIP3    H235288   1.135   3.786   4.111  2.6063  0.2366  0.5564
 4625TIP3   OH235289   1.584   4.811  14.639  0.3662 -0.2783  0.0068
 4625TIP3    H135290   1.600   4.887  14.583  0.6772 -0.5035 -0.2160
 4625TIP3    H235291   1.622   4.738  14.590 -1.7467 -0.9235 -0.7539
 4626TIP3   OH235292   1.800   5.822  12.327 -0.8365  0.6427 -0.3395
 4626TIP3    H135293   1.789   5.769  12.248 -1.5662  0.3147 -0.0274
 4626TIP3    H235294   1.743   5.898  12.313  1.4254  2.2121 -1.4972
 4627TIP3   OH235295   6.004   3.032  15.290  0.4035  0.0187  0.4179
 4627TIP3    H135296   5.995   3.109  15.347  3.2896 -0.0413  1.1442
 4627TIP3    H235297   6.064   2.975  15.338  0.4439 -1.4658 -1.3089
 4628TIP3   OH235298   1.931   2.862   3.527  0.2432 -0.9261 -0.6219
 4628TIP3    H135299   1.919   2.770   3.502 -0.6461 -0.7303 -0.9672
 4628TIP3    H235300   2.022   2.882   3.503  0.5772 -1.8302 -0.1404
 4629TIP3   OH235301   2.100   4.078  10.793  0.4544 -0.0997  0.1517
 4629TIP3    H135302   2.034   4.129  10.840 -1.2543  1.1524 -3.2424
 4629TIP3    H235303   2.163   4.143  10.762 -1.0258 -0.0229 -3.0914
 4630TIP3   OH235304   4.693   0.774   3.770  0.3437 -0.1055 -0.3293
 4630TIP3    H135305   4.756   0.844   3.788 -0.2231  0.0244  1.4214
 4630TIP3    H235306   4.610   0.820   3.756  0.3537 -0.3453 -1.2361
 4631TIP3   OH235307   4.921   5.134  15.897 -0.4328  0.2111  0.1007
 4631TIP3    H135308   4.876   5.188  15.962 -0.3260  0.6810 -0.2057
 4631TIP3    H235309   5.014   5.142  15.920 -0.5819 -2.3317  1.9343
 4632TIP3   OH235310   6.098   0.413  16.740  0.1136 -1.1200  0.0335
 4632TIP3    H135311   6.118   0.417  16.834 -0.8699 -1.0019  0.2425
 4632TIP3    H235312   6.079   0.321  16.723 -1.9895 -0.8060  0.4541
 4633TIP3   OH235313   1.745   4.809  12.670 -0.0372 -0.1539  0.3025
 4633TIP3    H135314   1.723   4.726  12.713 -0.0173 -1.0165 -1.2790
 4633TIP3    H235315   1.800   4.855  12.734 -3.2622  0.4620  2.8745
 4634TIP3   OH235316   3.185   5.788  12.966 -0.0737 -0.5094  0.0416
 4634TIP3    H135317   3.277   5.802  12.990 -0.6840  2.1885  1.1430
 4634TIP3    H235318   3.172   5.693  12.977  2.4703 -0.9179  0.1353
 4635TIP3   OH235319   1.746   4.225   1.924 -0.1844 -0.1671 -0.2803
 4635TIP3    H135320   1.759   4.131   1.937  0.7482  0.3153  3.2925
 4635TIP3    H235321   1.825   4.253   1.878  0.8089 -0.8086  0.9375
 4636TIP3   OH235322   0.128   2.051   1.220 -0.5875  0.1135  0.4127
 4636TIP3    H135323   0.100   2.136   1.187  0.7414  0.3741 -0.1021
 4636TIP3    H235324   0.198   2.071   1.282 -0.4326 -0.5995  0.4820
 4637TIP3   OH235325   4.760   6.580   5.314 -0.3022 -0.1485 -0.0174
 4637TIP3    H135326   4.673   6.548   5.333 -0.4699  1.0803  1.4814
 4637TIP3    H235327   4.818   6.528   5.369 -0.3227  0.4493  0.5783
 4638TIP3   OH235328   5.464   5.454   2.394  0.2473  0.3056  0.1981
 4638TIP3    H135329   5.535   5.491   2.447  0.8071 -1.4875  0.7729
 4638TIP3    H235330   5.448   5.520   2.327 -0.8086  2.9168  2.7954
 4639TIP3   OH235331   3.542   3.717   5.705 -0.1543  0.0021 -0.1492
 4639TIP3    H135332   3.538   3.731   5.610 -0.2864  1.0428  0.0063
 4639TIP3    H235333   3.634   3.694   5.721  0.8033  3.3602 -0.1019
 4640TIP3   OH235334   6.164   2.406   5.874 -0.3901 -0.0358 -0.4913
 4640TIP3    H135335   6.103   2.381   5.944  0.5940  0.3870  0.5395
 4640TIP3    H235336   6.191   2.495   5.896  3.6261 -1.5029  1.3499
 4641TIP3   OH235337   5.833   5.164   0.971 -0.2924  0.5352 -0.1600
 4641TIP3    H135338   5.889   5.240   0.990  0.7149 -0.0128 -0.8217
 4641TIP3    H235339   5.812   5.173   0.878  1.3948 -0.9431 -0.7413
 4642TIP3   OH235340   1.667   3.455   1.162 -0.2647  0.3950  0.0132
 4642TIP3    H135341   1.622   3.400   1.098  0.3329 -0.1318  0.0343
 4642TIP3    H235342   1.630   3.542   1.149 -0.5686  0.1715 -0.6512
 4643TIP3   OH235343   3.679   0.412  11.288 -0.4298 -0.7120 -0.4658
 4643TIP3    H135344   3.727   0.330  11.288 -0.6705 -1.0859  3.5343
 4643TIP3    H235345   3.745   0.479  11.303 -0.5982 -0.6275 -0.0836
 4644TIP3   OH235346   5.519   2.891  16.526  0.2076  0.0892  0.0666
 4644TIP3    H135347   5.543   2.906  16.618  1.4322  1.3069 -0.4057
 4644TIP3    H235348   5.454   2.821  16.529  1.9128 -1.5444  1.6955
 4645TIP3   OH235349   1.872   0.805   6.484 -0.2940  0.2694 -0.4889
 4645TIP3    H135350   1.869   0.865   6.410  0.4400  0.6049 -0.2604
 4645TIP3    H235351   1.937   0.740   6.459 -0.5105  0.0197 -0.4041
 4646TIP3   OH235352   6.705   4.346  16.242 -0.1430  0.1858  0.0823
 4646TIP3    H135353   6.677   4.256  16.261 -0.5884  0.3442  0.1845
 4646TIP3    H235354   6.715   4.348  16.147  3.4317 -1.0041  0.2805
 4647TIP3   OH235355   2.843   4.902  12.319 -0.2688 -0.1657  0.4799
 4647TIP3    H135356   2.751   4.928  12.313 -0.2338  0.0581  0.8922
 4647TIP3    H235357   2.869   4.927  12.408 -0.4927 -2.4250  1.2415
 4648TIP3   OH235358   3.468   6.267   2.406 -0.0247 -0.1646  0.5681
 4648TIP3    H135359   3.373   6.281   2.409 -0.1248 -0.4929 -0.5220
 4648TIP3    H235360   3.505   6.355   2.396 -0.3791 -0.1782 -1.3932
 4649TIP3   OH235361   3.557   0.879   1.845  0.5229 -0.3885  0.2294
 4649TIP3    H135362   3.617   0.816   1.886  2.2147  0.4011 -0.8893
 4649TIP3    H235363   3.598   0.898   1.760 -0.7283  1.0868 -0.0789
 4650TIP3   OH235364   6.421   0.337  16.696 -0.5872 -0.2197 -0.7024
 4650TIP3    H135365   6.509   0.313  16.726 -0.5964 -0.7408 -1.0757
 4650TIP3    H235366   6.369   0.258  16.711 -0.6977 -0.3412 -1.6567
 4651TIP3   OH235367   1.294   1.877  11.583  0.6008  0.5831  0.3719
 4651TIP3    H135368   1.256   1.965  11.589 -2.7116 -0.6455 -0.3495
 4651TIP3    H235369   1.284   1.853  11.490  0.4243 -0.9136  0.7491
 4652TIP3   OH235370   2.718   1.394   5.464 -0.6600  0.8911 -0.5747
 4652TIP3    H135371   2.628   1.360   5.469 -1.6718  3.1450 -2.0226
 4652TIP3    H235372   2.739   1.418   5.554 -1.6312  0.6345 -0.2615
 4653TIP3   OH235373   6.060   0.839  14.490 -0.4994 -0.0924  0.7248
 4653TIP3    H135374   6.041   0.749  14.463  0.1886 -0.3949  1.2281
 4653TIP3    H235375   6.139   0.863  14.442 -1.1041  0.5302  0.0055
 4654TIP3   OH235376   5.058   2.301  15.266 -0.1851 -0.5554  0.2972
 4654TIP3    H135377   5.039   2.214  15.300 -0.0381 -0.3014  1.0771
 4654TIP3    H235378   4.973   2.340  15.247 -0.3071 -0.5157  0.8968
 4655TIP3   OH235379   2.181   1.944   1.161  0.2426  0.0742 -0.5366
 4655TIP3    H135380   2.269   1.963   1.194 -0.3088 -1.0445  1.8185
 4655TIP3    H235381   2.182   1.850   1.143  0.3978  0.5542 -3.6429
 4656TIP3   OH235382   5.735   3.221  12.276 -0.2008  0.3508  0.1743
 4656TIP3    H135383   5.670   3.173  12.225  0.1700 -0.3865  0.3874
 4656TIP3    H235384   5.711   3.313  12.265 -2.1778  0.0529  1.4322
 4657TIP3   OH235385   4.016   4.400  15.139 -0.4010  0.4271 -0.2370
 4657TIP3    H135386   4.099   4.440  15.165 -0.3942  0.1595  0.1685
 4657TIP3    H235387   4.009   4.418  15.045  0.0947  0.4871 -0.2672
 4658TIP3   OH235388   3.358   4.864  15.290  0.2585  0.5840 -0.4695
 4658TIP3    H135389   3.340   4.843  15.199  0.3485 -0.4268 -0.2634
 4658TIP3    H235390   3.451   4.884  15.292  0.2286  0.7431 -0.6193
 4659TIP3   OH235391   5.617   5.692  15.178 -0.0515  0.3168 -0.0740
 4659TIP3    H135392   5.609   5.735  15.263  0.6222  1.8649 -0.7548
 4659TIP3    H235393   5.650   5.760  15.119  2.5210 -1.4816 -0.9137
 4660TIP3   OH235394   3.983   0.733   5.135  0.2951  0.0463  0.1112
 4660TIP3    H135395   3.985   0.829   5.134 -0.7458  0.1610  2.1699
 4660TIP3    H235396   3.890   0.712   5.149  0.2821 -1.3399 -1.7064
 4661TIP3   OH235397   5.955   5.900  13.551  0.6340 -0.2609 -0.1887
 4661TIP3    H135398   6.009   5.836  13.598  1.2926 -1.2009 -2.1301
 4661TIP3    H235399   6.018   5.966  13.521  0.0712  0.9186  1.0876
 4662TIP3   OH235400   3.466   4.705   4.729  0.1519 -0.2682  0.6253
 4662TIP3    H135401   3.554   4.668   4.729  0.9966  1.6096 -0.6780
 4662TIP3    H235402   3.451   4.731   4.638 -1.3866  0.2969  1.0082
 4663TIP3   OH235403   2.783   1.899  13.495  0.3916 -0.2699  0.2072
 4663TIP3    H135404   2.780   1.923  13.588 -0.7589  2.1791 -0.3873
 4663TIP3    H235405   2.723   1.825  13.488 -0.3231  0.1802  1.2688
 4664TIP3   OH235406   1.432   2.316   1.282 -0.0105  0.3740 -0.6053
 4664TIP3    H135407   1.375   2.333   1.357 -1.7357 -1.7066 -1.3226
 4664TIP3    H235408   1.404   2.379   1.216  0.5619  1.2864 -0.0038
 4665TIP3   OH235409   6.666   1.794  16.066 -0.8412  0.2064 -0.2074
 4665TIP3    H135410   6.601   1.851  16.107  0.3832  0.6630  1.1686
 4665TIP3    H235411   6.619   1.713  16.047 -1.9036  0.6670  0.3974
 4666TIP3   OH235412   6.200   5.106  13.113 -0.0639  0.1291 -0.2262
 4666TIP3    H135413   6.202   5.122  13.018  1.9251  1.0998 -0.0620
 4666TIP3    H235414   6.265   5.165  13.149 -0.0421 -0.9611  1.6585
 4667TIP3   OH235415   1.483   5.077   1.323  0.6112  0.1374 -1.2597
 4667TIP3    H135416   1.467   5.081   1.417 -1.2012  1.9324 -1.5778
 4667TIP3    H235417   1.567   5.031   1.315  0.3591 -0.9088  1.1517
 4668TIP3   OH235418   0.807   4.834   5.303 -0.2146  0.8279  0.4400
 4668TIP3    H135419   0.836   4.744   5.318  2.9573  1.9055  1.7726
 4668TIP3    H235420   0.731   4.826   5.246  0.4771 -2.6301 -0.2180
 4669TIP3   OH235421   2.956   3.730  16.730 -0.3660 -0.3941  0.1380
 4669TIP3    H135422   3.012   3.734  16.653  1.6290 -2.4735  1.3684
 4669TIP3    H235423   2.988   3.800  16.787 -1.3106  0.6173 -0.5413
 4670TIP3   OH235424   6.114   4.684  11.814  0.0617 -0.0391  0.4308
 4670TIP3    H135425   6.106   4.597  11.855 -2.1581 -0.1423 -0.1140
 4670TIP3    H235426   6.139   4.742  11.886 -2.0407 -0.5286  1.6319
 4671TIP3   OH235427   5.216   5.845  14.650  0.5100 -0.8114  0.2196
 4671TIP3    H135428   5.210   5.762  14.603  1.1004 -0.2311 -0.9167
 4671TIP3    H235429   5.295   5.886  14.616  0.9516 -0.3602  1.7337
 4672TIP3   OH235430   3.955   2.598  12.650 -0.3971 -0.4010 -0.2479
 4672TIP3    H135431   3.982   2.615  12.560  0.0238  1.2599  0.1713
 4672TIP3    H235432   3.973   2.505  12.663  2.3226 -0.0367 -0.9471
 4673TIP3   OH235433   4.634   2.037   0.583  0.2447 -0.2595  0.0247
 4673TIP3    H135434   4.611   2.005   0.495  1.2782 -0.9122 -0.0278
 4673TIP3    H235435   4.716   2.085   0.570  1.0462 -1.3677  0.7964
 4674TIP3   OH235436   3.361   4.100  11.664 -0.1035  0.0162 -0.4497
 4674TIP3    H135437   3.314   4.138  11.739  2.2505 -0.9985  1.6944
 4674TIP3    H235438   3.425   4.167  11.639 -0.4704  0.1066 -1.1744
 4675TIP3   OH235439   6.562   0.935  15.788 -0.2556  0.4935  0.0177
 4675TIP3    H135440   6.623   0.861  15.797 -0.0447  0.6255 -0.3023
 4675TIP3    H235441   6.509   0.932  15.868  1.8731  1.9370  1.5777
 4676TIP3   OH235442   2.346   0.893   0.930 -0.1956  0.4454  0.3614
 4676TIP3    H135443   2.282   0.867   0.996 -0.2702 -0.9064 -0.2129
 4676TIP3    H235444   2.296   0.895   0.848  0.6190 -1.5013 -0.2504
 4677TIP3   OH235445   3.208   6.054  13.359  0.2305  0.2977 -0.0944
 4677TIP3    H135446   3.188   5.962  13.342 -0.0044  0.3390 -0.0461
 4677TIP3    H235447   3.223   6.058  13.454  0.5122  0.2590 -0.1369
 4678TIP3   OH235448   6.524   1.674  11.705 -0.1525 -0.2401  0.0261
 4678TIP3    H135449   6.455   1.734  11.678  0.4808  1.3304  1.6749
 4678TIP3    H235450   6.586   1.729  11.753  1.7549 -1.7689 -0.5292
 4679TIP3   OH235451   0.766   2.183  14.527 -0.3167 -0.5928 -0.3710
 4679TIP3    H135452   0.693   2.215  14.580  1.0961  0.2861  1.1670
 4679TIP3    H235453   0.746   2.091  14.511 -2.3803 -0.0613 -1.1607
 4680TIP3   OH235454   5.392   1.326   0.203  0.7920 -0.3429  0.3482
 4680TIP3    H135455   5.387   1.339   0.297  0.1866 -0.5110  0.3427
 4680TIP3    H235456   5.402   1.415   0.167 -0.6020 -0.1221  0.4788
 4681TIP3   OH235457   4.602   2.065   4.838  0.4679 -0.0556 -0.5583
 4681TIP3    H135458   4.631   2.138   4.784  2.1602  0.2657  0.7023
 4681TIP3    H235459   4.633   2.086   4.926 -1.1416 -1.1395  0.3182
 4682TIP3   OH235460   1.570   1.111  11.285 -0.4389  0.1515  0.3015
 4682TIP3    H135461   1.582   1.033  11.339 -1.4703  0.5871  1.2020
 4682TIP3    H235462   1.475   1.124  11.282 -0.3196  0.9636 -0.4327
 4683TIP3   OH235463   5.668   6.574  14.072  0.0426  0.0095  0.0461
 4683TIP3    H135464   5.614   6.646  14.039  1.4104  0.5438 -1.1354
 4683TIP3    H235465   5.700   6.530  13.993 -0.6753 -1.8616  0.7499
 4684TIP3   OH235466   1.981   0.742   5.225  0.5262  0.1750 -0.2418
 4684TIP3    H135467   2.004   0.665   5.277  2.6552  0.1107 -1.1812
 4684TIP3    H235468   2.013   0.816   5.277 -1.1907  0.4497  0.4881
 4685TIP3   OH235469   4.390   2.328   5.384  0.6315 -0.1929  0.0016
 4685TIP3    H135470   4.414   2.411   5.342 -2.3841  0.3308 -0.9060
 4685TIP3    H235471   4.428   2.261   5.328 -0.1106  0.5646 -1.4668
 4686TIP3   OH235472   6.459   1.211  10.676  0.5743  0.0545 -0.9025
 4686TIP3    H135473   6.373   1.175  10.654  0.0212 -0.6939  2.0038
 4686TIP3    H235474   6.440   1.299  10.708  0.7864 -0.2440  0.0967
 4687TIP3   OH235475   4.740   3.701  12.781 -0.0193  0.1559 -0.1776
 4687TIP3    H135476   4.675   3.630  12.790  0.3420 -0.1230  0.2937
 4687TIP3    H235477   4.748   3.736  12.870  0.4772  0.1895 -0.2375
 4688TIP3   OH235478   1.739   2.045  16.945 -0.0391 -0.2256 -0.2816
 4688TIP3    H135479   1.753   2.030  16.852 -1.6154 -2.2965 -0.2432
 4688TIP3    H235480   1.736   1.958  16.984  0.6041  0.5824  1.7501
 4689TIP3   OH235481   4.280   3.078  14.392 -0.2922  0.5863 -0.2172
 4689TIP3    H135482   4.314   3.144  14.453  0.0234 -0.3385  0.6412
 4689TIP3    H235483   4.330   3.092  14.312  1.1758  0.1540  0.5853
 4690TIP3   OH235484   6.068   1.006  15.458 -0.8848 -0.5750 -0.4745
 4690TIP3    H135485   6.086   1.085  15.509 -1.9310 -0.6754  0.0761
 4690TIP3    H235486   6.084   0.934  15.519 -1.4825 -0.7226 -0.4894
 4691TIP3   OH235487   0.459   3.974   1.089  0.3146 -0.5754  0.2302
 4691TIP3    H135488   0.426   3.884   1.090 -2.0031  0.1438 -2.1050
 4691TIP3    H235489   0.538   3.969   1.035  0.4448 -1.2644  0.4701
 4692TIP3   OH235490   2.020   4.658  14.490  0.1484 -0.4558 -0.2554
 4692TIP3    H135491   1.992   4.614  14.410 -0.6007  0.5232 -0.5415
 4692TIP3    H235492   2.040   4.586  14.551 -1.0528 -1.1964 -0.7080
 4693TIP3   OH235493   3.112   2.491  13.086 -0.0708  0.3824 -0.0438
 4693TIP3    H135494   3.123   2.556  13.155 -1.3126 -0.0311  0.5681
 4693TIP3    H235495   3.023   2.503  13.054 -0.3381 -1.0063  0.0874
 4694TIP3   OH235496   5.627   1.336   1.314 -0.2642  0.1239  0.6215
 4694TIP3    H135497   5.597   1.246   1.301 -0.9030  0.3558  0.4386
 4694TIP3    H235498   5.639   1.371   1.226  1.0429 -0.1123  0.6855
 4695TIP3   OH235499   5.948   5.575   0.723 -0.3126 -0.1785  0.1426
 4695TIP3    H135500   5.936   5.545   0.633 -0.6936 -0.1462  0.1834
 4695TIP3    H235501   5.866   5.553   0.767 -0.4765  0.6431  0.2553
 4696TIP3   OH235502   3.022   3.044  13.543 -0.1308  0.0079  0.2594
 4696TIP3    H135503   2.968   3.048  13.622  0.0530  1.2362  0.3464
 4696TIP3    H235504   2.965   3.003  13.478 -0.0757 -1.6001  1.1660
 4697TIP3   OH235505   6.370   6.678   1.966 -0.1807  0.2870  0.2247
 4697TIP3    H135506   6.397   6.755   2.016  0.8137  1.3456 -1.7917
 4697TIP3    H235507   6.393   6.700   1.875 -1.2230 -1.8113 -0.6046
 4698TIP3   OH235508   4.931   2.610   2.344  0.0759 -0.2410  0.1354
 4698TIP3    H135509   5.023   2.602   2.369  0.9659 -0.7401 -2.8373
 4698TIP3    H235510   4.922   2.701   2.315 -0.2154 -0.3434 -0.1023
 4699TIP3   OH235511   6.657   4.478   4.986  0.2470  0.2293 -0.4685
 4699TIP3    H135512   6.750   4.467   4.966  0.4533  0.6276  0.2474
 4699TIP3    H235513   6.620   4.390   4.978  0.4488  0.2567 -1.9040
 4700TIP3   OH235514   2.454   2.206  11.569  0.6288  0.7605 -0.1782
 4700TIP3    H135515   2.371   2.249  11.548  0.1432  0.1034  0.3568
 4700TIP3    H235516   2.429   2.117  11.596  1.5275  0.4699 -0.2653
 4701TIP3   OH235517   2.561   2.235   0.012 -0.1918 -0.3562 -0.5273
 4701TIP3    H135518   2.541   2.212   0.102  2.9569 -3.0752 -0.3544
 4701TIP3    H235519   2.575   2.330   0.014  0.4882 -0.4531  2.0143
 4702TIP3   OH235520   0.922   0.909  12.314 -0.5317  0.2513  0.0629
 4702TIP3    H135521   0.921   0.997  12.277  0.5690  1.6689  3.0620
 4702TIP3    H235522   0.996   0.866  12.272 -0.7618  0.9041 -1.0615
 4703TIP3   OH235523   0.138   1.144   0.320 -0.2885 -0.2794  0.4247
 4703TIP3    H135524   0.199   1.207   0.280  0.9976 -0.1763  2.4568
 4703TIP3    H235525   0.133   1.073   0.256  0.5074  0.5459 -0.6072
 4704TIP3   OH235526   4.553   2.835   5.834  0.0187 -0.1128 -0.2320
 4704TIP3    H135527   4.577   2.749   5.801 -0.9870 -0.5237  0.0739
 4704TIP3    H235528   4.631   2.889   5.820  0.2552 -0.7592 -1.5164
 4705TIP3   OH235529   2.476   3.441   4.976 -0.4058 -0.1815 -0.7374
 4705TIP3    H135530   2.450   3.521   5.022 -2.0886 -0.8376 -0.4598
 4705TIP3    H235531   2.565   3.458   4.946  0.2753  0.7772  1.5995
 4706TIP3   OH235532   1.111   3.627  16.078  0.5703  0.0492 -0.3233
 4706TIP3    H135533   1.135   3.611  16.169  0.4640 -0.3523 -0.3626
 4706TIP3    H235534   1.166   3.567  16.027  0.8358  0.4756 -0.5472
 4707TIP3   OH235535   5.671   3.091  11.848  0.0103 -0.5544 -0.8654
 4707TIP3    H135536   5.741   3.116  11.788  0.0287 -1.5662 -1.2901
 4707TIP3    H235537   5.623   3.023  11.801 -0.4309 -0.8261 -0.0310
 4708TIP3   OH235538   0.394   5.898  12.064  0.0355  0.2257 -0.1969
 4708TIP3    H135539   0.482   5.881  12.099  0.6559 -0.9496 -2.1835
 4708TIP3    H235540   0.335   5.864  12.131  1.0990  0.2256  0.7813
 4709TIP3   OH235541   5.157   2.221   2.570  0.3868 -0.1571 -0.0007
 4709TIP3    H135542   5.237   2.220   2.518  1.4426  1.8057  1.4280
 4709TIP3    H235543   5.174   2.160   2.642  1.4123  1.5795  1.3050
 4710TIP3   OH235544   5.745   2.058  12.948 -0.6301  0.0147 -0.5925
 4710TIP3    H135545   5.736   2.137  12.895 -1.0630  0.8967  0.7477
 4710TIP3    H235546   5.656   2.022  12.951 -1.0354  1.0271  1.0603
 4711TIP3   OH235547   5.628   1.341   4.625  0.1902 -0.4045 -0.1474
 4711TIP3    H135548   5.583   1.313   4.545 -0.5559  0.2038  0.0569
 4711TIP3    H235549   5.642   1.260   4.674  0.3959 -0.7448 -0.7516
 4712TIP3   OH235550   0.552   0.155  15.297 -0.0473 -0.6563  0.4116
 4712TIP3    H135551   0.602   0.236  15.299 -0.8132 -0.1923  1.7279
 4712TIP3    H235552   0.494   0.164  15.222  2.1325 -1.4417 -1.5127
 4713TIP3   OH235553   3.448   3.874  15.654  0.2379  0.1650  0.3935
 4713TIP3    H135554   3.378   3.912  15.708 -0.1218 -0.4521  0.3764
 4713TIP3    H235555   3.421   3.890  15.564 -1.3648 -2.4960  0.2759
 4714TIP3   OH235556   1.185   1.007  11.951  0.1757  0.6255  0.3093
 4714TIP3    H135557   1.097   1.033  11.979  0.5064  1.8114  0.3358
 4714TIP3    H235558   1.180   1.003  11.856 -0.2877 -0.8298  0.3807
 4715TIP3   OH235559   0.368   0.023   4.027  0.0104  0.6903  0.0071
 4715TIP3    H135560   0.411   0.103   3.995  1.5576  0.2624  0.9637
 4715TIP3    H235561   0.374   0.028   4.122  1.1568 -1.0846  0.0773
 4716TIP3   OH235562   5.253   4.888  12.366 -0.3074  0.4403  0.1221
 4716TIP3    H135563   5.334   4.892  12.315 -1.3881  0.0329 -1.7020
 4716TIP3    H235564   5.199   4.823  12.320 -0.8656 -0.9404  2.5374
 4717TIP3   OH235565   1.853   4.266  14.760 -0.1681  0.1438  0.0741
 4717TIP3    H135566   1.902   4.226  14.688  2.7851  0.7225  1.6125
 4717TIP3    H235567   1.880   4.357  14.761 -2.3305  0.8459  0.2414
 4718TIP3   OH235568   6.024   4.255   4.250 -0.3488 -0.2600  0.2194
 4718TIP3    H135569   5.967   4.269   4.174 -0.6798 -2.2328  0.0404
 4718TIP3    H235570   6.113   4.268   4.216 -0.4935 -1.1245 -0.5589
 4719TIP3   OH235571   6.189   2.910  17.040  0.0418 -0.1054  0.1151
 4719TIP3    H135572   6.150   2.975  16.981  1.1947  1.3400  0.8768
 4719TIP3    H235573   6.283   2.922  17.030  0.3042 -2.0512 -0.0980
 4720TIP3   OH235574   0.264   1.974  12.857  0.2090  0.1426  0.1649
 4720TIP3    H135575   0.223   2.060  12.866 -0.4375 -0.3661  2.8498
 4720TIP3    H235576   0.238   1.926  12.935  0.0861 -2.7493 -1.5150
 4721TIP3   OH235577   2.359   2.332  12.096  0.0959  0.1979  0.3619
 4721TIP3    H135578   2.280   2.383  12.114  0.1369  0.5493 -0.4190
 4721TIP3    H235579   2.430   2.396  12.094  0.1551  0.1132 -0.5707
 4722TIP3   OH235580   3.667   3.539  13.394 -0.0615  0.1262  0.1921
 4722TIP3    H135581   3.597   3.584  13.443 -0.3611  0.3660 -0.4482
 4722TIP3    H235582   3.701   3.606  13.335  2.4401  0.7991  2.1897
 4723TIP3   OH235583   1.720   4.538  14.608  0.2004  0.2313 -0.0055
 4723TIP3    H135584   1.814   4.525  14.617  0.3570  0.0056 -1.6327
 4723TIP3    H235585   1.699   4.506  14.520 -1.3320  0.6152  0.1775
 4724TIP3   OH235586   4.878   2.161   0.563  0.3159 -0.9878 -0.1037
 4724TIP3    H135587   4.873   2.172   0.469  0.2366  0.6672  0.0773
 4724TIP3    H235588   4.940   2.228   0.593 -2.0134  0.6532  1.3460
 4725TIP3   OH235589   2.478   0.488   0.969  0.1860  0.4994 -0.4327
 4725TIP3    H135590   2.517   0.543   1.037 -2.2771 -0.7662  2.2016
 4725TIP3    H235591   2.399   0.535   0.942  0.7639  0.6458 -2.0354
 4726TIP3   OH235592   0.378   0.558   5.353  0.1548  0.9033  0.2646
 4726TIP3    H135593   0.429   0.478   5.341 -0.2522  0.6904 -0.0741
 4726TIP3    H235594   0.372   0.596   5.265 -0.5050  0.7790  0.2497
 4727TIP3   OH235595   5.146   3.536  13.416 -0.1251 -0.6281 -0.3078
 4727TIP3    H135596   5.193   3.494  13.488 -0.8698  0.7088  1.0127
 4727TIP3    H235597   5.056   3.504  13.425 -1.2486  2.6840  2.0776
 4728TIP3   OH235598   2.223   2.498   0.250  0.4424  0.1995  0.3242
 4728TIP3    H135599   2.150   2.536   0.299 -0.2128 -1.2326  0.5203
 4728TIP3    H235600   2.185   2.471   0.166  1.1614  1.0515 -0.2848
 4729TIP3   OH235601   3.611   6.419   3.676 -0.5987 -0.2951 -0.3520
 4729TIP3    H135602   3.528   6.409   3.628 -0.8832  1.9322 -0.4351
 4729TIP3    H235603   3.585   6.422   3.768 -0.1963 -3.1232 -0.0776
 4730TIP3   OH235604   1.950   6.334   1.717 -0.1204 -0.3239  0.5186
 4730TIP3    H135605   2.042   6.361   1.713 -0.4893  0.8506 -2.5887
 4730TIP3    H235606   1.927   6.341   1.810  2.2486  1.7173  1.0533
 4731TIP3   OH235607   4.463   3.059   1.367 -0.3776 -0.0016 -0.2306
 4731TIP3    H135608   4.418   2.975   1.367  1.2684 -0.9339  0.4274
 4731TIP3    H235609   4.393   3.124   1.371 -1.6373 -1.3760  1.2997
 4732TIP3   OH235610   4.888   5.504   3.826  0.2178 -0.0141 -0.0152
 4732TIP3    H135611   4.944   5.456   3.764 -0.2445 -2.3572  1.2740
 4732TIP3    H235612   4.809   5.524   3.776 -0.0837 -1.7283 -0.2834
 4733TIP3   OH235613   1.599   4.310  16.668  0.0261  0.0829  0.2386
 4733TIP3    H135614   1.517   4.266  16.690  0.2913 -0.3001  0.4820
 4733TIP3    H235615   1.578   4.364  16.592 -0.0860 -1.1723 -0.6501
 4734TIP3   OH235616   5.325   5.112   1.144 -0.7241  0.2561 -0.2480
 4734TIP3    H135617   5.416   5.086   1.156 -1.0919 -1.2978 -0.6657
 4734TIP3    H235618   5.328   5.175   1.071 -0.0083  0.0545 -0.4030
 4735TIP3   OH235619   6.505   1.627  15.343 -0.3065  0.4463  0.0071
 4735TIP3    H135620   6.507   1.536  15.313  1.5145  0.7147 -0.8499
 4735TIP3    H235621   6.463   1.623  15.429  0.6329 -1.3578  0.4385
 4736TIP3   OH235622   3.067   5.392   1.777 -0.1834 -0.3793  0.0171
 4736TIP3    H135623   3.064   5.299   1.799  0.1752 -0.5259 -0.5228
 4736TIP3    H235624   3.120   5.432   1.846 -0.7789 -0.4792  0.5444
 4737TIP3   OH235625   1.788   3.625   4.039 -0.2347 -0.1288 -0.2266
 4737TIP3    H135626   1.826   3.693   4.095 -1.3589 -1.0886  1.8105
 4737TIP3    H235627   1.696   3.647   4.033 -0.7823 -1.8428  1.1288
 4738TIP3   OH235628   1.491   3.359   0.249  0.2168  0.6439 -0.0092
 4738TIP3    H135629   1.453   3.416   0.316 -1.2716  1.0160 -1.0954
 4738TIP3    H235630   1.583   3.349   0.274 -0.1850  1.1442  1.8017
 4739TIP3   OH235631   1.345   6.388  14.672 -1.1283  0.8330 -0.1810
 4739TIP3    H135632   1.404   6.460  14.650  0.3677  0.3433  1.9046
 4739TIP3    H235633   1.326   6.400  14.765 -0.6133 -1.5498  0.3058
 4740TIP3   OH235634   2.077   2.569   3.046  0.6264  0.3556  0.2549
 4740TIP3    H135635   2.133   2.643   3.022 -0.5134  0.5846 -1.9773
 4740TIP3    H235636   2.115   2.495   2.999  0.7342 -0.1258  1.0829
 4741TIP3   OH235637   0.916   3.581   6.046  0.0378 -0.1456  0.0641
 4741TIP3    H135638   0.832   3.597   6.087  0.0143  1.5046 -0.5184
 4741TIP3    H235639   0.972   3.547   6.116 -0.9626 -0.7525  0.5750
 4742TIP3   OH235640   5.027   2.420  17.115 -0.1510 -0.2497  0.2281
 4742TIP3    H135641   4.999   2.512  17.117  0.1535 -0.1450 -0.1135
 4742TIP3    H235642   4.993   2.387  17.032 -0.5207 -0.5344  0.4881
 4743TIP3   OH235643   6.683   6.062   5.626 -0.2461  0.4413 -0.3501
 4743TIP3    H135644   6.768   6.106   5.628 -0.6353  1.2262  2.0315
 4743TIP3    H235645   6.623   6.128   5.593  0.0070 -0.0669 -1.8933
 4744TIP3   OH235646   2.791   5.005   1.155 -0.0336  0.5281  0.0203
 4744TIP3    H135647   2.856   5.017   1.086  1.1596 -3.1581  0.2546
 4744TIP3    H235648   2.746   4.924   1.132 -1.5266  0.6755  2.1462
 4745TIP3   OH235649   4.111   3.119   6.298  0.2007 -0.3713  0.9906
 4745TIP3    H135650   4.170   3.066   6.353 -0.3182  0.2467  2.1745
 4745TIP3    H235651   4.036   3.137   6.354 -0.3025  0.3685  0.0963
 4746TIP3   OH235652   3.309   6.246   1.441  0.4289  0.1835 -0.4739
 4746TIP3    H135653   3.369   6.188   1.396  1.4658  0.3752  0.6048
 4746TIP3    H235654   3.329   6.333   1.407  0.9721  0.2830  0.0799
 4747TIP3   OH235655   4.666   3.753  14.388 -0.1909 -0.2030 -0.0460
 4747TIP3    H135656   4.622   3.827  14.347 -1.3847 -1.2878 -0.7942
 4747TIP3    H235657   4.745   3.791  14.427  0.9779  0.9119 -3.2431
 4748TIP3   OH235658   3.697   5.492  17.208 -0.0278  0.2384 -0.7728
 4748TIP3    H135659   3.782   5.516  17.244  0.2804  0.8692 -1.8550
 4748TIP3    H235660   3.699   5.397  17.201 -0.0902  0.0998  0.7904
 4749TIP3   OH235661   3.552   1.640  15.485 -0.4528 -0.0241 -0.1125
 4749TIP3    H135662   3.496   1.700  15.435 -0.6634 -0.5406 -0.5118
 4749TIP3    H235663   3.596   1.696  15.549 -1.6834  0.3522  0.4415
 4750TIP3   OH235664   3.705   4.954  14.413  0.0948 -0.7527  0.1224
 4750TIP3    H135665   3.744   4.866  14.418 -0.0737 -0.8428 -0.1157
 4750TIP3    H235666   3.751   4.996  14.340 -0.2602 -0.8634 -0.1680
 4751TIP3   OH235667   0.514   3.220   3.510 -0.1390 -0.3807  0.3960
 4751TIP3    H135668   0.597   3.199   3.468 -0.6277 -1.0914 -0.2302
 4751TIP3    H235669   0.464   3.265   3.443 -0.6758 -0.9328  0.4187
 4752TIP3   OH235670   4.373   4.903   0.326 -0.6278  0.5429  0.3034
 4752TIP3    H135671   4.396   4.836   0.263 -4.1102 -0.4885 -0.0197
 4752TIP3    H235672   4.360   4.982   0.274 -1.4322  0.2155  0.0057
 4753TIP3   OH235673   4.373   5.534  14.501 -0.2155  0.4440  0.5711
 4753TIP3    H135674   4.331   5.609  14.459 -0.0292 -0.7512 -1.9355
 4753TIP3    H235675   4.455   5.568  14.536  0.7580  1.1325 -2.1504
 4754TIP3   OH235676   5.031   6.291   4.343  0.1579  0.0689 -0.4030
 4754TIP3    H135677   5.083   6.261   4.418  0.1739  1.4164  0.1644
 4754TIP3    H235678   4.940   6.270   4.367  0.0307  1.5385  0.5836
 4755TIP3   OH235679   3.248   2.902  13.540  0.3087  0.0809 -0.5799
 4755TIP3    H135680   3.292   2.950  13.610  1.2076  0.2049 -1.2080
 4755TIP3    H235681   3.171   2.954  13.519  0.9067  0.8978 -0.7842
 4756TIP3   OH235682   6.507   5.968   2.859  0.7573  0.2891 -0.2198
 4756TIP3    H135683   6.438   6.019   2.902 -0.2683 -1.1648 -0.0813
 4756TIP3    H235684   6.567   5.946   2.930 -0.7803 -1.8561  0.5465
 4757TIP3   OH235685   6.480   3.256   0.385  0.3970  0.4523 -0.3316
 4757TIP3    H135686   6.560   3.272   0.335  0.8666 -0.9708 -0.1040
 4757TIP3    H235687   6.510   3.245   0.476 -0.2050  1.0417 -0.0481
 4758TIP3   OH235688   4.892   0.230   2.896  0.2708 -0.2380 -0.0951
 4758TIP3    H135689   4.856   0.279   2.822  0.1018 -0.0458  0.1125
 4758TIP3    H235690   4.960   0.175   2.857  0.3049 -0.0078 -0.3671
 4759TIP3   OH235691   0.321   2.509   6.267 -0.2077 -0.1562 -0.0886
 4759TIP3    H135692   0.333   2.604   6.268 -1.6984  0.0766 -0.9681
 4759TIP3    H235693   0.349   2.481   6.354 -1.1975  1.3134  0.7495
 4760TIP3   OH235694   0.221   0.698  11.409  0.0596 -0.1759  0.2543
 4760TIP3    H135695   0.311   0.704  11.438  0.6558  0.3670 -1.5549
 4760TIP3    H235696   0.211   0.771  11.347 -0.5143 -2.2403 -2.2738
 4761TIP3   OH235697   6.150   0.605   4.568  0.3959 -0.2287  0.2632
 4761TIP3    H135698   6.176   0.513   4.574 -0.8032 -0.6639 -0.7926
 4761TIP3    H235699   6.225   0.648   4.527  0.2136 -1.1336 -1.0949
 4762TIP3   OH235700   5.538   0.087   3.347  0.2122 -0.0256 -0.1722
 4762TIP3    H135701   5.489   0.006   3.362  1.1123 -0.7709 -1.1003
 4762TIP3    H235702   5.630   0.062   3.360  0.3917  1.2710  1.2306
 4763TIP3   OH235703   0.381   0.679  14.137  0.5612 -0.4098 -0.0816
 4763TIP3    H135704   0.459   0.712  14.182  0.1505  0.8886 -0.2572
 4763TIP3    H235705   0.405   0.678  14.044  0.9552 -1.7647  0.0207
 4764TIP3   OH235706   2.671   1.280   2.431  0.3429  0.5407 -0.0473
 4764TIP3    H135707   2.642   1.190   2.412 -0.0304  0.4312  0.9847
 4764TIP3    H235708   2.730   1.302   2.359 -1.0701  0.1861 -1.3623
 4765TIP3   OH235709   5.887   6.767   4.141  0.1014 -0.1695  0.2426
 4765TIP3    H135710   5.891   6.839   4.204  1.3408  0.7735 -0.8385
 4765TIP3    H235711   5.911   6.690   4.191 -1.5968  0.0763  1.5098
 4766TIP3   OH235712   4.258   0.936  13.017 -0.0564  0.2512  0.4526
 4766TIP3    H135713   4.328   0.882  12.981 -0.9836 -0.5243 -0.2204
 4766TIP3    H235714   4.195   0.945  12.945 -1.8430 -1.1391  1.7561
 4767TIP3   OH235715   2.528   2.545   4.508  0.6207 -0.2000 -0.1077
 4767TIP3    H135716   2.528   2.631   4.464  0.1240 -0.0250  0.2225
 4767TIP3    H235717   2.476   2.489   4.451  0.4689 -0.1292 -0.0396
 4768TIP3   OH235718   4.161   0.633  12.575 -0.3924  0.1740 -0.3541
 4768TIP3    H135719   4.114   0.640  12.492 -2.0889 -1.2596  0.4153
 4768TIP3    H235720   4.127   0.553  12.615  1.7609 -0.1950  0.8928
 4769TIP3   OH235721   2.385   6.213  13.837  0.4728  0.0864  0.2489
 4769TIP3    H135722   2.344   6.136  13.797  1.1570 -0.7375  1.0848
 4769TIP3    H235723   2.361   6.285  13.780 -0.8251 -0.6250 -0.1512
 4770TIP3   OH235724   3.246   1.630   2.352 -0.0839 -0.1446 -0.4720
 4770TIP3    H135725   3.325   1.669   2.313 -0.3243 -1.4950 -2.4627
 4770TIP3    H235726   3.193   1.705   2.378  1.4222  0.7971  0.0422
 4771TIP3   OH235727   1.945   1.145   3.864 -0.2791  0.4824  0.6577
 4771TIP3    H135728   2.025   1.122   3.816 -0.5848  0.9668 -0.0969
 4771TIP3    H235729   1.883   1.076   3.842 -0.3659  0.6132  0.4926
 4772TIP3   OH235730   0.249   3.850  17.174 -0.3343 -1.1614  0.4875
 4772TIP3    H135731   0.280   3.765  17.205  1.7738 -0.4675  0.4457
 4772TIP3    H235732   0.191   3.830  17.101  2.8196 -2.5286 -1.8360
 4773TIP3   OH235733   3.063   6.028  10.959  0.7542 -0.3534 -0.3943
 4773TIP3    H135734   3.041   5.982  11.041  1.9220  0.6003  0.4859
 4773TIP3    H235735   3.155   6.007  10.943  0.0946 -2.0207 -2.5103
 4774TIP3   OH235736   3.886   4.240   2.564 -0.2280 -0.1104 -0.5947
 4774TIP3    H135737   3.950   4.249   2.635 -2.2371  0.1323  1.2983
 4774TIP3    H235738   3.922   4.292   2.493  1.1232  0.9730  0.8103
 4775TIP3   OH235739   3.982   4.559   4.772 -0.6315 -0.0071  0.1974
 4775TIP3    H135740   4.020   4.487   4.821 -0.8117  1.8494  3.2971
 4775TIP3    H235741   3.887   4.550   4.784 -0.8006 -0.3847 -1.1958
 4776TIP3   OH235742   2.661   1.639  11.748  0.1652 -0.1335 -0.5103
 4776TIP3    H135743   2.614   1.596  11.819 -0.0735 -0.8537 -1.0876
 4776TIP3    H235744   2.720   1.700  11.791 -0.7093  0.1931  0.2684
 4777TIP3   OH235745   5.828   1.696  14.338  0.4431  0.5201  0.3618
 4777TIP3    H135746   5.922   1.678  14.348  0.7025  1.3031 -0.4837
 4777TIP3    H235747   5.823   1.748  14.258 -1.0616 -2.2110 -1.4272
 4778TIP3   OH235748   0.564   5.566  12.158 -0.6852 -0.0458 -0.7507
 4778TIP3    H135749   0.626   5.503  12.195  2.0764  2.7247 -0.2315
 4778TIP3    H235750   0.592   5.576  12.067 -1.0113  0.4978 -0.7943
 4779TIP3   OH235751   5.083   2.133  11.598 -0.1021 -0.4263  0.8516
 4779TIP3    H135752   5.041   2.103  11.679 -1.5061 -0.9090 -0.0148
 4779TIP3    H235753   5.042   2.217  11.579  2.6073  1.3726  2.3546
 4780TIP3   OH235754   3.298   1.229   6.046  0.3554 -0.1072  1.2426
 4780TIP3    H135755   3.224   1.172   6.064  0.2866 -0.8780 -1.1916
 4780TIP3    H235756   3.294   1.296   6.115 -0.2628 -2.3000  3.4820
 4781TIP3   OH235757   5.566   4.024   4.193  0.1519 -0.1963  0.3818
 4781TIP3    H135758   5.621   4.058   4.264  1.1903  1.2719 -1.0639
 4781TIP3    H235759   5.617   4.040   4.114 -1.9296  0.2737 -0.9179
 4782TIP3   OH235760   2.493   1.767  13.813  0.5967 -0.6467 -0.0486
 4782TIP3    H135761   2.567   1.801  13.863 -0.3323 -0.0142  0.9465
 4782TIP3    H235762   2.446   1.711  13.875 -0.5526  0.1110 -0.2108
 4783TIP3   OH235763   4.404   1.132  15.533 -0.0555 -0.0613 -0.3464
 4783TIP3    H135764   4.447   1.216  15.552  0.2252 -0.0937 -0.8162
 4783TIP3    H235765   4.474   1.077  15.498 -0.4859 -0.1091 -1.1472
 4784TIP3   OH235766   2.187   3.374  13.347  0.3341  0.3377  0.2913
 4784TIP3    H135767   2.168   3.468  13.341  1.2074  0.5197  0.3156
 4784TIP3    H235768   2.282   3.369  13.346  0.2936 -0.6283 -0.8479
 4785TIP3   OH235769   3.592   5.207  12.886  0.5499  0.1467  0.0364
 4785TIP3    H135770   3.649   5.130  12.876  1.3508  0.5182  1.5261
 4785TIP3    H235771   3.622   5.249  12.966 -0.4093  1.5864 -0.3265
 4786TIP3   OH235772   4.197   0.317   5.109 -0.0028 -0.4825 -0.3848
 4786TIP3    H135773   4.122   0.358   5.151  0.5088 -0.9072  0.9720
 4786TIP3    H235774   4.261   0.304   5.179  0.7946 -1.3947 -1.2409
 4787TIP3   OH235775   5.579   4.242  16.675 -0.1485 -0.1623  0.3242
 4787TIP3    H135776   5.578   4.232  16.770 -0.0984 -1.6113  0.2026
 4787TIP3    H235777   5.580   4.336  16.660 -0.1376  0.0833  1.7566
 4788TIP3   OH235778   1.948   6.241   3.640  0.0655 -0.0026 -0.0920
 4788TIP3    H135779   1.963   6.193   3.558  0.1940 -1.4329  0.7243
 4788TIP3    H235780   2.008   6.315   3.637 -0.5237  0.4557 -1.6464
 4789TIP3   OH235781   3.066   4.477  16.253 -0.0489  0.4271  0.6151
 4789TIP3    H135782   2.986   4.430  16.230  0.6901 -1.7472  2.0794
 4789TIP3    H235783   3.036   4.564  16.277 -1.7284  0.2574 -0.6455
 4790TIP3   OH235784   1.648   1.215   2.483  0.2740 -0.1464 -0.0624
 4790TIP3    H135785   1.565   1.248   2.518  1.4062 -0.1328  2.9212
 4790TIP3    H235786   1.706   1.292   2.483  0.7029 -0.4623 -0.6995
 4791TIP3   OH235787   3.566   1.255  12.051 -0.6684  0.1070 -0.3227
 4791TIP3    H135788   3.544   1.223  12.138 -0.1257  2.0478  0.5812
 4791TIP3    H235789   3.659   1.276  12.056 -0.3770 -0.6676 -1.7082
 4792TIP3   OH235790   2.713   0.941  14.793  0.7641  0.1157 -0.0074
 4792TIP3    H135791   2.637   1.000  14.800  1.1004  0.7280 -1.2918
 4792TIP3    H235792   2.676   0.859  14.763  0.3305 -0.2926  1.5138
 4793TIP3   OH235793   6.707   0.662   1.533  0.5526 -0.0248 -0.1008
 4793TIP3    H135794   6.786   0.707   1.502  0.2735  0.2406 -0.4339
 4793TIP3    H235795   6.650   0.659   1.456  0.3853 -0.5395  0.0454
 4794TIP3   OH235796   2.613   4.729   5.920  0.0410  0.0155  0.5424
 4794TIP3    H135797   2.663   4.734   5.838 -1.9119 -1.6456 -0.8188
 4794TIP3    H235798   2.662   4.666   5.974 -0.3553 -1.3601 -0.6490
 4795TIP3   OH235799   0.495   6.152   6.101  0.0165 -0.0653 -0.0066
 4795TIP3    H135800   0.404   6.175   6.082 -0.0150  0.0940  0.3173
 4795TIP3    H235801   0.538   6.236   6.114  0.7068 -0.0159 -2.2631
 4796TIP3   OH235802   2.998   2.006  12.614  0.1448 -0.1378  0.7598
 4796TIP3    H135803   2.967   1.985  12.702 -1.6976 -1.5830 -0.1430
 4796TIP3    H235804   3.017   2.100  12.617 -1.6558  0.2486  2.2336
 4797TIP3   OH235805   5.743   3.546  11.543 -0.2888  0.5004  0.7649
 4797TIP3    H135806   5.835   3.547  11.515 -0.6674  0.0424 -0.5156
 4797TIP3    H235807   5.727   3.455  11.568 -0.0266  0.8475  2.3317
 4798TIP3   OH235808   6.738   5.115  10.895  0.4593 -0.7305 -0.1349
 4798TIP3    H135809   6.696   5.180  10.950 -2.1811 -1.4960 -1.0935
 4798TIP3    H235810   6.761   5.044  10.954 -0.1068 -0.5117  0.3551
 4799TIP3   OH235811   5.809   0.634   1.631 -0.0402 -0.2632 -0.4305
 4799TIP3    H135812   5.771   0.704   1.579  0.1170  0.6308  0.6263
 4799TIP3    H235813   5.809   0.558   1.572 -0.1037  0.6373 -1.6277
 4800TIP3   OH235814   5.058   1.654  11.448 -0.3372  0.2253  0.1734
 4800TIP3    H135815   5.147   1.626  11.426 -1.3337 -3.2591 -0.0386
 4800TIP3    H235816   5.030   1.705  11.373  0.5350 -1.1602 -1.1595
 4801TIP3   OH235817   4.046   3.154   2.058  0.8229 -0.0775 -0.4611
 4801TIP3    H135818   4.035   3.177   1.966 -3.5685  1.6305  0.2234
 4801TIP3    H235819   4.011   3.065   2.065  0.1623  0.1858 -0.3296
 4802TIP3   OH235820   1.335   5.651  14.887 -0.6331  0.3150 -0.0497
 4802TIP3    H135821   1.354   5.683  14.975 -0.0629  0.2405 -0.1404
 4802TIP3    H235822   1.262   5.591  14.898 -0.0717 -0.2889  0.4875
 4803TIP3   OH235823   4.068   1.636  10.999 -0.6197 -0.3693 -0.1787
 4803TIP3    H135824   4.036   1.575  11.066  0.0272 -1.2205 -0.6319
 4803TIP3    H235825   3.998   1.702  10.992 -0.8488 -0.4467  1.0854
 4804TIP3   OH235826   5.861   4.074  10.522 -0.8084 -0.3395 -0.5188
 4804TIP3    H135827   5.837   4.149  10.467  0.9293  1.4684  1.0292
 4804TIP3    H235828   5.816   4.091  10.606 -0.6665 -1.2353 -0.2462
 4805TIP3   OH235829   4.113   2.985   1.597 -0.2938 -0.2644  0.1693
 4805TIP3    H135830   4.073   3.065   1.631 -3.1268 -0.5548 -2.0857
 4805TIP3    H235831   4.172   3.016   1.528  0.7483 -0.0358  1.1276
 4806TIP3   OH235832   1.527   5.780   0.705  0.1582 -0.2685 -0.2362
 4806TIP3    H135833   1.520   5.865   0.661  1.0753 -0.1744 -0.2097
 4806TIP3    H235834   1.436   5.757   0.725 -0.2654 -0.1827 -1.9073
 4807TIP3   OH235835   2.911   2.013  14.448 -0.8377  0.0856 -0.3021
 4807TIP3    H135836   2.971   2.075  14.406 -0.9514  0.7949  0.5391
 4807TIP3    H235837   2.956   1.987  14.529 -2.2159  1.7311  1.0725
 4808TIP3   OH235838   0.924   0.942  15.936  0.1045  0.2619 -0.0746
 4808TIP3    H135839   0.957   0.883  16.004 -0.8867  1.4991  1.5810
 4808TIP3    H235840   1.000   0.962  15.882  0.7857 -1.3014  0.2569
 4809TIP3   OH235841   2.350   2.997   3.796  0.4567 -0.1464  0.0948
 4809TIP3    H135842   2.256   3.009   3.812  0.7516  1.6942  0.7129
 4809TIP3    H235843   2.362   2.902   3.791 -1.3744 -0.4263  0.3552
 4810TIP3   OH235844   0.803   3.958   0.054 -0.0762 -0.0525  0.0237
 4810TIP3    H135845   0.806   4.036   0.110  0.1413 -1.5852  2.2773
 4810TIP3    H235846   0.710   3.937   0.046 -0.0748 -0.2677  0.5047
 4811TIP3   OH235847   3.274   2.801  15.412  0.4857 -0.0622  0.0141
 4811TIP3    H135848   3.264   2.880  15.464 -0.0879  0.2090 -0.4880
 4811TIP3    H235849   3.347   2.820  15.353  0.9076 -0.2370  0.4783
 4812TIP3   OH235850   5.933   0.131  13.614  0.5266 -0.6604 -0.1007
 4812TIP3    H135851   6.024   0.111  13.592  1.5896  3.1656  0.1176
 4812TIP3    H235852   5.895   0.160  13.531  0.4246  0.5217  0.3366
 4813TIP3   OH235853   2.497   1.502   0.317 -0.3465  0.3553  0.5575
 4813TIP3    H135854   2.563   1.454   0.268 -1.0122 -0.0325  0.0198
 4813TIP3    H235855   2.463   1.568   0.256  0.3388  1.3298  1.1903
 4814TIP3   OH235856   2.279   3.125   4.101  0.8357  0.3823  0.6310
 4814TIP3    H135857   2.199   3.175   4.120 -0.1962  0.5492 -3.3489
 4814TIP3    H235858   2.344   3.162   4.160 -0.4541  4.9014 -0.3458
 4815TIP3   OH235859   5.852   6.526  16.154 -0.0820  0.0837  0.2416
 4815TIP3    H135860   5.806   6.573  16.224 -0.4677 -0.1008  0.1188
 4815TIP3    H235861   5.801   6.545  16.075  0.9235  1.1166 -0.1873
 4816TIP3   OH235862   5.980   1.235   3.737  0.7548 -0.4743  0.2811
 4816TIP3    H135863   6.069   1.210   3.758  0.6509 -0.9208  0.1964
 4816TIP3    H235864   5.986   1.328   3.715  1.2087 -0.5221  0.1931
 4817TIP3   OH235865   5.084   6.492   1.882 -0.1939  0.0852  0.2389
 4817TIP3    H135866   5.116   6.534   1.962  0.6320  0.7480 -0.4157
 4817TIP3    H235867   5.071   6.400   1.906 -1.3031  0.5502  1.4972
 4818TIP3   OH235868   1.477   6.561  15.615  0.5768  0.7155  0.1783
 4818TIP3    H135869   1.546   6.511  15.658 -1.0399 -0.9446  1.0111
 4818TIP3    H235870   1.475   6.527  15.525  1.2196  1.1999 -0.0230
 4819TIP3   OH235871   0.819   3.168   0.719 -0.0560  0.4551 -0.2763
 4819TIP3    H135872   0.864   3.241   0.763  2.0521  0.4400 -2.2102
 4819TIP3    H235873   0.738   3.157   0.768  0.1095  3.2945  0.8449
 4820TIP3   OH235874   3.594   0.187   5.053  0.1516 -0.3035  0.3320
 4820TIP3    H135875   3.534   0.233   5.111 -1.3990 -1.9604  0.1224
 4820TIP3    H235876   3.653   0.256   5.021 -0.6010  1.0952  1.7896
 4821TIP3   OH235877   1.325   5.716   4.728  0.2333  0.2630  0.3957
 4821TIP3    H135878   1.373   5.774   4.787 -1.0922  1.3183  0.4654
 4821TIP3    H235879   1.259   5.674   4.785 -1.0742  1.3080 -0.3125
 4822TIP3   OH235880   3.275   1.731   3.320 -0.0717  0.3816 -0.4616
 4822TIP3    H135881   3.262   1.810   3.373  1.8730  0.5273 -0.1002
 4822TIP3    H235882   3.370   1.722   3.316 -0.2498 -1.3191 -1.4546
 4823TIP3   OH235883   1.521   1.977   4.246  0.3386  0.6973  0.8337
 4823TIP3    H135884   1.481   1.893   4.271 -0.1149  0.5151 -0.4102
 4823TIP3    H235885   1.451   2.041   4.257  0.8340  1.0245  2.2823
 4824TIP3   OH235886   6.447   6.522   5.453 -0.1274  0.1267 -0.3035
 4824TIP3    H135887   6.430   6.589   5.519 -1.2526 -0.2489 -0.1872
 4824TIP3    H235888   6.452   6.440   5.502 -1.3309 -0.2046 -0.6867
 4825TIP3   OH235889   6.779   3.641  11.566  0.0100  0.3973 -0.0157
 4825TIP3    H135890   6.691   3.605  11.558 -0.2057  0.9253 -0.0538
 4825TIP3    H235891   6.777   3.694  11.646  1.1382 -1.9526  1.6626
 4826TIP3   OH235892   6.265   0.294  14.723  0.1469 -0.1218  0.1413
 4826TIP3    H135893   6.284   0.321  14.813 -0.5361  1.2791 -0.1016
 4826TIP3    H235894   6.203   0.360  14.691 -1.9383 -2.2130 -0.3959
 4827TIP3   OH235895   0.104   0.928  14.176  0.6960 -0.1977  0.2590
 4827TIP3    H135896   0.102   0.987  14.252  2.7916  2.2712 -1.4168
 4827TIP3    H235897   0.177   0.869  14.194 -0.7128 -1.7001  1.4300
 4828TIP3   OH235898   2.630   0.816   0.884 -1.1345  0.0716  0.5484
 4828TIP3    H135899   2.687   0.811   0.807 -1.0053 -1.3314  0.7009
 4828TIP3    H235900   2.543   0.836   0.850 -0.7740  1.1122  0.2097
 4829TIP3   OH235901   2.853   2.532   4.355 -0.6779 -0.3749 -0.3527
 4829TIP3    H135902   2.772   2.533   4.302 -0.5384  0.6887 -0.5721
 4829TIP3    H235903   2.838   2.598   4.422 -0.9718 -1.9257  1.1852
 4830TIP3   OH235904   2.154   4.127  12.123 -0.2300  0.1920  0.1261
 4830TIP3    H135905   2.079   4.146  12.180 -0.8120 -2.5767  0.4212
 4830TIP3    H235906   2.220   4.090  12.182 -0.7344 -2.4707 -0.8651
 4831TIP3   OH235907   5.348   4.920  11.213 -0.6115  0.4102 -0.4371
 4831TIP3    H135908   5.286   4.985  11.248 -1.6979  0.2072 -1.8973
 4831TIP3    H235909   5.380   4.874  11.291 -0.1994  2.3267  0.5877
 4832TIP3   OH235910   1.549   6.304  10.791  0.2488  0.0426  0.0556
 4832TIP3    H135911   1.491   6.295  10.715  1.8566 -0.3699 -1.1730
 4832TIP3    H235912   1.557   6.398  10.805  0.4486  0.1381 -0.6890
 4833TIP3   OH235913   6.411   1.650  11.963 -0.8318 -0.0984 -0.3226
 4833TIP3    H135914   6.470   1.612  11.898 -2.0374 -2.8375  0.0096
 4833TIP3    H235915   6.421   1.744  11.954  1.0276 -0.4344 -2.5829
 4834TIP3   OH235916   0.184   1.849  15.717  0.1450 -0.3751 -0.4767
 4834TIP3    H135917   0.090   1.842  15.732  0.3881 -1.1877  0.7529
 4834TIP3    H235918   0.224   1.809  15.794  1.4940 -1.6065 -1.7655
 4835TIP3   OH235919   6.774   6.355  15.505  0.1333 -0.1032 -0.6938
 4835TIP3    H135920   6.711   6.427  15.497  1.8200  1.4570 -0.4376
 4835TIP3    H235921   6.829   6.362  15.428  0.8491 -0.5858 -0.2325
 4836TIP3   OH235922   0.712   1.670   1.689  0.1017  0.1413  0.0761
 4836TIP3    H135923   0.747   1.581   1.694  0.5142  0.2707 -0.4703
 4836TIP3    H235924   0.677   1.686   1.777 -0.4112 -0.7283  0.0430
 4837TIP3   OH235925   2.111   4.737  14.834  0.2449 -0.4282 -0.2623
 4837TIP3    H135926   2.017   4.754  14.840  0.3025 -0.3966  0.6978
 4837TIP3    H235927   2.133   4.757  14.743 -0.7699 -0.9276 -0.6303
 4838TIP3   OH235928   5.007   0.950   3.708 -0.3676 -0.2330 -0.0968
 4838TIP3    H135929   5.083   0.904   3.674 -0.9215 -0.7704 -0.6130
 4838TIP3    H235930   4.968   0.992   3.632  0.0150  0.9633  0.3281
 4839TIP3   OH235931   0.922   4.563  15.495  0.0914 -0.4185 -0.1032
 4839TIP3    H135932   0.887   4.553  15.583  0.7018 -0.4681  0.1344
 4839TIP3    H235933   0.995   4.624  15.504 -0.9270  0.9720 -0.8590
 4840TIP3   OH235934   2.730   0.864   2.458 -0.2634  0.1967 -0.6127
 4840TIP3    H135935   2.802   0.801   2.460  0.2780  0.6501  3.1906
 4840TIP3    H235936   2.654   0.815   2.491 -0.2611  0.9917  0.6760
 4841TIP3   OH235937   3.736   5.633  16.015  0.2301 -0.2242  0.0843
 4841TIP3    H135938   3.683   5.615  15.937 -1.6160  0.2842  1.1390
 4841TIP3    H235939   3.736   5.550  16.064 -2.9571  0.6298  1.8983
 4842TIP3   OH235940   2.179   1.826  13.507  0.4792  0.0579 -0.5080
 4842TIP3    H135941   2.211   1.916  13.515  0.3069  0.1442 -0.7822
 4842TIP3    H235942   2.093   1.835  13.467  0.3410 -0.2121 -0.2721
 4843TIP3   OH235943   2.075   6.073  15.675  0.5499  0.3405 -0.4974
 4843TIP3    H135944   2.037   6.078  15.588 -0.0807  1.8316 -0.1655
 4843TIP3    H235945   2.138   6.144  15.678  1.0265 -0.0900  0.0610
 4844TIP3   OH235946   4.808   4.968  13.882 -0.0203 -0.3771  0.4923
 4844TIP3    H135947   4.798   5.043  13.824  1.1250 -1.1445 -0.7490
 4844TIP3    H235948   4.735   4.975  13.944  0.6191  2.3116  1.0767
 4845TIP3   OH235949   1.344   6.782   5.211 -0.2143  0.1616  0.1960
 4845TIP3    H135950   1.314   6.828   5.289  0.8271  0.4846  0.4361
 4845TIP3    H235951   1.265   6.764   5.161 -0.8108  0.7222  0.9131
 4846TIP3   OH235952   4.360   0.497  15.432 -0.2845  0.3096  0.2847
 4846TIP3    H135953   4.327   0.564  15.372  0.1563 -0.0190 -0.3396
 4846TIP3    H235954   4.450   0.524  15.450 -0.6521  0.8461  1.4606
 4847TIP3   OH235955   2.551   5.780  11.496  0.4447 -0.1533  0.4728
 4847TIP3    H135956   2.507   5.746  11.418  0.2268 -0.2525  0.6404
 4847TIP3    H235957   2.612   5.710  11.521  1.5208  0.4179 -0.4077
 4848TIP3   OH235958   2.775   6.472   1.017 -0.3696 -0.2211 -0.3372
 4848TIP3    H135959   2.710   6.491   1.084  0.1674 -0.4952  0.2781
 4848TIP3    H235960   2.727   6.425   0.949 -0.6522 -1.2145  0.5174
 4849TIP3   OH235961   1.810   2.402   2.915  0.0236  0.4821  1.1404
 4849TIP3    H135962   1.826   2.387   3.008 -0.8681 -1.4873  1.0123
 4849TIP3    H235963   1.717   2.382   2.903  0.3796 -0.4244 -0.3720
 4850TIP3   OH235964   0.270   4.016   2.220  0.4406  0.8370 -0.2985
 4850TIP3    H135965   0.340   4.006   2.283  1.1542  0.4393 -1.1393
 4850TIP3    H235966   0.306   3.982   2.138 -0.8845  0.1812 -0.6408
 4851TIP3   OH235967   5.671   6.499  15.628  0.2579 -0.3727 -0.4443
 4851TIP3    H135968   5.665   6.410  15.662 -0.5338 -0.1476  0.0101
 4851TIP3    H235969   5.592   6.543  15.660  2.1850  1.4891  2.2071
 4852TIP3   OH235970   5.037   3.015   4.834  0.0736 -0.0379  0.1085
 4852TIP3    H135971   4.967   3.031   4.896 -0.4743 -2.4788  0.2031
 4852TIP3    H235972   4.994   2.980   4.756  1.0388  0.0255 -0.4811
 4853TIP3   OH235973   4.980   4.724  16.170  0.0301  0.0060 -0.7704
 4853TIP3    H135974   5.024   4.649  16.211  2.2274  2.0544  0.9291
 4853TIP3    H235975   5.022   4.732  16.085 -1.6872 -1.8394 -1.8756
 4854TIP3   OH235976   0.759   2.595  10.933  0.1428 -0.0072 -0.1132
 4854TIP3    H135977   0.711   2.524  10.891 -0.3065  0.9330 -1.2432
 4854TIP3    H235978   0.772   2.660  10.863  0.5255  1.0323  0.8899
 4855TIP3   OH235979   4.773   0.710  16.156  0.4361  0.0237  0.3403
 4855TIP3    H135980   4.785   0.734  16.248  0.9472  1.0130  0.0238
 4855TIP3    H235981   4.862   0.691  16.124  0.2061 -0.8093  0.1775
 4856TIP3   OH235982   3.652   1.429   4.244  0.0906 -0.1498 -0.2091
 4856TIP3    H135983   3.659   1.515   4.286 -0.8854 -0.3889  0.5000
 4856TIP3    H235984   3.734   1.419   4.196  0.7255  0.6764  0.6493
 4857TIP3   OH235985   3.852   1.579  12.055  0.0417 -0.3708 -0.8565
 4857TIP3    H135986   3.815   1.632  12.126  1.4970  0.8333 -0.9394
 4857TIP3    H235987   3.829   1.627  11.975  0.4313 -0.4419 -1.0156
 4858TIP3   OH235988   4.241   6.361   0.997  0.4629 -0.7428 -0.0483
 4858TIP3    H135989   4.312   6.367   1.061 -0.4488 -0.5223  0.9678
 4858TIP3    H235990   4.196   6.445   1.004 -0.1981 -1.0726 -0.3248
 4859TIP3   OH235991   4.854   1.139   4.038  0.6845  0.3716 -0.0831
 4859TIP3    H135992   4.773   1.089   4.039  1.0726 -0.3941 -2.0867
 4859TIP3    H235993   4.855   1.186   4.121 -0.9484 -0.9588  0.7372
 4860TIP3   OH235994   4.069   0.094  15.123  0.2468 -0.8150 -0.2227
 4860TIP3    H135995   4.089   0.080  15.215  1.0207 -2.4432 -0.6053
 4860TIP3    H235996   3.991   0.041  15.106 -0.2771 -0.0166 -0.3745
 4861TIP3   OH235997   4.318   4.488  12.449 -0.0321  0.4534 -0.1730
 4861TIP3    H135998   4.294   4.517  12.361 -0.0285  1.2208  0.0703
 4861TIP3    H235999   4.361   4.564  12.488  0.1864  0.0370  0.4080
 4862TIP3   OH236000   4.202   0.541  14.200 -0.5553 -0.0839 -0.9327
 4862TIP3    H136001   4.237   0.626  14.176  0.8414 -0.2394  0.3518
 4862TIP3    H236002   4.208   0.539  14.296 -0.8233 -1.5070 -0.9198
 4863TIP3   OH236003   5.387   6.420   0.008  0.2891  0.5774 -0.1514
 4863TIP3    H136004   5.319   6.353   0.018  2.1792 -1.4453 -0.0803
 4863TIP3    H236005   5.416   6.438   0.098  2.4712 -1.5388 -0.3316
 4864TIP3   OH236006   3.122   0.806  12.155  0.3816 -0.0247 -0.2459
 4864TIP3    H136007   3.218   0.810  12.151  0.3830 -0.9853 -2.3505
 4864TIP3    H236008   3.098   0.744  12.086 -1.8295  1.2403 -0.6891
 4865TIP3   OH236009   5.382   0.303   4.641  0.0023 -0.0203  0.0095
 4865TIP3    H136010   5.336   0.374   4.687  1.1016  0.0595  1.0454
 4865TIP3    H236011   5.312   0.248   4.605 -0.9021  0.3701  1.1095
 4866TIP3   OH236012   0.215   2.828  10.602  0.3267  0.1861  0.4273
 4866TIP3    H136013   0.262   2.878  10.535 -0.0419  0.2800  0.2329
 4866TIP3    H236014   0.283   2.792  10.658  0.5944  2.3937  1.6468
 4867TIP3   OH236015   2.655   3.329   0.888 -0.2375  0.4030 -0.4228
 4867TIP3    H136016   2.595   3.388   0.843 -1.7002 -1.4823 -1.0958
 4867TIP3    H236017   2.600   3.255   0.914  1.5819 -0.8525  0.0283
 4868TIP3   OH236018   4.221   3.720  13.304 -0.0125  0.5825 -0.4535
 4868TIP3    H136019   4.257   3.786  13.245  0.1094  1.2076  0.3004
 4868TIP3    H236020   4.126   3.726  13.292  0.0797 -1.2023 -2.5883
 4869TIP3   OH236021   0.572   0.442  15.616 -0.7703  0.0562 -0.3638
 4869TIP3    H136022   0.480   0.452  15.644 -0.4852  0.0609  0.6010
 4869TIP3    H236023   0.578   0.495  15.537 -1.6338 -0.0430 -0.5117
 4870TIP3   OH236024   5.547   5.945   5.151  0.0562 -0.1772  0.2806
 4870TIP3    H136025   5.493   5.867   5.166  0.8719 -0.6535  0.7914
 4870TIP3    H236026   5.483   6.014   5.130 -0.6406 -1.1184 -0.8308
 4871TIP3   OH236027   2.682   3.662   3.405  0.5148  0.1163  0.2778
 4871TIP3    H136028   2.747   3.600   3.374 -0.5718 -0.8452 -0.1412
 4871TIP3    H236029   2.697   3.741   3.352 -0.2870 -0.9668 -1.6477
 4872TIP3   OH236030   1.050   4.206  14.464 -0.3426 -0.0605  0.1341
 4872TIP3    H136031   1.143   4.213  14.441 -1.0942  2.1488 -2.9104
 4872TIP3    H236032   1.037   4.114  14.483  2.1330 -0.7863 -1.2304
 4873TIP3   OH236033   1.953   3.321   1.939  0.0756 -0.3225  0.0716
 4873TIP3    H136034   1.906   3.341   2.020  3.3233  0.3039  2.0121
 4873TIP3    H236035   1.966   3.407   1.898  1.2948 -0.1814  0.6971
 4874TIP3   OH236036   4.727   6.360  15.546 -0.0328 -0.4405 -0.0172
 4874TIP3    H136037   4.767   6.301  15.482 -0.8783 -0.5704 -0.4500
 4874TIP3    H236038   4.769   6.444  15.531  0.3842 -0.6720 -0.1634
 4875TIP3   OH236039   6.771   3.069  14.620  0.3975  0.3546  0.2516
 4875TIP3    H136040   6.805   3.095  14.534  0.2953 -2.1177 -0.5992
 4875TIP3    H236041   6.689   3.117  14.628  0.7876  1.2209 -0.6616
 4876TIP3   OH236042   0.730   5.825  14.177 -0.0032 -0.4376  0.1501
 4876TIP3    H136043   0.700   5.769  14.249 -1.3371  0.6697  0.4901
 4876TIP3    H236044   0.652   5.873  14.150  1.5286  3.1553  1.5538
 4877TIP3   OH236045   4.850   5.740  12.461 -0.3705  0.4085  0.4714
 4877TIP3    H136046   4.829   5.779  12.376 -1.3586  1.2964  1.1062
 4877TIP3    H236047   4.924   5.792  12.494  0.2351 -0.1513  0.0200
 4878TIP3   OH236048   2.665   3.458  14.076  0.5548  0.9344 -0.0230
 4878TIP3    H136049   2.637   3.376  14.037 -1.2756  1.8451 -0.7542
 4878TIP3    H236050   2.646   3.524  14.009 -1.7576  2.4244  1.9321
 4879TIP3   OH236051   0.003   5.946  14.937 -0.3311  0.3102  0.8068
 4879TIP3    H136052  -0.071   5.895  14.906  1.8100 -1.5689 -1.6108
 4879TIP3    H236053   0.021   5.911  15.024 -1.6108  0.0811  1.0035
 4880TIP3   OH236054   1.533   2.055   5.204  0.6908  0.2100 -0.4350
 4880TIP3    H136055   1.625   2.057   5.231  1.2243 -3.6270 -1.2831
 4880TIP3    H236056   1.537   2.045   5.109 -0.4879 -1.4255 -0.3476
 4881TIP3   OH236057   5.033   1.109   2.825  0.4509  0.3196 -0.5637
 4881TIP3    H136058   5.048   1.193   2.867  1.0656  2.5455 -4.6794
 4881TIP3    H236059   4.940   1.110   2.802 -0.0285 -1.1453  1.0500
 4882TIP3   OH236060   0.324   4.383   2.698  0.5466 -0.6031  0.2480
 4882TIP3    H136061   0.401   4.340   2.661  0.9123 -0.9801  1.4013
 4882TIP3    H236062   0.329   4.364   2.792 -0.6061 -0.0868  0.4280
 4883TIP3   OH236063   6.352   2.138   4.471  0.3875  0.0991 -0.0386
 4883TIP3    H136064   6.395   2.212   4.428  2.0541 -0.2877  0.8515
 4883TIP3    H236065   6.299   2.177   4.540 -0.7296  0.5885 -1.1348
 4884TIP3   OH236066   1.823   1.040  17.039 -0.5441  0.5811  0.4837
 4884TIP3    H136067   1.841   0.974  16.971  1.5867  0.5129  1.0484
 4884TIP3    H236068   1.879   1.114  17.016 -0.7021  1.0291  1.4981
 4885TIP3   OH236069   5.352   1.300   5.667 -1.2826 -0.0366 -0.5033
 4885TIP3    H136070   5.282   1.340   5.615 -0.2478  0.5025 -1.5326
 4885TIP3    H236071   5.351   1.208   5.641 -2.4808 -0.3312  0.5092
 4886TIP3   OH236072   4.075   4.678  10.919 -0.7761 -0.8460  0.0585
 4886TIP3    H136073   4.014   4.706  10.850 -0.5277 -0.1530  0.1085
 4886TIP3    H236074   4.112   4.596  10.886  0.4329  0.2030 -1.3215
 4887TIP3   OH236075   6.457   0.124  11.940  0.4980 -0.4480 -0.2784
 4887TIP3    H136076   6.522   0.172  11.992  0.2329 -0.2606 -0.1121
 4887TIP3    H236077   6.377   0.175  11.950  0.0534 -1.2470  0.4024
 4888TIP3   OH236078   5.394   1.702   6.481 -0.0313  0.7807 -0.1363
 4888TIP3    H136079   5.355   1.739   6.402 -2.0545  1.9356  1.3151
 4888TIP3    H236080   5.335   1.632   6.508  1.5161 -0.7349 -0.4911
 4889TIP3   OH236081   0.852   5.221   6.368  0.0642  0.3936  0.4209
 4889TIP3    H136082   0.926   5.238   6.426  1.0194 -1.3844 -0.1944
 4889TIP3    H236083   0.853   5.294   6.306  1.2813  0.4402  0.4723
 4890TIP3   OH236084   0.264   5.012  11.305 -0.1177 -0.4523  0.5889
 4890TIP3    H136085   0.328   4.951  11.268  0.1163 -0.9242  1.7303
 4890TIP3    H236086   0.316   5.069  11.362 -0.5607 -0.1335  0.6810
 4891TIP3   OH236087   4.485   4.129  11.537 -0.4682 -0.1107 -0.2099
 4891TIP3    H136088   4.523   4.042  11.532 -1.2243 -0.5446  1.0353
 4891TIP3    H236089   4.484   4.149  11.631 -1.1003  0.8854 -0.4092
 4892TIP3   OH236090   0.048   6.307   1.568  0.4153 -0.5101  0.3577
 4892TIP3    H136091   0.017   6.314   1.659 -0.4152 -0.7918  0.1077
 4892TIP3    H236092   0.127   6.360   1.566  1.1503 -1.5110  1.5574
 4893TIP3   OH236093   5.071   6.321  13.310 -0.5710  0.0276  0.2685
 4893TIP3    H136094   5.139   6.353  13.369  0.4717 -1.5553 -0.0053
 4893TIP3    H236095   5.097   6.231  13.290 -2.6525 -0.5812  0.0025
 4894TIP3   OH236096   0.725   5.311   1.456 -0.1156 -0.1102 -0.1492
 4894TIP3    H136097   0.734   5.359   1.538 -1.5486  0.2993 -0.2208
 4894TIP3    H236098   0.701   5.377   1.391 -1.1434 -0.7564 -0.4519
 4895TIP3   OH236099   5.402   2.089   0.658 -0.2277  0.0119  0.1740
 4895TIP3    H136100   5.447   2.133   0.585 -0.8948 -0.0320 -0.2751
 4895TIP3    H236101   5.346   2.025   0.615  0.4922 -1.0635  0.8103
 4896TIP3   OH236102   4.249   0.492   4.263 -0.1272  0.2585  0.2879
 4896TIP3    H136103   4.284   0.414   4.220 -2.2832 -0.2530 -0.7035
 4896TIP3    H236104   4.255   0.472   4.356 -1.1869 -1.4184  0.0550
 4897TIP3   OH236105   3.594   0.762   4.962 -0.7137 -0.1475 -0.3342
 4897TIP3    H136106   3.659   0.754   5.032  0.6323  0.9319 -1.3784
 4897TIP3    H236107   3.516   0.719   4.996  0.6370 -1.8064  0.8610
 4898TIP3   OH236108   6.046   5.686  12.381 -0.2171 -0.1762  0.2867
 4898TIP3    H136109   6.053   5.746  12.307  0.7647 -0.7586 -0.1196
 4898TIP3    H236110   6.046   5.599  12.342 -0.0474 -0.4844  0.9503
 4899TIP3   OH236111   1.930   1.153   5.383 -0.2963  0.0933 -0.1299
 4899TIP3    H136112   1.966   1.215   5.446 -0.0772 -0.7853  0.6286
 4899TIP3    H236113   1.921   1.071   5.432 -0.1531 -0.6028 -1.2337
 4900TIP3   OH236114   3.741   0.604   0.353 -0.1682 -0.1492 -0.4207
 4900TIP3    H136115   3.824   0.644   0.326  0.6224 -0.1891  1.7287
 4900TIP3    H236116   3.726   0.637   0.442 -0.9247 -2.4083  0.3657
 4901TIP3   OH236117   1.385   4.523   1.042  0.2016  0.1829  0.4920
 4901TIP3    H136118   1.302   4.572   1.043  0.2985  0.3523  0.1739
 4901TIP3    H236119   1.452   4.589   1.057  0.6264  0.7245 -2.9308
 4902TIP3   OH236120   0.352   1.684  11.097 -0.2751 -0.0232  0.5901
 4902TIP3    H136121   0.409   1.614  11.130  1.1981  0.1180 -1.4676
 4902TIP3    H236122   0.305   1.645  11.024  0.5229  1.0758 -0.5524
 4903TIP3   OH236123   2.738   2.311   3.796 -0.8169  0.5482  0.4406
 4903TIP3    H136124   2.660   2.292   3.743 -1.4944  2.2616  0.7777
 4903TIP3    H236125   2.734   2.246   3.866 -0.8490 -0.6418 -0.6190
 4904TIP3   OH236126   2.019   2.972   4.371  0.0006 -0.3072  0.1898
 4904TIP3    H136127   1.926   2.974   4.393  0.1224 -0.1652  0.7112
 4904TIP3    H236128   2.022   2.978   4.276 -0.5830 -1.6448  0.0649
 4905TIP3   OH236129   4.878   2.243   5.305 -0.0638 -0.0810 -0.2287
 4905TIP3    H136130   4.829   2.326   5.310  0.1098 -0.0513  1.5137
 4905TIP3    H236131   4.828   2.183   5.360 -0.2672 -1.2227 -1.5870
 4906TIP3   OH236132   5.497   1.765   3.409 -0.0725 -0.6429  0.4805
 4906TIP3    H136133   5.571   1.824   3.421  1.9280 -2.6861 -1.1525
 4906TIP3    H236134   5.502   1.705   3.483  0.6909 -1.5251 -0.2642
 4907TIP3   OH236135   4.174   2.316  14.910  0.2332 -0.5623 -0.2102
 4907TIP3    H136136   4.210   2.261  14.839  1.4010 -0.8362  0.5690
 4907TIP3    H236137   4.239   2.385  14.922 -0.9278  0.6621 -0.7485
 4908TIP3   OH236138   4.353   4.734   3.748  0.2640  0.3447 -0.2361
 4908TIP3    H136139   4.432   4.689   3.716 -1.1119 -0.4996 -2.6666
 4908TIP3    H236140   4.322   4.784   3.673 -0.6893  1.9333  1.1582
 4909TIP3   OH236141   6.055   3.200  16.004 -0.0692 -0.1511 -0.1097
 4909TIP3    H136142   6.097   3.176  16.086  1.9043  1.0957 -0.6616
 4909TIP3    H236143   6.061   3.296  16.002 -1.9936 -0.0130 -0.7576
 4910TIP3   OH236144   1.470   5.246   3.745 -0.0449 -0.1418 -0.3649
 4910TIP3    H136145   1.417   5.301   3.688 -0.2875 -1.2720 -1.2889
 4910TIP3    H236146   1.556   5.242   3.703  0.0120 -0.3508 -0.2345
 4911TIP3   OH236147   3.141   6.409  12.770  0.2279 -0.6042 -0.1700
 4911TIP3    H136148   3.122   6.502  12.782  1.4648 -0.0622 -2.0681
 4911TIP3    H236149   3.148   6.397  12.676  1.5758 -2.3240  0.0805
 4912TIP3   OH236150   4.600   0.049  12.701  0.1567 -1.0964  0.1380
 4912TIP3    H136151   4.580   0.131  12.655  0.9344  0.1468  1.8637
 4912TIP3    H236152   4.546  -0.017  12.658 -1.3937  0.5467 -0.5723
 4913TIP3   OH236153   5.563   6.201   0.291 -0.0895 -0.4391  0.5117
 4913TIP3    H136154   5.639   6.160   0.250 -0.3555 -0.6663  0.2425
 4913TIP3    H236155   5.518   6.129   0.336  0.3954 -0.1311  1.5169
 4914TIP3   OH236156   0.352   4.910   0.650  0.1604 -0.0874  0.2966
 4914TIP3    H136157   0.315   4.823   0.634  1.9152 -0.9995  0.9399
 4914TIP3    H236158   0.310   4.966   0.584 -1.6540 -1.2132  0.4226
 4915TIP3   OH236159   1.038   1.048  17.195 -0.1250 -0.2768  0.7100
 4915TIP3    H136160   1.098   0.984  17.156  0.8429 -0.1098  1.8740
 4915TIP3    H236161   0.977   0.995  17.246  0.4361 -0.3179  1.3549
 4916TIP3   OH236162   4.094   5.178  11.008  0.3808  0.1851 -0.3360
 4916TIP3    H136163   4.154   5.251  10.991 -1.9405  2.0833 -0.8319
 4916TIP3    H236164   4.048   5.204  11.088  2.5816 -2.9400  2.2128
 4917TIP3   OH236165   6.170   4.832  13.623 -0.4668 -0.0863  0.3202
 4917TIP3    H136166   6.205   4.860  13.708 -1.2090 -1.1969  1.0115
 4917TIP3    H236167   6.080   4.862  13.622 -1.0547 -1.7441  0.7670
 4918TIP3   OH236168   3.123   3.682   1.745 -0.5749 -0.1908 -0.5972
 4918TIP3    H136169   3.096   3.632   1.668  0.8307 -0.8436 -0.6904
 4918TIP3    H236170   3.214   3.706   1.728 -0.1974 -0.4333  0.8910
 4919TIP3   OH236171   0.023   3.944  14.312 -0.0112 -0.0753 -0.7591
 4919TIP3    H136172   0.098   3.998  14.335  0.3116 -1.7224  2.8496
 4919TIP3    H236173  -0.050   3.984  14.360 -0.2836 -1.3032 -0.0930
 4920TIP3   OH236174   5.903   0.083   1.119  0.1149 -0.5744  0.6285
 4920TIP3    H136175   5.955   0.020   1.070 -2.3398 -1.9948 -0.3534
 4920TIP3    H236176   5.813   0.066   1.091 -0.8797  1.9458  1.9690
 4921TIP3   OH236177   3.922   3.424   1.298  0.0379 -0.6137  0.5970
 4921TIP3    H136178   3.874   3.483   1.240  1.2230 -1.3611 -1.2196
 4921TIP3    H236179   4.012   3.455   1.297 -0.1175  0.1529  3.1630
 4922TIP3   OH236180   3.125   3.154   2.420 -0.2189 -0.1323 -0.3623
 4922TIP3    H136181   3.102   3.217   2.352 -0.0063 -1.6913 -1.9491
 4922TIP3    H236182   3.072   3.180   2.496 -0.4025  1.6965 -1.0835
 4923TIP3   OH236183   5.590   5.307  12.317 -0.2407  0.1925  0.3206
 4923TIP3    H136184   5.535   5.276  12.245  1.6757 -1.4606 -0.5184
 4923TIP3    H236185   5.599   5.232  12.375  3.1208 -0.4688 -0.8722
 4924TIP3   OH236186   3.529   3.043   0.484 -0.5492 -0.4093  0.4570
 4924TIP3    H136187   3.513   3.048   0.578 -0.1691  0.3334  0.4805
 4924TIP3    H236188   3.619   3.073   0.472 -1.0341  0.7997 -0.2861
 4925TIP3   OH236189   3.709   6.267   5.157  0.4818 -0.0643 -0.1849
 4925TIP3    H136190   3.736   6.185   5.197  0.7044  0.4679  0.7787
 4925TIP3    H236191   3.649   6.307   5.220 -1.9684 -0.7999 -1.8974
 4926TIP3   OH236192   3.159   2.153  17.086 -0.4109  0.5379  0.1571
 4926TIP3    H136193   3.124   2.068  17.059  0.4354  0.8638 -2.2864
 4926TIP3    H236194   3.124   2.214  17.021  0.1538  1.8208  1.0224
 4927TIP3   OH236195   0.887   5.903   0.847  0.0375  0.1922  0.0705
 4927TIP3    H136196   0.884   5.864   0.934  1.6739  0.4769  0.2784
 4927TIP3    H236197   0.854   5.835   0.789  2.4085 -1.4020  0.4809
 4928TIP3   OH236198   6.550   4.763   1.166  0.3321  0.3677  0.1984
 4928TIP3    H136199   6.581   4.853   1.166  1.2840  0.0530  0.5307
 4928TIP3    H236200   6.601   4.720   1.235 -0.2836 -0.3683  0.2101
 4929TIP3   OH236201   2.386   2.797  11.396 -0.2959  0.9730 -0.3713
 4929TIP3    H136202   2.307   2.762  11.437 -0.8293  1.1952 -1.1747
 4929TIP3    H236203   2.402   2.738  11.322  0.0115  1.2131 -0.4971
 4930TIP3   OH236204   0.758   5.663  15.278 -0.1655  0.7362  0.7852
 4930TIP3    H136205   0.846   5.692  15.255 -0.0038  0.4781  1.0759
 4930TIP3    H236206   0.766   5.569  15.290 -0.8860  0.3893 -1.1104
 4931TIP3   OH236207   5.626   3.376  14.189 -0.4005 -0.0715 -0.4186
 4931TIP3    H136208   5.609   3.432  14.113 -1.9230  0.5942  0.3628
 4931TIP3    H236209   5.544   3.378  14.239  0.3944 -0.9108  0.9868
 4932TIP3   OH236210   5.741   3.202   1.074  0.5774  0.4186 -0.5712
 4932TIP3    H136211   5.649   3.214   1.099  1.2433  3.5598  0.9296
 4932TIP3    H236212   5.750   3.248   0.991  0.6933 -0.5237 -1.1019
 4933TIP3   OH236213   6.628   1.503   1.558  0.1242 -0.4610  0.3998
 4933TIP3    H136214   6.655   1.477   1.646 -0.3496 -0.1612  0.6382
 4933TIP3    H236215   6.588   1.425   1.520 -0.3379 -0.3823  0.7218
 4934TIP3   OH236216   0.483   2.689   4.289 -0.8404 -0.0057  0.4943
 4934TIP3    H136217   0.482   2.687   4.385  1.9761 -0.5094  0.5974
 4934TIP3    H236218   0.569   2.656   4.265 -1.9672 -1.2376 -2.3002
 4935TIP3   OH236219   2.616   3.617   5.875  0.0273  0.2999  0.4334
 4935TIP3    H136220   2.633   3.678   5.947  2.7521  1.7715 -1.2884
 4935TIP3    H236221   2.521   3.619   5.864 -0.1893  2.3684  2.0222
 4936TIP3   OH236222   4.850   4.248   6.086  0.0331  0.7955 -0.1575
 4936TIP3    H136223   4.773   4.275   6.036 -0.0148  0.0455 -0.5119
 4936TIP3    H236224   4.921   4.244   6.021 -0.2471 -1.1469 -0.4104
 4937TIP3   OH236225   0.944   4.059  16.422  0.1595  0.4863  0.2713
 4937TIP3    H136226   1.034   4.091  16.432  0.5358 -0.5092  0.1086
 4937TIP3    H236227   0.938   4.034  16.330 -0.5112  1.1900  0.1116
 4938TIP3   OH236228   6.130   0.900   0.695 -1.1607 -0.1551  0.2888
 4938TIP3    H136229   6.108   0.938   0.780  2.0317  0.4994  0.9502
 4938TIP3    H236230   6.214   0.940   0.672 -0.3654 -2.7128 -1.6663
 4939TIP3   OH236231   1.684   6.250   2.168  0.4118  0.8092 -0.2343
 4939TIP3    H136232   1.721   6.162   2.160  1.1684  1.0283  0.6481
 4939TIP3    H236233   1.619   6.243   2.237  0.5187  0.9543 -0.1174
 4940TIP3   OH236234   5.575   4.379   3.749 -0.1860  0.4583  0.5678
 4940TIP3    H136235   5.577   4.401   3.655  1.0745  0.8244  0.6650
 4940TIP3    H236236   5.590   4.462   3.793  2.5423 -0.1602  0.9959
 4941TIP3   OH236237   3.589   0.325   4.329 -0.4118  0.1619  0.3581
 4941TIP3    H136238   3.599   0.410   4.370 -0.6805 -0.2080  1.2136
 4941TIP3    H236239   3.511   0.287   4.371 -0.4268 -0.4130 -0.1663
 4942TIP3   OH236240   6.454   5.103  11.668  0.5520  0.3533  0.1544
 4942TIP3    H136241   6.411   5.027  11.629  0.2909  0.9750 -0.8255
 4942TIP3    H236242   6.502   5.069  11.743 -0.4032 -0.6080  0.3431
 4943TIP3   OH236243   5.163   5.035  15.042  0.6219  0.0679 -0.1705
 4943TIP3    H136244   5.223   5.025  14.968  0.7728  0.1396 -0.0587
 4943TIP3    H236245   5.166   5.128  15.063 -0.8872  0.4118 -1.3036
 4944TIP3   OH236246   4.789   5.081  14.877  0.7475 -0.1941  0.1493
 4944TIP3    H136247   4.855   5.149  14.865  1.3770 -1.0875 -1.7548
 4944TIP3    H236248   4.820   5.030  14.952  1.6297  0.0485 -0.0466
 4945TIP3   OH236249   3.050   5.969   3.391  0.0698  0.6728 -0.5445
 4945TIP3    H136250   2.962   5.940   3.413  0.2794 -0.1323 -0.7100
 4945TIP3    H236251   3.051   5.974   3.296  0.0238  1.2791 -0.5130
 4946TIP3   OH236252   1.910   5.810  13.133  0.2089  0.2015  0.1673
 4946TIP3    H136253   1.940   5.835  13.220  0.2687  0.4004  0.0916
 4946TIP3    H236254   1.986   5.827  13.077  0.0998  0.2832  0.0438
 4947TIP3   OH236255   0.905   2.410  16.285  0.2505  0.2622  0.3417
 4947TIP3    H136256   0.835   2.351  16.255 -1.2478  1.9698  0.3345
 4947TIP3    H236257   0.943   2.364  16.361 -0.3965 -1.0183 -0.0673
 4948TIP3   OH236258   1.146   5.819  15.737 -0.0046  0.5237 -0.0171
 4948TIP3    H136259   1.179   5.887  15.679  0.0624  1.1245  0.7096
 4948TIP3    H236260   1.107   5.867  15.811  0.3919 -0.2249  0.6954
 4949TIP3   OH236261   5.654   0.018   0.983 -0.0275 -0.2557  0.0076
 4949TIP3    H136262   5.619   0.104   0.958 -0.4449  0.2643  2.1533
 4949TIP3    H236263   5.583  -0.043   0.965  0.7636 -0.4550 -2.8847
 4950TIP3   OH236264   3.607   2.078  14.308  0.3417  0.7600 -0.2969
 4950TIP3    H136265   3.575   2.107  14.222 -0.1659  0.0843 -0.3439
 4950TIP3    H236266   3.529   2.073  14.362  0.8537  2.8395  0.7267
 4951TIP3   OH236267   5.682   5.014  13.676  0.0054  0.1376 -0.2538
 4951TIP3    H136268   5.607   5.036  13.620  0.6522  0.8004 -0.8851
 4951TIP3    H236269   5.685   5.084  13.741 -1.6580 -1.4005  1.6411
 4952TIP3   OH236270   1.412   4.111  11.776 -0.3327 -0.7260  0.2081
 4952TIP3    H136271   1.408   4.048  11.848  0.7188  0.0514  0.9867
 4952TIP3    H236272   1.385   4.061  11.699  1.2624 -2.3994  0.6382
 4953TIP3   OH236273   6.437   2.595  11.479  0.0295 -0.8012 -0.2199
 4953TIP3    H136274   6.415   2.571  11.570 -0.0068 -0.1339 -0.0441
 4953TIP3    H236275   6.403   2.522  11.427  0.9317 -1.6731  0.3720
 4954TIP3   OH236276   0.943   5.121   3.181  0.2923  0.0264  0.5969
 4954TIP3    H136277   0.999   5.177   3.128 -0.9444  1.4377  0.7351
 4954TIP3    H236278   0.868   5.100   3.125  0.7184 -1.5302  0.5440
 4955TIP3   OH236279   2.974   1.463   5.647  0.6415 -0.7010 -0.1773
 4955TIP3    H136280   2.886   1.455   5.684  0.1850 -1.1519 -1.3208
 4955TIP3    H236281   3.033   1.450   5.721 -0.2507 -0.6045  0.5626
 4956TIP3   OH236282   5.968   3.395  10.859 -0.4888  0.3071 -0.2742
 4956TIP3    H136283   5.990   3.341  10.784  0.9253  2.2047 -1.3195
 4956TIP3    H236284   5.873   3.387  10.868 -0.3853 -1.8141 -0.7448
 4957TIP3   OH236285   3.181   0.447   4.583  0.0155  0.5724  0.0160
 4957TIP3    H136286   3.140   0.422   4.666  0.5415 -0.8467 -0.1206
 4957TIP3    H236287   3.234   0.371   4.559 -1.7037  0.1032 -2.6598
 4958TIP3   OH236288   0.906   4.718  13.324 -0.0032 -0.8050  0.1169
 4958TIP3    H136289   0.983   4.749  13.276 -0.4961  1.1298  0.4983
 4958TIP3    H236290   0.941   4.683  13.405  0.5453 -0.6256 -0.0357
 4959TIP3   OH236291   6.300   3.261  13.306 -0.0573  0.3536 -0.0738
 4959TIP3    H136292   6.278   3.291  13.217 -0.2479 -0.2864 -0.2461
 4959TIP3    H236293   6.239   3.307  13.363 -0.7097 -0.1005 -0.3879
 4960TIP3   OH236294   6.343   0.138   4.817 -0.1185  0.4342 -0.3612
 4960TIP3    H136295   6.258   0.094   4.813 -0.5806  1.2928 -0.2346
 4960TIP3    H236296   6.345   0.178   4.904  1.4070 -1.4971  0.5570
 4961TIP3   OH236297   4.480   0.058   1.601  0.4642  0.9628 -0.4762
 4961TIP3    H136298   4.551   0.122   1.611  0.6611  0.5006  1.5539
 4961TIP3    H236299   4.496  -0.006   1.670 -1.6263  0.5251 -0.3465
 4962TIP3   OH236300   6.567   1.305   4.789 -0.8402  0.6187 -0.0193
 4962TIP3    H136301   6.483   1.260   4.782  0.0878 -1.1171 -0.6996
 4962TIP3    H236302   6.576   1.326   4.882 -1.2553 -0.7730  0.3554
 4963TIP3   OH236303   3.267   0.438  14.781 -0.0129 -0.1976  0.1422
 4963TIP3    H136304   3.219   0.483  14.850 -1.4387 -1.0402 -0.2577
 4963TIP3    H236305   3.359   0.449  14.805 -0.4693 -0.8267  2.4082
 4964TIP3   OH236306   2.795   5.359  14.347 -0.3530 -0.3241 -0.3158
 4964TIP3    H136307   2.766   5.395  14.263  2.9567 -1.9941 -2.3923
 4964TIP3    H236308   2.768   5.267  14.345 -0.4580 -0.3234  0.5939
 4965TIP3   OH236309   6.448   6.715  15.641  0.0974 -0.5024 -0.6005
 4965TIP3    H136310   6.483   6.782  15.700 -0.1772 -0.5704 -0.3558
 4965TIP3    H236311   6.465   6.632  15.686 -1.5066 -0.4703  0.1494
 4966TIP3   OH236312   6.058   4.604   4.363 -0.6185 -0.4766  0.0743
 4966TIP3    H136313   5.985   4.603   4.426 -1.3755  0.5682 -0.7586
 4966TIP3    H236314   6.017   4.589   4.278 -0.0194  1.1195 -0.5364
 4967TIP3   OH236315   0.855   0.532  13.071 -0.8651  0.8039  0.1478
 4967TIP3    H136316   0.900   0.543  13.155 -0.0730  1.4068 -0.3384
 4967TIP3    H236317   0.915   0.569  13.006 -1.1914 -0.2130 -0.7708
 4968TIP3   OH236318   1.525   3.302  12.708 -0.1931 -0.0870 -0.2922
 4968TIP3    H136319   1.553   3.286  12.618  1.7792  0.0414  0.2532
 4968TIP3    H236320   1.603   3.287  12.761 -1.6738 -1.7306  1.6016
 4969TIP3   OH236321   0.469   4.225   0.064 -0.3494  0.3489  0.0454
 4969TIP3    H136322   0.524   4.301   0.049  0.0590 -0.1558 -1.0873
 4969TIP3    H236323   0.408   4.224  -0.009 -1.9374  0.9142  1.2878
 4970TIP3   OH236324   6.248   0.237  13.240 -0.3404  0.3700  0.9822
 4970TIP3    H136325   6.277   0.153  13.204  1.5505  1.3574  0.0510
 4970TIP3    H236326   6.169   0.258  13.190 -0.1489 -0.2643  0.3975
 4971TIP3   OH236327   1.170   6.305   4.899 -0.0077 -0.0812  0.0028
 4971TIP3    H136328   1.182   6.337   4.809  0.1601  1.5152  0.5540
 4971TIP3    H236329   1.086   6.260   4.897 -0.5622  0.9390 -0.7072
 4972TIP3   OH236330   0.937   5.597  13.664 -0.4481  0.2879 -0.5839
 4972TIP3    H136331   0.842   5.607  13.667 -0.6723 -1.2683 -1.3957
 4972TIP3    H236332   0.953   5.541  13.588  1.1320  0.5903 -0.5131
 4973TIP3   OH236333   5.337   4.456  12.377 -0.4183 -0.3289  0.2546
 4973TIP3    H136334   5.294   4.373  12.358  0.1416 -0.9892  1.6974
 4973TIP3    H236335   5.426   4.446  12.344 -0.5366 -0.0448 -0.1610
 4974TIP3   OH236336   4.677   3.040   1.209  0.2858  0.1372  0.3384
 4974TIP3    H136337   4.661   2.957   1.165 -1.7563  0.6286  0.0535
 4974TIP3    H236338   4.627   3.034   1.291  3.7316 -0.6315  2.6364
 4975TIP3   OH236339   0.126   4.468   4.648 -0.1014 -0.2645 -0.2628
 4975TIP3    H136340   0.074   4.531   4.599  1.5378  1.1561 -0.2358
 4975TIP3    H236341   0.143   4.511   4.732  2.3115 -0.0293 -0.8028
 4976TIP3   OH236342   1.501   4.660   2.125  0.7136  0.2046 -0.3543
 4976TIP3    H136343   1.495   4.611   2.207 -1.5438 -0.1389 -0.6571
 4976TIP3    H236344   1.529   4.596   2.060 -1.2099 -0.5310 -0.5387
 4977TIP3   OH236345   6.752   2.221  13.551 -0.0786 -0.4378 -0.2329
 4977TIP3    H136346   6.688   2.275  13.596  0.5636 -0.3733  0.6257
 4977TIP3    H236347   6.754   2.139  13.601  0.8710 -0.2481  0.0561
 4978TIP3   OH236348   1.264   2.392  13.116 -0.2306  0.3446  0.4386
 4978TIP3    H136349   1.188   2.444  13.142 -0.1975  0.4919  0.2464
 4978TIP3    H236350   1.312   2.449  13.055 -0.4099 -0.0635 -0.0944
 4979TIP3   OH236351   0.702   2.344   3.486 -0.5124  0.5889  0.8222
 4979TIP3    H136352   0.652   2.403   3.430  0.0311  1.7595  1.5460
 4979TIP3    H236353   0.641   2.273   3.507 -0.9469  0.5070 -0.6312
 4980TIP3   OH236354   6.247   6.324  11.593  0.4520  0.0952 -0.0718
 4980TIP3    H136355   6.160   6.365  11.599  0.0047 -0.6846 -1.0299
 4980TIP3    H236356   6.232   6.233  11.616  0.9599 -0.1031 -0.5094
 4981TIP3   OH236357   2.601   1.960  14.063  0.0794 -0.1274  0.5982
 4981TIP3    H136358   2.677   1.922  14.019 -0.7703  2.3896 -3.5908
 4981TIP3    H236359   2.621   2.053  14.070 -2.0948  0.4063  0.4291
 4982TIP3   OH236360   3.685   4.020   1.347  0.1597  0.4503 -0.2540
 4982TIP3    H136361   3.608   4.078   1.340 -2.5350 -2.5292  1.9107
 4982TIP3    H236362   3.741   4.063   1.411 -2.4320  0.2411  2.3936
 4983TIP3   OH236363   5.290   0.780  13.933 -0.4368 -0.3862  0.2364
 4983TIP3    H136364   5.263   0.734  13.854  0.6984 -0.8183  0.0796
 4983TIP3    H236365   5.210   0.820  13.966 -0.5360  1.8876 -2.4553
 4984TIP3   OH236366   5.594   3.985  13.943  0.0510 -0.3660  0.6038
 4984TIP3    H136367   5.651   4.061  13.944  0.4238 -0.6140  2.7147
 4984TIP3    H236368   5.509   4.017  13.974 -0.2718 -0.4954 -0.1172
 4985TIP3   OH236369   0.732   1.650  11.054 -0.8336  0.4733  0.1039
 4985TIP3    H136370   0.803   1.593  11.083 -0.5452  2.0053  2.7370
 4985TIP3    H236371   0.666   1.590  11.019  1.1729 -1.0784 -1.2854
 4986TIP3   OH236372   0.775   3.395   4.888 -0.8137 -0.3571  0.2450
 4986TIP3    H136373   0.841   3.464   4.898 -0.8256 -0.1687 -0.8350
 4986TIP3    H236374   0.751   3.372   4.978 -0.8022  1.0478  0.6406
 4987TIP3   OH236375   5.291   1.764   1.069  0.5052 -0.3434 -0.1739
 4987TIP3    H136376   5.345   1.833   1.109  0.6327 -0.3186 -0.3871
 4987TIP3    H236377   5.301   1.778   0.975  0.7840 -0.8458 -0.2234
 4988TIP3   OH236378   4.879   0.115   2.404  0.1219  0.3968  0.4089
 4988TIP3    H136379   4.925   0.162   2.334 -1.2447 -0.7716 -1.3799
 4988TIP3    H236380   4.893   0.022   2.384 -1.3458  0.0307  0.9356
 4989TIP3   OH236381   5.348   5.360  15.599 -0.1235 -0.2020  0.5150
 4989TIP3    H136382   5.374   5.408  15.521  2.0185  0.3576  1.5013
 4989TIP3    H236383   5.327   5.429  15.663 -1.8610 -0.6476  0.4885
 4990TIP3   OH236384   4.980   5.383   1.059  0.6705 -0.0964 -0.2301
 4990TIP3    H136385   4.933   5.351   0.982  0.2631  0.1516 -0.0878
 4990TIP3    H236386   4.932   5.346   1.133 -0.2221  1.3392 -0.0348
 4991TIP3   OH236387   5.309   3.725   6.099 -0.0360 -0.4646 -0.9113
 4991TIP3    H136388   5.327   3.714   6.193 -1.0387  0.1496 -0.6258
 4991TIP3    H236389   5.230   3.674   6.083 -1.2562  1.2946 -0.8656
 4992TIP3   OH236390   1.358   1.603   1.573 -0.5574 -0.1323 -0.1841
 4992TIP3    H136391   1.402   1.562   1.498 -1.8999 -0.2319 -0.9516
 4992TIP3    H236392   1.309   1.675   1.535  0.2191  1.0016  0.8957
 4993TIP3   OH236393   2.579   4.185   5.139  0.4856  0.2024  0.3465
 4993TIP3    H136394   2.515   4.224   5.079  0.7363  0.7012  0.3928
 4993TIP3    H236395   2.552   4.217   5.226 -0.2032 -0.9593  0.5765
 4994TIP3   OH236396   4.210   6.019  14.671  0.3251  0.4358 -0.1555
 4994TIP3    H136397   4.131   6.050  14.627 -0.8138 -1.0908  0.7460
 4994TIP3    H236398   4.179   5.957  14.736  2.3593 -1.0686 -0.5311
 4995TIP3   OH236399   0.339   2.103   1.935  0.2013  0.1037  0.2312
 4995TIP3    H136400   0.314   2.015   1.965 -0.6187 -0.9442 -3.1223
 4995TIP3    H236401   0.256   2.147   1.918  0.5868  0.3427 -1.1296
 4996TIP3   OH236402   6.163   4.352   4.643  0.0939  0.0450 -0.4520
 4996TIP3    H136403   6.185   4.445   4.633  0.4396  0.1326  0.9769
 4996TIP3    H236404   6.146   4.341   4.736 -2.6871 -0.7492 -0.9451
 4997TIP3   OH236405   2.651   4.614  11.659  0.2957  0.2497 -0.1273
 4997TIP3    H136406   2.660   4.578  11.747  2.5624  0.4561 -0.2238
 4997TIP3    H236407   2.582   4.561  11.619  0.2332 -0.8043  1.2867
 4998TIP3   OH236408   0.071   6.593  16.524  0.2889  0.2729 -0.3839
 4998TIP3    H136409   0.070   6.504  16.560  1.1045 -0.3622 -1.8280
 4998TIP3    H236410  -0.021   6.612  16.505 -0.3070  0.9654  2.6484
 4999TIP3   OH236411   4.917   4.376  13.846  0.3075  0.5636 -0.1142
 4999TIP3    H136412   4.887   4.335  13.765 -1.4864  1.6650 -0.0591
 4999TIP3    H236413   4.839   4.384  13.900  1.4140  0.0783  1.6684
 5000TIP3   OH236414   5.242   0.158  15.878 -0.4857  0.3627 -0.0225
 5000TIP3    H136415   5.331   0.176  15.848 -0.5228 -0.4307 -0.6549
 5000TIP3    H236416   5.250   0.147  15.973 -0.1180  1.4685  0.0834
 5001TIP3   OH236417   6.749   3.314   0.276 -0.1104 -0.7366 -0.2657
 5001TIP3    H136418   6.814   3.315   0.347  0.0355 -1.6648 -0.3704
 5001TIP3    H236419   6.758   3.399   0.234 -0.9454  0.2740  1.4819
 5002TIP3   OH236420   0.402   1.993   4.732  0.6953  0.2009  0.0863
 5002TIP3    H136421   0.425   1.985   4.825  0.9774 -2.0331 -0.1117
 5002TIP3    H236422   0.313   1.960   4.727  0.0841  1.8525 -0.2254
 5003TIP3   OH236423   5.060   2.060  11.339 -0.4069  0.1694  0.4094
 5003TIP3    H136424   5.051   2.146  11.299  0.2925  0.4768  0.9061
 5003TIP3    H236425   5.046   2.075  11.433 -0.9460 -0.3685  0.4256
 5004TIP3   OH236426   4.078   1.104   3.138 -0.1417  0.5637 -0.3195
 5004TIP3    H136427   4.100   1.065   3.223 -1.3869  2.4216  0.9315
 5004TIP3    H236428   4.149   1.167   3.122  1.9058 -2.0421 -2.3709
 5005TIP3   OH236429   4.686   4.304  16.467 -0.6906  0.3496  0.1678
 5005TIP3    H136430   4.742   4.262  16.532 -0.6231  0.0058 -0.1105
 5005TIP3    H236431   4.656   4.233  16.411 -0.3468  0.7107 -0.4874
 5006TIP3   OH236432   2.559   5.210  12.526  0.5919  0.2072  0.0653
 5006TIP3    H136433   2.637   5.265  12.535 -0.8743  3.1583 -2.6999
 5006TIP3    H236434   2.487   5.273  12.526 -1.7441 -2.3054  1.4203
 5007TIP3   OH236435   6.345   2.204   2.442 -0.2905 -0.1964  0.0111
 5007TIP3    H136436   6.301   2.214   2.526  1.4224 -1.3171  1.1044
 5007TIP3    H236437   6.391   2.121   2.449 -0.1754 -0.3691 -2.0996
 5008TIP3   OH236438   0.774   1.694  12.560  0.3804  0.1709 -0.0228
 5008TIP3    H136439   0.768   1.760  12.630  2.9165  1.1489 -0.6235
 5008TIP3    H236440   0.848   1.639  12.586  0.1361 -0.6369 -0.9968
 5009TIP3   OH236441   6.492   2.879   2.551 -0.3262 -0.0820 -0.1915
 5009TIP3    H136442   6.493   2.904   2.644  1.3693 -1.5730  0.2422
 5009TIP3    H236443   6.492   2.962   2.504 -0.5730  0.6986  1.1429
 5010TIP3   OH236444   2.847   5.475  15.089  0.0917 -0.3832  0.2565
 5010TIP3    H136445   2.759   5.440  15.101  0.7455 -2.7529 -1.2181
 5010TIP3    H236446   2.893   5.452  15.169  0.2389 -2.1392 -0.3007
 5011TIP3   OH236447   1.391   6.677   2.041  0.3529  0.3691 -0.0431
 5011TIP3    H136448   1.467   6.633   2.079 -0.1553  0.5061  1.1686
 5011TIP3    H236449   1.347   6.718   2.116 -0.6980  0.6173 -0.7808
 5012TIP3   OH236450   0.523   0.700  13.542  0.2638 -0.1486  0.5920
 5012TIP3    H136451   0.520   0.793  13.567  1.8699  0.4930 -1.3133
 5012TIP3    H236452   0.431   0.673  13.541 -0.5574  2.2517 -1.4850
 5013TIP3   OH236453   4.452   2.651  13.499  0.0983 -0.3429  0.2552
 5013TIP3    H136454   4.417   2.649  13.588  0.8373 -1.2736  0.5404
 5013TIP3    H236455   4.540   2.614  13.507  0.4719  0.2907 -0.7380
 5014TIP3   OH236456   2.025   0.364   1.928  0.0097  0.1031  0.4680
 5014TIP3    H136457   1.931   0.353   1.917 -0.1027 -0.0901  1.5136
 5014TIP3    H236458   2.061   0.358   1.840 -1.0319  0.9558 -0.0337
 5015TIP3   OH236459   3.254   1.073  14.376  0.7402 -0.2597 -0.0956
 5015TIP3    H136460   3.325   1.138  14.367 -0.7199  1.6602  1.4239
 5015TIP3    H236461   3.249   1.055  14.470 -0.6107 -0.5560 -0.2016
 5016TIP3   OH236462   5.933   0.566   5.611  0.5057 -0.7463  0.2700
 5016TIP3    H136463   6.012   0.516   5.589  1.6307  0.5819  1.1334
 5016TIP3    H236464   5.907   0.531   5.697  0.0645 -1.2507 -0.0570
 5017TIP3   OH236465   6.446   6.776   2.592 -0.5897  0.0716 -0.1537
 5017TIP3    H136466   6.448   6.854   2.648 -1.0377  0.5818 -0.8259
 5017TIP3    H236467   6.530   6.733   2.608  0.9106  2.1560 -1.7496
 5018TIP3   OH236468   2.045   3.877   0.280  0.0524  0.0468  0.3246
 5018TIP3    H136469   2.041   3.810   0.349  0.1968  0.7308  1.0151
 5018TIP3    H236470   2.135   3.872   0.247  0.4777  0.7948  1.3118
 5019TIP3   OH236471   0.620   4.056   0.843  0.2249 -0.2880  0.0292
 5019TIP3    H136472   0.570   4.135   0.825  0.1684  0.0760  1.6486
 5019TIP3    H236473   0.711   4.085   0.847  0.2508 -0.3861  0.1669
 5020TIP3   OH236474   3.969   0.532   6.445  0.0580  0.2337  0.3879
 5020TIP3    H136475   3.963   0.598   6.515 -1.0888 -0.4271  0.9364
 5020TIP3    H236476   3.909   0.563   6.378  2.3911  1.7761 -1.1604
 5021TIP3   OH236477   0.940   1.104   3.020  0.1376 -0.4411 -0.5091
 5021TIP3    H136478   0.863   1.049   3.039 -0.3943 -0.8268 -3.3324
 5021TIP3    H236479   0.930   1.128   2.928  3.0886  0.0538 -0.7951
 5022TIP3   OH236480   3.108   2.920  14.356 -0.0597 -0.3372  0.3675
 5022TIP3    H136481   3.103   2.981  14.429 -0.6687 -0.4443  0.4246
 5022TIP3    H236482   3.021   2.926  14.315  0.4968  0.2512 -0.7720
 5023TIP3   OH236483   0.306   0.130  14.362 -0.1911 -0.1791 -0.0955
 5023TIP3    H136484   0.237   0.147  14.426 -0.7358 -0.3860 -0.6110
 5023TIP3    H236485   0.260   0.091  14.287  0.2934  0.9505 -1.0045
 5024TIP3   OH236486   0.185   3.760   0.258 -0.0002  0.7077 -0.1916
 5024TIP3    H136487   0.178   3.790   0.167 -0.7610 -1.0179 -0.7436
 5024TIP3    H236488   0.137   3.825   0.309 -0.2451  1.2678 -1.1109
 5025TIP3   OH236489   6.196   6.355   0.737 -0.0171 -0.3054  0.4333
 5025TIP3    H136490   6.223   6.344   0.828  0.2307 -1.1318  0.2698
 5025TIP3    H236491   6.271   6.323   0.686 -0.4169 -0.4847 -0.0520
 5026TIP3   OH236492   5.774   3.089   0.305  0.2595  0.2971  1.1962
 5026TIP3    H136493   5.761   3.163   0.246  1.1164  0.0221  0.6508
 5026TIP3    H236494   5.707   3.100   0.373 -0.1999  1.0679  0.6255
 5027TIP3   OH236495   2.103   4.439  16.635 -0.7701 -0.0880  0.2679
 5027TIP3    H136496   2.081   4.377  16.565 -0.3477 -1.6564  1.4784
 5027TIP3    H236497   2.171   4.495  16.596  0.9898 -2.2742  0.0512
 5028TIP3   OH236498   6.148   1.657  11.987  0.3770  0.3022  0.5248
 5028TIP3    H136499   6.242   1.661  11.970  0.5687  0.4834  1.5523
 5028TIP3    H236500   6.138   1.585  12.049 -0.0179  0.9912  1.2781
 5029TIP3   OH236501   5.583   0.210  13.202  0.0404 -0.3163 -0.3933
 5029TIP3    H136502   5.537   0.163  13.272 -0.6101  3.2339  1.7920
 5029TIP3    H236503   5.514   0.249  13.149  0.4071  1.7754  0.5511
 5030TIP3   OH236504   1.848   0.966   3.668 -0.7577  0.2951 -0.3912
 5030TIP3    H136505   1.849   0.891   3.728 -3.8792  0.2011 -0.2707
 5030TIP3    H236506   1.907   0.941   3.597  1.6324 -0.3534  1.6800
 5031TIP3   OH236507   3.106   3.519  14.847  0.1314 -0.0514 -0.2888
 5031TIP3    H136508   3.172   3.581  14.818  0.8623  0.0879  1.5483
 5031TIP3    H236509   3.042   3.516  14.775  0.0417  2.8221 -0.4343
 5032TIP3   OH236510   1.689   6.778  13.619 -0.1930 -0.2501  0.1985
 5032TIP3    H136511   1.638   6.707  13.658 -1.8228  1.6323  1.7160
 5032TIP3    H236512   1.626   6.828  13.567  0.3254  1.3769  1.0423
 5033TIP3   OH236513   5.716   0.469  15.765  0.6909 -0.1472  0.2046
 5033TIP3    H136514   5.671   0.516  15.835  1.6928 -1.2949  1.6809
 5033TIP3    H236515   5.659   0.395  15.744 -0.2110  0.8716 -1.1359
 5034TIP3   OH236516   2.953   0.231   4.613  0.6354 -0.0401 -0.4883
 5034TIP3    H136517   2.961   0.136   4.600 -0.0726 -0.2907  0.6743
 5034TIP3    H236518   2.867   0.252   4.576 -0.9199 -0.5762  2.4748
 5035TIP3   OH236519   4.536   3.353  15.086 -0.2548  0.0222 -0.6975
 5035TIP3    H136520   4.601   3.376  15.019  0.7217 -0.6460 -0.0243
 5035TIP3    H236521   4.453   3.352  15.040  0.1907  1.0669 -1.5637
 5036TIP3   OH236522   2.168   0.779   3.730  0.3708  0.0811  0.0833
 5036TIP3    H136523   2.228   0.724   3.680  1.0684 -0.2655  1.2745
 5036TIP3    H236524   2.110   0.717   3.775 -1.3806  0.4034 -1.5621
 5037TIP3   OH236525   1.631   3.587  16.730  0.0078 -0.2550 -0.0411
 5037TIP3    H136526   1.608   3.578  16.822  0.3592 -0.1858  0.0558
 5037TIP3    H236527   1.725   3.569  16.727  0.4126  1.5917 -0.0833
 5038TIP3   OH236528   0.119   3.770   3.257 -0.1473 -0.9420 -0.4266
 5038TIP3    H136529   0.128   3.675   3.252  2.5295 -0.9846  2.5219
 5038TIP3    H236530   0.209   3.803   3.251 -0.5726  1.0799  2.3341
 5039TIP3   OH236531   2.547   4.293  13.176 -0.1902  0.0791  0.2151
 5039TIP3    H136532   2.513   4.346  13.248  0.2641 -0.0509  0.5234
 5039TIP3    H236533   2.589   4.219  13.218 -0.1676 -0.1408 -0.1949
 5040TIP3   OH236534   5.313   0.163   5.039  0.1835 -0.6186  0.1301
 5040TIP3    H136535   5.377   0.232   5.053  0.2906 -0.5303 -0.7504
 5040TIP3    H236536   5.228   0.204   5.058  0.4010 -0.8959  1.8786
 5041TIP3   OH236537   6.301   2.586  15.930  0.1914 -0.1042 -0.6181
 5041TIP3    H136538   6.285   2.621  15.843 -0.6339 -0.3673 -0.5758
 5041TIP3    H236539   6.305   2.663  15.987  0.2910  0.0369 -0.8159
 5042TIP3   OH236540   5.277   6.692   5.041 -0.4018 -0.1293 -0.5785
 5042TIP3    H136541   5.298   6.785   5.037  0.3775 -0.3408 -2.6083
 5042TIP3    H236542   5.359   6.650   5.065 -0.8714 -0.2904  0.8379
 5043TIP3   OH236543   3.234   1.404  12.987 -0.5601  0.0276 -0.6493
 5043TIP3    H136544   3.229   1.383  13.080  2.3807  0.3287 -0.3318
 5043TIP3    H236545   3.220   1.499  12.983  0.0305  0.1318 -0.3931
 5044TIP3   OH236546   1.109   4.528  11.937 -0.3858 -0.3698  0.0780
 5044TIP3    H136547   1.057   4.448  11.927  0.2177 -0.6931 -0.5752
 5044TIP3    H236548   1.199   4.498  11.931 -0.0338 -0.0267  2.6701
 5045TIP3   OH236549   3.417   0.367  11.159 -0.2560 -0.9835 -0.3310
 5045TIP3    H136550   3.369   0.344  11.239 -1.2409  1.3289 -0.1965
 5045TIP3    H236551   3.488   0.423  11.189  0.2539 -1.2971 -0.9414
 5046TIP3   OH236552   6.373   0.655  17.037  0.0877 -0.4164  0.0461
 5046TIP3    H136553   6.342   0.653  16.946  0.3798 -2.1170 -0.0385
 5046TIP3    H236554   6.315   0.717  17.081 -3.1422 -3.0253 -0.2322
 5047TIP3   OH236555   0.111   5.453   2.796  0.0917  0.3320 -0.0961
 5047TIP3    H136556   0.133   5.491   2.711  1.8566  0.9366  0.5824
 5047TIP3    H236557   0.148   5.365   2.792 -3.8586 -1.4902 -1.6101
 5048TIP3   OH236558   5.656   0.083  14.047 -0.1339 -0.0829  0.3593
 5048TIP3    H136559   5.568   0.063  14.014 -0.4845 -0.1252  1.2750
 5048TIP3    H236560   5.698   0.131  13.976 -0.1824 -1.7718 -0.8683
 5049TIP3   OH236561   0.319   4.435   0.491  0.2255  0.5728 -0.3632
 5049TIP3    H136562   0.286   4.502   0.551  1.8103  1.7345 -0.7330
 5049TIP3    H236563   0.405   4.414   0.525 -0.2725 -1.3843 -0.2149
 5050TIP3   OH236564   6.364   1.487  13.741  0.2247  0.0954  0.2813
 5050TIP3    H136565   6.278   1.495  13.701  0.8931  0.3990 -1.2120
 5050TIP3    H236566   6.400   1.576  13.739  0.7367 -0.1021  0.4625
 5051TIP3   OH236567   1.522   6.268  15.881 -0.0873  0.3793  0.4276
 5051TIP3    H136568   1.474   6.267  15.964  0.1106  2.1613  0.5997
 5051TIP3    H236569   1.551   6.359  15.871  3.8198 -0.6445  0.6908
 5052TIP3   OH236570   3.916   3.780   3.462  0.7988  0.1968 -0.2580
 5052TIP3    H136571   3.839   3.831   3.436  0.7415  1.5645  2.3504
 5052TIP3    H236572   3.881   3.708   3.515  1.2205 -0.0022 -0.2401
 5053TIP3   OH236573   0.250   5.654   3.564  0.1845  0.0742 -0.0645
 5053TIP3    H136574   0.290   5.568   3.576 -0.9574 -0.4321  0.2721
 5053TIP3    H236575   0.319   5.716   3.586  0.3498 -0.7717  2.0623
 5054TIP3   OH236576   2.785   1.332   1.543  0.3738  0.5957 -0.2770
 5054TIP3    H136577   2.828   1.313   1.460 -0.9662  0.4273 -0.9696
 5054TIP3    H236578   2.764   1.426   1.538  0.0141  0.5182 -0.2770
 5055TIP3   OH236579   0.900   1.145   3.867 -0.6176 -0.3568 -0.0070
 5055TIP3    H136580   0.896   1.169   3.960  0.0165 -0.6027  0.0922
 5055TIP3    H236581   0.894   1.228   3.821 -0.8294 -0.2224  0.2592
 5056TIP3   OH236582   2.773   3.108   0.537  0.1430  0.1222  0.1610
 5056TIP3    H136583   2.716   3.153   0.475 -0.5173  0.0369  0.6941
 5056TIP3    H236584   2.715   3.083   0.609  0.9242  0.3736  0.8959
 5057TIP3   OH236585   6.723   2.328   5.125 -0.1513 -0.0550  0.0391
 5057TIP3    H136586   6.784   2.255   5.120  1.5234  1.3148 -1.0763
 5057TIP3    H236587   6.639   2.291   5.099  0.5590 -1.6520 -0.1224
 5058TIP3   OH236588   1.642   3.642  14.617 -0.0450  0.6033 -0.2682
 5058TIP3    H136589   1.656   3.725  14.664  0.9033  0.9726 -1.1558
 5058TIP3    H236590   1.730   3.612  14.595 -0.4492  0.2910 -1.5456
 5059TIP3   OH236591   6.226   4.985   0.841  0.1055 -0.5205 -0.8372
 5059TIP3    H136592   6.229   4.912   0.779 -0.0833 -1.4603  0.2340
 5059TIP3    H236593   6.236   4.944   0.927  0.0768  0.7291 -0.2171
 5060TIP3   OH236594   3.415   2.685  12.971  0.2388 -0.5850 -0.0740
 5060TIP3    H136595   3.405   2.694  13.066  0.8525 -0.5975 -0.0085
 5060TIP3    H236596   3.508   2.666  12.957  1.6826  5.1587 -1.0081
 5061TIP3   OH236597   1.754   6.032  17.205  0.4214 -0.4705 -0.3343
 5061TIP3    H136598   1.675   6.067  17.245  1.0812  2.6676 -1.4515
 5061TIP3    H236599   1.759   6.075  17.120  2.1245 -2.3802 -1.2925
 5062TIP3   OH236600   3.738   0.930   4.144  0.6012  0.2584  0.3563
 5062TIP3    H136601   3.794   0.957   4.217  0.3804 -2.0184  1.4451
 5062TIP3    H236602   3.725   0.836   4.157 -0.9469  0.1361 -1.6208
 5063TIP3   OH236603   5.917   2.964  12.009 -0.2650 -0.0921  0.3771
 5063TIP3    H136604   5.943   2.881  11.969  0.5295  0.2792  0.0892
 5063TIP3    H236605   5.853   3.002  11.949 -0.4981 -0.4171  0.4211
 5064TIP3   OH236606   3.068   0.510  11.403  0.2614  0.1458 -0.8406
 5064TIP3    H136607   2.980   0.472  11.400 -0.6809  2.0702  0.3338
 5064TIP3    H236608   3.126   0.436  11.413 -1.1148 -1.2896 -2.7797
 5065TIP3   OH236609   4.814   1.850   2.908  0.1538  0.2079 -0.1014
 5065TIP3    H136610   4.883   1.796   2.947  0.5980  0.9386  0.1409
 5065TIP3    H236611   4.857   1.894   2.834 -0.1462  0.4081 -0.1595
 5066TIP3   OH236612   2.687   6.048   0.906 -0.2989 -0.0267  0.1813
 5066TIP3    H136613   2.770   6.086   0.933  0.9663 -2.2889 -0.2766
 5066TIP3    H236614   2.627   6.068   0.978  0.8118  1.0338  0.8448
 5067TIP3   OH236615   3.410   5.660   6.061 -0.2572  0.2933  0.2804
 5067TIP3    H136616   3.366   5.641   6.144 -0.7924  0.7162  0.1014
 5067TIP3    H236617   3.500   5.630   6.074  0.1616  1.9710  1.6567
 5068TIP3   OH236618   1.830   2.593  15.308 -0.1901  0.1337  0.3580
 5068TIP3    H136619   1.792   2.678  15.285 -2.9904 -1.3257 -0.8470
 5068TIP3    H236620   1.855   2.554  15.225  0.4503 -0.5100  0.8412
 5069TIP3   OH236621   5.970   6.516  15.722  0.6129 -0.0685  0.1260
 5069TIP3    H136622   6.004   6.519  15.633 -1.6059 -0.9946 -0.8220
 5069TIP3    H236623   5.952   6.607  15.744 -1.7825 -0.0168 -1.6633
 5070TIP3   OH236624   0.033   0.591   2.169  0.5173  0.2481  0.4269
 5070TIP3    H136625   0.011   0.501   2.191  1.8749 -1.3336 -3.6988
 5070TIP3    H236626  -0.050   0.632   2.144  0.0595 -0.2755  1.0817
 5071TIP3   OH236627   1.488   3.175   1.260 -0.7946 -0.7255  0.2809
 5071TIP3    H136628   1.493   3.164   1.355  0.9344 -1.7157  0.1289
 5071TIP3    H236629   1.566   3.129   1.227 -0.6569  0.6995 -1.5185
 5072TIP3   OH236630   6.604   2.661  12.345  0.5069  0.0298  0.0082
 5072TIP3    H136631   6.537   2.710  12.296 -0.4910  0.4532  1.7046
 5072TIP3    H236632   6.557   2.585  12.379 -0.2647  2.0917  4.2248
 5073TIP3   OH236633   5.237   1.204   2.377  0.3182 -0.2275  0.1903
 5073TIP3    H136634   5.143   1.195   2.390  0.1419  1.6057  0.5050
 5073TIP3    H236635   5.271   1.115   2.382 -0.8369 -0.6320  4.4987
 5074TIP3   OH236636   3.909   1.894   4.821 -0.6272  0.1807 -0.5143
 5074TIP3    H136637   3.946   1.806   4.817 -2.5255 -0.5937 -2.5864
 5074TIP3    H236638   3.917   1.919   4.914  0.0706 -2.0838  0.0956
 5075TIP3   OH236639   1.969   5.582  12.103 -0.1905 -0.1546 -0.5278
 5075TIP3    H136640   1.918   5.507  12.072  1.6468 -0.7553 -2.3844
 5075TIP3    H236641   1.964   5.646  12.031  0.2106  0.5023  0.0100
 5076TIP3   OH236642   2.524   5.606   2.191  0.4737 -0.3272 -0.1669
 5076TIP3    H136643   2.509   5.518   2.225 -0.1754 -0.2227 -0.1701
 5076TIP3    H236644   2.484   5.606   2.104  1.0906 -0.2353 -0.4615
 5077TIP3   OH236645   2.897   3.870  10.454  0.1228  0.1966 -0.0634
 5077TIP3    H136646   2.907   3.965  10.461  0.5673  0.0476  2.6834
 5077TIP3    H236647   2.813   3.852  10.497 -0.3051 -0.6280 -1.1843
 5078TIP3   OH236648   1.193   1.769  12.700  0.1447  0.3948 -0.0304
 5078TIP3    H136649   1.103   1.759  12.667 -0.2102 -0.7061  1.1877
 5078TIP3    H236650   1.182   1.787  12.793  1.2079 -0.7357  0.3386
 5079TIP3   OH236651   5.235   4.794  14.060 -0.0418 -0.3597  0.2110
 5079TIP3    H136652   5.168   4.814  14.126 -0.2359  0.4096 -0.2056
 5079TIP3    H236653   5.200   4.719  14.012 -0.6378  0.0684 -0.0349
 5080TIP3   OH236654   6.304   5.772  15.067  0.1007  0.6087  0.0828
 5080TIP3    H136655   6.304   5.711  14.993  0.1183 -0.7800  1.1687
 5080TIP3    H236656   6.331   5.856  15.030  2.6736 -0.6129 -1.0285
 5081TIP3   OH236657   1.009   1.503  13.538  0.1249 -0.3550 -0.1439
 5081TIP3    H136658   1.030   1.435  13.602  2.6659 -0.6309 -1.1720
 5081TIP3    H236659   0.953   1.564  13.586 -0.0444 -1.7908  1.5906
 5082TIP3   OH236660   0.480   2.522   3.836  0.6322  0.4428  0.2298
 5082TIP3    H136661   0.553   2.521   3.899  0.2982 -0.3703  0.6205
 5082TIP3    H236662   0.402   2.525   3.891  0.2943 -1.4744 -0.0854
 5083TIP3   OH236663   1.108   0.727  12.592  0.1591  0.1432 -0.4897
 5083TIP3    H136664   1.070   0.641  12.577  1.1816 -0.8252  1.9534
 5083TIP3    H236665   1.190   0.710  12.638 -0.0156  2.4260  0.8576
 5084TIP3   OH236666   4.389   1.581   3.474  0.6088  0.1843 -0.2447
 5084TIP3    H136667   4.328   1.636   3.425  0.3328  0.1877  0.1051
 5084TIP3    H236668   4.393   1.621   3.561  0.6907 -0.1349 -0.1006
 5085TIP3   OH236669   6.053   2.283  13.540  0.0798 -0.1900 -0.6401
 5085TIP3    H136670   6.014   2.239  13.465 -2.6862  0.5581  0.2364
 5085TIP3    H236671   6.095   2.360  13.503 -0.7882 -0.1159 -1.5133
 5086TIP3   OH236672   3.754   4.333  13.369  0.1505 -0.1457  0.1674
 5086TIP3    H136673   3.723   4.264  13.310  0.1875 -1.2430  1.4035
 5086TIP3    H236674   3.849   4.325  13.368  0.2327  0.6991 -0.6104
 5087TIP3   OH236675   3.855   3.946   5.243  0.3078 -0.2654  0.8187
 5087TIP3    H136676   3.912   4.022   5.251  0.7465 -0.5092  0.0863
 5087TIP3    H236677   3.863   3.901   5.328  0.4471  0.2178  1.0635
 5088TIP3   OH236678   4.400   0.194  16.314 -0.1172  0.2031 -0.4088
 5088TIP3    H136679   4.389   0.168  16.406  3.6762 -0.1999  0.1126
 5088TIP3    H236680   4.329   0.149  16.268 -1.6236 -0.2893  2.1837
 5089TIP3   OH236681   5.444   1.083   2.994 -0.1539  0.0738 -1.0681
 5089TIP3    H136682   5.357   1.081   3.035  0.6441  0.4451  0.7433
 5089TIP3    H236683   5.465   1.176   2.987  0.9559 -0.0280  0.4905
 5090TIP3   OH236684   3.248   3.812  12.076 -0.5058  0.5585 -0.2867
 5090TIP3    H136685   3.313   3.752  12.037 -2.7306 -0.7649 -2.2707
 5090TIP3    H236686   3.175   3.755  12.100 -1.2822  2.0902  1.1496
 5091TIP3   OH236687   4.503   1.949   1.717  0.5554  0.9917  0.6157
 5091TIP3    H136688   4.457   1.926   1.636  0.7297  1.0199  0.5062
 5091TIP3    H236689   4.510   1.867   1.765 -0.1701  1.1105  0.9234
 5092TIP3   OH236690   0.999   5.426   1.312 -0.2782  0.4127 -0.1277
 5092TIP3    H136691   1.040   5.375   1.243  0.8008 -0.7037  1.2833
 5092TIP3    H236692   0.958   5.361   1.369 -2.3381  1.3897 -0.4126
 5093TIP3   OH236693   2.499   3.063  13.885 -0.0411 -0.4359 -0.3043
 5093TIP3    H136694   2.563   3.007  13.929 -0.9281 -0.5142  0.9527
 5093TIP3    H236695   2.422   3.008  13.875  0.1286 -0.4087 -2.0092
 5094TIP3   OH236696   1.310   3.237  14.179  0.2867  0.3131 -0.2676
 5094TIP3    H136697   1.294   3.177  14.107  0.2929  1.0470 -0.8926
 5094TIP3    H236698   1.267   3.318  14.154  1.3862  0.9924 -0.0569
 5095TIP3   OH236699   3.916   3.372  12.184  1.0811  0.0994 -0.3119
 5095TIP3    H136700   3.914   3.458  12.225  0.0778 -0.8006  1.6506
 5095TIP3    H236701   4.005   3.340  12.200  0.1135 -1.2179  3.5662
 5096TIP3   OH236702   6.247   5.809   3.458  0.5298 -0.0500  0.2584
 5096TIP3    H136703   6.241   5.864   3.380 -0.4578 -1.4750 -0.7105
 5096TIP3    H236704   6.212   5.863   3.528  0.2538  0.8173 -0.5243
 5097TIP3   OH236705   1.916   1.500   3.635 -0.7356  0.1537 -0.2391
 5097TIP3    H136706   1.929   1.559   3.560  2.2740  0.8518  0.6615
 5097TIP3    H236707   1.959   1.419   3.609 -0.6470  0.0255  0.2917
 5098TIP3   OH236708   5.242   5.590  11.734  0.0547  0.0182  0.5970
 5098TIP3    H136709   5.227   5.515  11.676 -2.2299  0.7362  0.1434
 5098TIP3    H236710   5.173   5.583  11.800 -0.3424  1.8025  0.4183
 5099TIP3   OH236711   0.581   1.914  14.116  0.3007  0.1624  0.0253
 5099TIP3    H136712   0.486   1.900  14.121  0.2875 -0.1048 -0.7802
 5099TIP3    H236713   0.619   1.831  14.144  0.2354 -1.0487 -3.0356
 5100TIP3   OH236714   1.511   6.194  12.107  0.0893  0.2549  0.7412
 5100TIP3    H136715   1.558   6.271  12.074  2.0848 -2.1109 -2.4140
 5100TIP3    H236716   1.445   6.176  12.040 -0.5205 -0.6716  1.5683
 5101TIP3   OH236717   1.071   1.747   2.055  0.1217 -0.5459 -0.5556
 5101TIP3    H136718   1.025   1.812   2.108  0.1465 -0.2695 -0.8717
 5101TIP3    H236719   1.163   1.758   2.078  0.0925 -0.7022 -0.3576
 5102TIP3   OH236720   5.044   4.026  11.462  0.0993  0.1629 -0.6608
 5102TIP3    H136721   5.042   4.004  11.369 -1.4690 -1.4849 -0.3114
 5102TIP3    H236722   4.955   4.059  11.480  0.6073  1.1560  0.1146
 5103TIP3   OH236723   0.994   2.690   5.909  0.0518  0.4986  0.0235
 5103TIP3    H136724   0.982   2.668   5.817  0.1732  1.0520 -0.1260
 5103TIP3    H236725   0.965   2.781   5.916 -2.1538 -0.1895  0.9736
 5104TIP3   OH236726   2.549   3.749   4.913 -0.1930  0.3489  0.2149
 5104TIP3    H136727   2.630   3.789   4.946 -0.8042  1.4245  0.4303
 5104TIP3    H236728   2.579   3.671   4.865  1.2337  2.2250 -2.1564
 5105TIP3   OH236729   6.223   4.613   4.729 -0.0166 -0.2422  0.6039
 5105TIP3    H136730   6.288   4.575   4.789  1.2013  2.0222  0.8210
 5105TIP3    H236731   6.206   4.700   4.763 -0.1504  0.7138 -1.6858
 5106TIP3   OH236732   3.986   0.098  13.313 -0.6582 -0.5307  0.6268
 5106TIP3    H136733   4.000   0.171  13.374 -0.0400 -0.9555  1.0167
 5106TIP3    H236734   4.071   0.054  13.310 -1.1725 -1.5640  0.8333
 5107TIP3   OH236735   5.557   4.729  17.106 -0.3973  0.5344  0.3492
 5107TIP3    H136736   5.467   4.751  17.131 -0.7496 -1.4742  1.0113
 5107TIP3    H236737   5.611   4.787  17.159 -1.2631 -0.3728  2.3370
 5108TIP3   OH236738   5.096   6.381   5.076  0.0376  0.8867 -0.6490
 5108TIP3    H136739   5.160   6.424   5.132 -0.4610  2.1425 -1.0131
 5108TIP3    H236740   5.022   6.363   5.133  0.2176  0.5794 -0.5122
 5109TIP3   OH236741   0.621   2.614  14.637  0.7180  0.6581  0.5264
 5109TIP3    H136742   0.696   2.650  14.589  0.4885  1.4689  0.7653
 5109TIP3    H236743   0.595   2.684  14.697 -0.1071  0.3069  0.5896
 5110TIP3   OH236744   2.705   3.884   2.756 -0.2589  0.5198  0.0413
 5110TIP3    H136745   2.702   3.893   2.851 -1.2359  3.0678 -0.1441
 5110TIP3    H236746   2.780   3.827   2.739 -0.4942 -0.5596  2.3404
 5111TIP3   OH236747   3.063   2.821   0.723 -0.0657 -0.2554 -0.2108
 5111TIP3    H136748   2.979   2.867   0.727  0.4613  0.7239 -0.1483
 5111TIP3    H236749   3.043   2.741   0.674 -1.4431 -0.9690  1.4202
 5112TIP3   OH236750   2.112   3.207   2.214  0.6357 -0.3176 -0.3459
 5112TIP3    H136751   2.120   3.161   2.298 -0.7398 -1.4143 -0.7734
 5112TIP3    H236752   2.019   3.203   2.193  0.5571  2.2081 -0.7129
 5113TIP3   OH236753   1.834   6.003   0.332  0.1016  0.2085 -0.0952
 5113TIP3    H136754   1.921   6.037   0.353 -0.3457  2.8058 -1.9868
 5113TIP3    H236755   1.849   5.941   0.260  0.3955  0.4469 -0.2402
 5114TIP3   OH236756   3.599   0.071  12.648 -0.2010 -0.2990  0.8459
 5114TIP3    H136757   3.608   0.064  12.553 -0.9504 -1.9991  0.8564
 5114TIP3    H236758   3.667   0.133  12.674 -1.1609  1.6748 -0.9699
 5115TIP3   OH236759   0.869   4.737   3.698 -0.0883  0.2265  0.6135
 5115TIP3    H136760   0.940   4.721   3.635 -0.0634  0.7809  0.4930
 5115TIP3    H236761   0.912   4.735   3.783  0.1341  0.8673  0.5219
 5116TIP3   OH236762   0.371   4.298   2.255 -0.1949  0.1948  0.1133
 5116TIP3    H136763   0.304   4.291   2.322 -0.2172  1.7729  0.2945
 5116TIP3    H236764   0.355   4.223   2.197 -2.0319  0.4438  0.2287
 5117TIP3   OH236765   4.811   6.087   0.395 -0.3705  0.4549 -0.3784
 5117TIP3    H136766   4.817   6.104   0.489 -0.3330  0.1702 -0.3286
 5117TIP3    H236767   4.721   6.109   0.372  0.2934  3.0110 -0.7770
 5118TIP3   OH236768   3.589   5.643   2.098  0.5850  0.7254 -0.0156
 5118TIP3    H136769   3.589   5.731   2.134  0.3442  1.0372 -0.7587
 5118TIP3    H236770   3.649   5.648   2.023  2.7371 -0.4214  1.5139
 5119TIP3   OH236771   4.052   1.985   2.423 -0.6901  0.2045 -0.5388
 5119TIP3    H136772   4.098   1.903   2.404  1.3328  1.4923 -1.6391
 5119TIP3    H236773   3.997   2.001   2.346 -1.4887 -0.3541 -0.0944
 5120TIP3   OH236774   2.677   4.795   3.342  0.0800 -0.8616  0.0822
 5120TIP3    H136775   2.690   4.799   3.248 -2.8667 -0.3626 -0.3967
 5120TIP3    H236776   2.582   4.788   3.353 -0.0016  2.2876  3.0481
 5121TIP3   OH236777   1.257   0.738  10.910  0.1522  0.6815  0.5329
 5121TIP3    H136778   1.167   0.707  10.910  0.4326 -0.1787  1.6091
 5121TIP3    H236779   1.302   0.682  10.847  0.0696  0.6882  0.4680
 5122TIP3   OH236780   0.162   4.670  13.547  0.1636 -0.5733 -0.0122
 5122TIP3    H136781   0.071   4.672  13.517  0.1861  0.7455 -0.0430
 5122TIP3    H236782   0.159   4.624  13.631 -0.9536  1.6110  1.2248
 5123TIP3   OH236783   2.822   4.102   0.064 -0.1280  0.1142  0.6361
 5123TIP3    H136784   2.915   4.111   0.044 -0.2372  0.0828  0.0998
 5123TIP3    H236785   2.781   4.080  -0.020 -0.8820  2.0271  0.4654
 5124TIP3   OH236786   3.187   2.770   5.303  0.0619 -0.2856 -0.3934
 5124TIP3    H136787   3.258   2.792   5.363 -0.6029 -1.3278  0.7976
 5124TIP3    H236788   3.226   2.708   5.241  0.2835 -0.5750  0.0366
 5125TIP3   OH236789   3.135   2.661   4.295 -0.2117 -0.0778 -0.0669
 5125TIP3    H136790   3.063   2.608   4.330 -1.3556  1.2779 -0.2970
 5125TIP3    H236791   3.103   2.691   4.210  0.5078  0.7834 -0.0402
 5126TIP3   OH236792   0.801   5.213  16.245  0.2950 -0.1629  0.4068
 5126TIP3    H136793   0.869   5.154  16.278  1.3365  0.2615 -0.8879
 5126TIP3    H236794   0.765   5.168  16.168  1.0248  0.8013 -0.5330
 5127TIP3   OH236795   5.762   4.466  11.487 -0.2662 -0.1214  0.2775
 5127TIP3    H136796   5.735   4.399  11.424 -1.7255 -0.6491  1.3983
 5127TIP3    H236797   5.823   4.420  11.545 -0.3259 -0.1433  0.3233
 5128TIP3   OH236798   0.928   0.561   3.391 -0.2664 -0.4658  0.5566
 5128TIP3    H136799   0.947   0.473   3.357  2.6819  0.4929 -0.6174
 5128TIP3    H236800   0.897   0.546   3.480  0.3927 -2.7087  0.4733
 5129TIP3   OH236801   0.248   5.118   4.453 -0.7362 -0.2481 -0.2159
 5129TIP3    H136802   0.270   5.114   4.546 -1.2549 -1.7994 -0.1247
 5129TIP3    H236803   0.328   5.147   4.410  0.6635 -2.8201  0.4056
 5130TIP3   OH236804   4.439   1.073   5.849  0.0546  0.0821  0.1940
 5130TIP3    H136805   4.467   1.079   5.941  1.0922 -0.1579 -0.1003
 5130TIP3    H236806   4.484   0.996   5.815 -1.1959 -0.4770 -0.2280
 5131TIP3   OH236807   2.854   2.777   0.103 -0.5109 -0.1396 -0.4306
 5131TIP3    H136808   2.883   2.749   0.190  1.0041 -0.1871 -0.9317
 5131TIP3    H236809   2.933   2.778   0.050 -1.0944  1.6500 -1.3637
 5132TIP3   OH236810   5.499   1.876  14.276 -0.0195  0.0866  0.2287
 5132TIP3    H136811   5.433   1.806  14.282  1.5100 -1.3065  2.1179
 5132TIP3    H236812   5.566   1.840  14.217  0.1160  0.5563  0.0950
 5133TIP3   OH236813   1.574   1.946  12.601 -0.5281  0.2186 -0.1492
 5133TIP3    H136814   1.479   1.955  12.607 -0.4684  1.3483 -0.6974
 5133TIP3    H236815   1.592   1.948  12.507  0.1521  1.4875 -0.0175
 5134TIP3   OH236816   3.829   4.872   1.410  0.2991  0.0478  0.2509
 5134TIP3    H136817   3.797   4.843   1.495 -2.1211 -0.1963 -0.6651
 5134TIP3    H236818   3.758   4.851   1.349  0.9267  2.4562 -1.4438
 5135TIP3   OH236819   2.241   5.392   0.429  1.0439 -0.2162  0.6800
 5135TIP3    H136820   2.306   5.360   0.491  0.5749 -1.4599  0.5447
 5135TIP3    H236821   2.262   5.348   0.347  0.3173 -0.2625  0.5166
 5136TIP3   OH236822   0.932   0.864  11.776 -0.1661  0.2890  0.0417
 5136TIP3    H136823   0.933   0.906  11.862  1.4940  0.2848  0.0657
 5136TIP3    H236824   0.898   0.930  11.717 -0.9230  0.4344  0.6280
 5137TIP3   OH236825   1.073   3.276  14.575 -0.0228  0.2668  0.3788
 5137TIP3    H136826   1.136   3.335  14.535  1.9391 -0.7335  1.8259
 5137TIP3    H236827   1.071   3.199  14.518 -0.4367  0.5626 -0.0092
 5138TIP3   OH236828   4.955   4.357  11.680 -0.2534 -0.2032  0.1497
 5138TIP3    H136829   4.862   4.378  11.695 -0.3966 -0.8094  0.1328
 5138TIP3    H236830   4.980   4.305  11.756  0.3751  0.8581  0.6844
 5139TIP3   OH236831   5.380   3.603  13.755 -0.4689  0.0159 -0.1953
 5139TIP3    H136832   5.433   3.544  13.809 -1.1168 -0.5827 -0.2113
 5139TIP3    H236833   5.439   3.676  13.735  0.4505 -0.7883 -0.4656
 5140TIP3   OH236834   5.541   5.968  14.699  0.0286  0.0973 -0.3734
 5140TIP3    H136835   5.553   6.042  14.759  1.1104 -0.2695 -0.1093
 5140TIP3    H236836   5.524   6.009  14.614  0.0454  0.6493 -0.1175
 5141TIP3   OH236837   1.956   2.328  11.364 -0.5283  0.4998 -0.5260
 5141TIP3    H136838   1.921   2.287  11.443  1.1871  1.4191  0.8070
 5141TIP3    H236839   1.959   2.421  11.386 -0.2739  0.7976 -1.7926
 5142TIP3   OH236840   1.441   2.562  16.465  0.9921 -0.7747  0.2514
 5142TIP3    H136841   1.462   2.575  16.558  0.9473  0.6868  0.0809
 5142TIP3    H236842   1.451   2.649  16.426 -4.0410 -0.0409 -0.1246
 5143TIP3   OH236843   3.176   0.291   1.389  0.0492  0.6454 -0.0254
 5143TIP3    H136844   3.254   0.338   1.419 -0.6761  0.5938  2.0969
 5143TIP3    H236845   3.110   0.308   1.456 -0.6242 -2.3972  0.2679
 5144TIP3   OH236846   2.506   2.064  13.481 -0.4703  0.2410  0.0550
 5144TIP3    H136847   2.421   2.102  13.458 -0.1089 -0.2940 -2.3755
 5144TIP3    H236848   2.491   1.970  13.482  0.2742  0.0897 -1.3259
 5145TIP3   OH236849   3.409   4.062   2.273  0.0615  0.0831 -0.7329
 5145TIP3    H136850   3.340   4.022   2.325 -0.1005 -0.2688 -1.2015
 5145TIP3    H236851   3.468   3.989   2.252  1.3326  0.6093  0.7977
 5146TIP3   OH236852   0.429   4.029   1.367 -0.0861  0.0900 -0.1931
 5146TIP3    H136853   0.350   3.976   1.376  0.4350 -0.7058 -0.2083
 5146TIP3    H236854   0.456   4.016   1.276  1.5897 -1.8940  0.4984
 5147TIP3   OH236855   4.031   4.323   4.884  0.7965  0.6353  0.0338
 5147TIP3    H136856   3.984   4.304   4.803 -0.6758 -0.4689  1.1053
 5147TIP3    H236857   4.105   4.262   4.884  0.1803 -0.1107  0.0446
 5148TIP3   OH236858   4.144   3.964  14.379 -0.2067  0.8123 -0.4039
 5148TIP3    H136859   4.230   3.943  14.414  0.1179  0.1968 -1.5059
 5148TIP3    H236860   4.092   3.988  14.455  0.8548  0.9135  0.3096
 5149TIP3   OH236861   4.826   6.629  16.575 -0.5703  0.7662  0.3164
 5149TIP3    H136862   4.765   6.559  16.598 -0.3592  0.1911 -0.7611
 5149TIP3    H236863   4.890   6.630  16.646  0.7395 -1.7305 -0.7120
 5150TIP3   OH236864   3.215   2.000   1.364 -0.0935 -0.5991  0.3761
 5150TIP3    H136865   3.165   1.920   1.379 -0.0517 -0.5290  0.9056
 5150TIP3    H236866   3.233   2.035   1.451 -1.4179  0.8087  0.1415
 5151TIP3   OH236867   1.280   6.353  12.247 -0.1571  0.0579 -0.1547
 5151TIP3    H136868   1.357   6.318  12.202  0.7459  2.8741 -1.0183
 5151TIP3    H236869   1.315   6.402  12.321 -1.4263 -1.4815  1.5545
 5152TIP3   OH236870   1.808   4.566   2.147 -0.0194  0.3793  0.1093
 5152TIP3    H136871   1.884   4.508   2.159 -1.1154 -1.2388 -0.3954
 5152TIP3    H236872   1.740   4.509   2.110 -1.7004  1.6007  1.1553
 5153TIP3   OH236873   0.029   5.158   5.473 -0.7157 -0.0603  0.2515
 5153TIP3    H136874  -0.003   5.212   5.401 -0.0725 -0.9240 -0.7088
 5153TIP3    H236875   0.025   5.068   5.440  1.6269 -0.3129  0.4539
 5154TIP3   OH236876   3.735   3.665  10.507  0.0471 -0.0364  0.7110
 5154TIP3    H136877   3.673   3.730  10.539 -0.1490 -0.2815  0.8310
 5154TIP3    H236878   3.820   3.693  10.543  0.0195  0.3296  0.5000
 5155TIP3   OH236879   6.044   1.316   4.397  0.3154  0.5408 -0.0277
 5155TIP3    H136880   6.096   1.341   4.320 -0.0346  0.9156 -0.1487
 5155TIP3    H236881   5.957   1.352   4.379 -0.2351 -0.8639 -0.2505
 5156TIP3   OH236882   4.818   3.620   1.187  0.4405 -0.1579  0.0436
 5156TIP3    H136883   4.833   3.706   1.228 -0.4479  0.6009 -1.1431
 5156TIP3    H236884   4.766   3.572   1.251 -0.9792  1.0285 -0.1454
 5157TIP3   OH236885   5.388   2.987   5.418 -0.0880  0.2402 -0.4883
 5157TIP3    H136886   5.374   2.994   5.324 -0.6052  0.0626 -0.4302
 5157TIP3    H236887   5.392   2.892   5.434 -0.7987  0.2483 -0.2269
 5158TIP3   OH236888   2.250   2.940  13.952  0.2392  0.0440  0.0784
 5158TIP3    H136889   2.289   2.883  13.885 -0.2422 -0.5071  0.2604
 5158TIP3    H236890   2.261   2.892  14.034  2.8208  1.6724  0.7897
 5159TIP3   OH236891   2.324   2.147  16.480  0.3902  0.0796 -0.1345
 5159TIP3    H136892   2.250   2.097  16.446 -0.0189  1.9187 -2.1062
 5159TIP3    H236893   2.285   2.224  16.521  1.1457  0.7025 -0.5558
 5160TIP3   OH236894   0.979   1.774   1.187 -0.2230 -0.1492 -0.1701
 5160TIP3    H136895   1.012   1.724   1.113 -0.6856  0.9189 -1.1235
 5160TIP3    H236896   0.919   1.715   1.232  0.3951 -0.9546 -0.3779
 5161TIP3   OH236897   2.170   4.387   6.759 -0.1941 -0.6132 -0.3671
 5161TIP3    H136898   2.248   4.379   6.814 -1.3809 -1.9258  1.2238
 5161TIP3    H236899   2.173   4.309   6.702 -0.7783 -1.1590  0.3281
 5162TIP3   OH236900   3.638   6.449   1.179 -0.3682 -0.0661  0.1904
 5162TIP3    H136901   3.623   6.457   1.085  2.1415 -0.9896 -0.3680
 5162TIP3    H236902   3.597   6.365   1.202 -1.9550  0.6746  0.1998
 5163TIP3   OH236903   4.577   3.611   5.335 -0.3948  0.7121  0.1056
 5163TIP3    H136904   4.651   3.655   5.292  1.3164  0.1191  2.2960
 5163TIP3    H236905   4.508   3.678   5.337  0.5805  1.7871 -0.6588
 5164TIP3   OH236906   1.885   5.080  11.750 -0.1202 -0.1630 -0.8695
 5164TIP3    H136907   1.800   5.112  11.777  0.5130  0.1509  0.8547
 5164TIP3    H236908   1.931   5.157  11.716  1.2329  0.8855  2.8433
 5165TIP3   OH236909   4.225   2.199  15.189 -0.1197  0.1850  0.0473
 5165TIP3    H136910   4.140   2.241  15.173 -1.1966 -1.0740  2.0086
 5165TIP3    H236911   4.224   2.121  15.133 -0.0449  0.4158 -0.2779
 5166TIP3   OH236912   5.773   1.388  12.772 -0.0294 -0.1200 -0.3521
 5166TIP3    H136913   5.865   1.415  12.767  0.3288 -0.7279  1.6439
 5166TIP3    H236914   5.778   1.294  12.789 -1.0429 -0.2350 -0.6652
 5167TIP3   OH236915   2.726   3.361   3.028 -0.3768 -0.5606  0.3162
 5167TIP3    H136916   2.794   3.349   2.962 -1.7077  0.5667 -1.3461
 5167TIP3    H236917   2.675   3.280   3.024 -2.7320  0.8698 -2.9237
 5168TIP3   OH236918   0.455   3.966  10.927 -0.1599  0.4408  0.2105
 5168TIP3    H136919   0.444   3.882  10.882  0.5484  0.3882  0.1205
 5168TIP3    H236920   0.403   3.958  11.007  1.1655 -0.6843  0.9868
 5169TIP3   OH236921   2.227   6.575   2.953  0.1834 -0.3769  0.4920
 5169TIP3    H136922   2.237   6.668   2.974  0.3580 -0.6539  1.6943
 5169TIP3    H236923   2.157   6.573   2.887 -1.3518  0.4533  2.0114
 5170TIP3   OH236924   1.477   3.215   5.071 -0.1424  0.2336 -0.2080
 5170TIP3    H136925   1.428   3.294   5.095 -1.1669 -0.3767 -0.2015
 5170TIP3    H236926   1.496   3.226   4.978 -1.8889 -0.2995 -0.6703
 5171TIP3   OH236927   6.092   4.890  11.276 -0.1327  0.1619 -0.1360
 5171TIP3    H136928   6.090   4.984  11.255  2.2002  0.4166  0.3905
 5171TIP3    H236929   6.042   4.883  11.357  0.3523  1.1389  0.2750
 5172TIP3   OH236930   0.161   3.586  16.373  0.0256 -0.4697 -0.0659
 5172TIP3    H136931   0.109   3.525  16.426  0.9350 -0.5953  0.6962
 5172TIP3    H236932   0.181   3.658  16.432  0.6531 -0.3811 -0.3819
 5173TIP3   OH236933   2.256   6.191  13.482  0.3067 -0.1770  0.6892
 5173TIP3    H136934   2.346   6.221  13.478  0.2843  0.0736  1.7444
 5173TIP3    H236935   2.212   6.254  13.540 -0.2655 -0.9477  1.1199
 5174TIP3   OH236936   5.767   3.659  16.277  0.0450 -0.3709 -0.1707
 5174TIP3    H136937   5.761   3.655  16.373 -0.4440 -1.0062 -0.2184
 5174TIP3    H236938   5.850   3.703  16.261 -0.4923  0.9491  0.5390
 5175TIP3   OH236939   0.271   1.198  11.502 -0.1774 -0.0629 -0.2156
 5175TIP3    H136940   0.267   1.224  11.410  0.6877 -1.9777 -0.8651
 5175TIP3    H236941   0.201   1.248  11.544 -0.9857  0.4468 -2.0270
 5176TIP3   OH236942   1.205   2.943   5.658  0.0173  0.1221 -0.0014
 5176TIP3    H136943   1.229   2.856   5.626 -2.5077 -1.3251  1.7677
 5176TIP3    H236944   1.275   2.966   5.720  1.1238 -0.2176 -1.0737
 5177TIP3   OH236945   0.371   4.439  13.051 -0.2211  0.0295  0.3035
 5177TIP3    H136946   0.428   4.384  13.104  1.1439  0.1156 -1.0103
 5177TIP3    H236947   0.356   4.517  13.104  0.0049 -0.4464  1.0890
 5178TIP3   OH236948   2.758   2.460   2.107 -0.4704  0.7891  0.3118
 5178TIP3    H136949   2.821   2.444   2.037 -0.4674  0.4472  0.3930
 5178TIP3    H236950   2.674   2.434   2.070 -0.1859 -1.6729  1.1974
 5179TIP3   OH236951   4.955   5.335  14.846  0.1084  0.0251 -0.1265
 5179TIP3    H136952   4.989   5.391  14.916  1.7702 -1.1938  0.1186
 5179TIP3    H236953   4.941   5.394  14.772 -1.3725  1.2835  1.1050
 5180TIP3   OH236954   2.307   2.129   5.687  0.1297  0.0699  0.3213
 5180TIP3    H136955   2.301   2.061   5.621 -1.6213 -0.7595  1.2733
 5180TIP3    H236956   2.265   2.206   5.648  0.3976  0.0246 -0.0515
 5181TIP3   OH236957   2.853   5.263  14.044  0.2197  0.2354 -0.2387
 5181TIP3    H136958   2.799   5.328  14.000 -0.5943  0.8349  1.5659
 5181TIP3    H236959   2.791   5.202  14.084  0.9449 -0.5809 -0.3056
 5182TIP3   OH236960   2.380   6.230  15.041 -0.0410  0.3413 -0.3704
 5182TIP3    H136961   2.304   6.190  15.083 -0.3565  2.9257  1.7658
 5182TIP3    H236962   2.452   6.213  15.102  0.8490 -0.8645 -1.6982
 5183TIP3   OH236963   3.839   1.531   5.796  0.3029 -0.3782 -0.7112
 5183TIP3    H136964   3.896   1.482   5.737  1.9760  1.3749 -0.6469
 5183TIP3    H236965   3.812   1.608   5.745 -2.0291 -1.1461 -0.7268
 5184TIP3   OH236966   3.428   0.234   4.680  0.4183  0.5466  0.2929
 5184TIP3    H136967   3.484   0.269   4.610  1.4422  0.1537  0.9014
 5184TIP3    H236968   3.387   0.156   4.641  0.6386  0.5828 -0.0156
 5185TIP3   OH236969   3.098   1.250  16.507 -0.4950 -0.1548  0.6556
 5185TIP3    H136970   3.073   1.341  16.524  0.5025  0.0681  1.0168
 5185TIP3    H236971   3.115   1.214  16.595 -3.9914 -1.6741  0.8566
 5186TIP3   OH236972   3.321   0.046  14.443 -0.4795 -0.3295 -0.7029
 5186TIP3    H136973   3.276   0.055  14.359  0.2019  0.5116 -0.9856
 5186TIP3    H236974   3.275   0.106  14.502  0.0504  0.2719 -0.8997
 5187TIP3   OH236975   0.945   2.145   0.015 -0.5769  0.1282  0.1922
 5187TIP3    H136976   0.938   2.086  -0.060 -2.7601  1.0099 -0.3527
 5187TIP3    H236977   0.898   2.224  -0.011  2.4663  2.3395  0.7926
 5188TIP3   OH236978   1.536   3.704   1.138 -0.1694 -0.1509  0.2777
 5188TIP3    H136979   1.451   3.741   1.115  0.5004  0.9849 -0.4886
 5188TIP3    H236980   1.595   3.780   1.140  1.0735 -1.0666 -0.4371
 5189TIP3   OH236981   3.272   0.696   4.520  0.0753 -0.1954  0.3798
 5189TIP3    H136982   3.263   0.602   4.507  0.2710 -0.3525  1.3490
 5189TIP3    H236983   3.212   0.734   4.456 -0.3690 -0.9877  0.3106
 5190TIP3   OH236984   2.239   6.747   5.118  0.5404  0.1653 -0.3056
 5190TIP3    H136985   2.218   6.764   5.210 -0.6098  1.1695 -0.7286
 5190TIP3    H236986   2.242   6.834   5.078 -0.9385 -0.3393 -1.6138
 5191TIP3   OH236987   2.704   4.624  13.437  0.0225 -0.0729 -0.9543
 5191TIP3    H136988   2.628   4.568  13.423 -0.5760  0.5941 -0.4245
 5191TIP3    H236989   2.760   4.608  13.361  0.3481 -2.1364 -0.3470
 5192TIP3   OH236990   5.544   6.622  13.246 -0.1663 -0.1209 -0.2565
 5192TIP3    H136991   5.551   6.527  13.253  0.6483 -0.1491 -1.1587
 5192TIP3    H236992   5.457   6.638  13.212  0.6072 -0.7339 -2.6957
 5193TIP3   OH236993   0.744   2.089   4.858 -0.8934 -0.2227 -0.4782
 5193TIP3    H136994   0.754   2.169   4.806 -0.6014 -0.2240 -0.4270
 5193TIP3    H236995   0.781   2.020   4.803  0.4794 -0.0502  0.1835
 5194TIP3   OH236996   2.081   3.379   4.464  0.4378  0.6961  0.5080
 5194TIP3    H136997   2.147   3.343   4.405  0.6970  0.9699  0.6285
 5194TIP3    H236998   2.066   3.310   4.528  1.6102  1.1214  1.2827
 5195TIP3   OH236999   6.198   4.995  15.359  0.4069 -0.3177  0.2188
 5195TIP3    H137000   6.174   5.075  15.313 -0.5205 -0.7170 -0.0151
 5195TIP3    H237001   6.280   5.016  15.404 -0.4495  1.1482  1.1641
 5196TIP3   OH237002   4.664   1.285  16.799 -0.1095  0.5652 -0.1479
 5196TIP3    H137003   4.627   1.223  16.736 -0.2849 -0.1523  0.6358
 5196TIP3    H237004   4.701   1.355  16.745 -1.7898  0.8558 -0.9952
 5197TIP3   OH237005   0.122   2.138  15.096  0.5148 -0.4545  0.0746
 5197TIP3    H137006   0.134   2.111  15.187 -0.3825  1.5177  0.8288
 5197TIP3    H237007   0.194   2.199  15.079 -0.2551  0.4606  0.0225
 5198TIP3   OH237008   4.053   1.247   5.339  0.2812 -0.0756  0.1747
 5198TIP3    H137009   4.131   1.302   5.331  0.2682  0.3701  2.4130
 5198TIP3    H237010   4.083   1.169   5.385 -0.4775 -0.1542  0.5554
 5199TIP3   OH237011   2.508   2.671  11.189 -0.6837  0.2455 -0.3215
 5199TIP3    H137012   2.557   2.591  11.205  0.2456  0.6518 -0.9995
 5199TIP3    H237013   2.468   2.658  11.102  0.7272  1.0850 -1.1339
 5200TIP3   OH237014   2.190   4.881  11.210 -0.1860 -0.2092 -0.4244
 5200TIP3    H137015   2.117   4.830  11.175  0.3476 -1.0679 -0.3099
 5200TIP3    H237016   2.223   4.829  11.284 -0.4878  0.9561  0.5712
 5201TIP3   OH237017   2.116   1.414  16.420 -0.1220 -0.2839  0.7444
 5201TIP3    H137018   2.182   1.450  16.480  0.4656 -0.5140  0.2465
 5201TIP3    H237019   2.040   1.397  16.476 -0.3186  1.4205  1.0612
 5202TIP3   OH237020   6.309   2.938   5.363 -0.1691 -0.3331  0.6485
 5202TIP3    H137021   6.334   2.853   5.327 -0.5346 -0.1727  0.0072
 5202TIP3    H237022   6.265   2.983   5.291 -2.3745 -0.6278  1.7220
 5203TIP3   OH237023   6.635   3.379   0.604  0.6629 -0.4313 -0.5131
 5203TIP3    H137024   6.716   3.412   0.643  0.7731  0.3918 -1.3879
 5203TIP3    H237025   6.582   3.458   0.589 -0.5807 -1.0168  0.6148
 5204TIP3   OH237026   0.874   4.822  14.886  0.4382 -0.9153 -0.3508
 5204TIP3    H137027   0.869   4.726  14.892 -0.0882 -0.9421 -1.0565
 5204TIP3    H237028   0.966   4.842  14.906  0.5169 -1.5534 -0.0302
 5205TIP3   OH237029   6.051   4.689   0.864  0.4488 -0.0288  0.5062
 5205TIP3    H137030   5.977   4.749   0.857 -1.2300 -2.0490 -0.6626
 5205TIP3    H237031   6.056   4.667   0.957  0.1148  0.7472  0.7160
 5206TIP3   OH237032   5.319   0.125   4.380 -0.0921 -0.8951 -0.0560
 5206TIP3    H137033   5.290   0.195   4.322 -0.7116  0.4241  1.7686
 5206TIP3    H237034   5.410   0.146   4.400 -0.1313 -0.8861  0.1138
 5207TIP3   OH237035   4.507   2.620  16.282 -0.7260  0.6497 -0.6492
 5207TIP3    H137036   4.419   2.630  16.319 -0.5512  0.7114 -0.2352
 5207TIP3    H237037   4.563   2.673  16.340 -0.3473  0.2137 -0.6131
 5208TIP3   OH237038   1.690   1.509  12.841 -0.0891 -0.1695 -0.2040
 5208TIP3    H137039   1.685   1.521  12.746 -1.2977  0.1578 -0.1139
 5208TIP3    H237040   1.779   1.475  12.856  0.4655  0.7108 -1.3398
 5209TIP3   OH237041   6.248   3.774   0.802 -0.0259  0.2837  0.1652
 5209TIP3    H137042   6.187   3.705   0.772  0.9040 -0.5132  0.0648
 5209TIP3    H237043   6.285   3.809   0.721  0.6933 -0.2134  0.2692
 5210TIP3   OH237044   0.403   2.569   5.131 -0.3814 -0.4691 -0.3945
 5210TIP3    H137045   0.416   2.662   5.112  0.4336 -0.7667 -1.4229
 5210TIP3    H237046   0.309   2.561   5.149 -0.2605  0.7464  0.9657
 5211TIP3   OH237047   0.356   3.118   3.720 -0.2389 -0.8298  0.2575
 5211TIP3    H137048   0.277   3.098   3.671 -1.5487  1.1054  1.4087
 5211TIP3    H237049   0.418   3.150   3.655 -1.5778  0.7210 -0.3241
 5212TIP3   OH237050   5.810   5.940  11.375 -0.3596 -0.1725  0.4053
 5212TIP3    H137051   5.826   5.858  11.328  1.0251 -0.7136  1.7460
 5212TIP3    H237052   5.754   5.914  11.449  0.2715  0.0307  0.9655
 5213TIP3   OH237053   6.026   4.319   0.488  0.1763 -0.7325 -0.7100
 5213TIP3    H137054   5.954   4.263   0.518  1.3397 -1.9984 -0.1762
 5213TIP3    H237055   6.039   4.381   0.559  0.1345 -1.0206 -0.4460
 5214TIP3   OH237056   1.487   1.554   3.264 -0.0790 -0.0594 -0.3165
 5214TIP3    H137057   1.549   1.482   3.254  0.4514  0.3043  0.3135
 5214TIP3    H237058   1.405   1.519   3.229  0.3801 -0.6674 -0.8282
 5215TIP3   OH237059   6.580   4.286  14.386 -0.0715  0.1607  0.2822
 5215TIP3    H137060   6.670   4.309  14.365 -0.2053  0.9237  0.5232
 5215TIP3    H237061   6.586   4.197  14.421  0.6971  0.5115  1.0828
 5216TIP3   OH237062   6.173   0.507   5.261 -0.2083 -0.5468 -0.2424
 5216TIP3    H137063   6.228   0.579   5.232  0.8914 -1.0282  0.5783
 5216TIP3    H237064   6.211   0.479   5.344 -1.9742 -0.6069  0.5993
 5217TIP3   OH237065   6.665   1.930  12.177  0.3906  0.1996 -0.0755
 5217TIP3    H137066   6.648   1.925  12.271  0.9633 -0.4984 -0.0042
 5217TIP3    H237067   6.750   1.974  12.171  0.9694 -0.9067 -0.1993
 5218TIP3   OH237068   3.618   5.524   3.177  0.7982  0.4926  0.3146
 5218TIP3    H137069   3.660   5.586   3.237  0.7852  1.0258 -0.2113
 5218TIP3    H237070   3.528   5.516   3.211  0.7551  0.8871  0.3030
 5219TIP3   OH237071   0.213   5.768   0.231 -0.0247 -0.0373 -0.8134
 5219TIP3    H137072   0.160   5.808   0.300  0.0751  0.6111 -1.1087
 5219TIP3    H237073   0.299   5.756   0.270 -0.2901 -0.7980 -0.4361
 5220TIP3   OH237074   4.663   0.200   4.324 -0.0296  0.1852 -1.0816
 5220TIP3    H137075   4.683   0.220   4.416  0.1296 -1.7424 -0.6476
 5220TIP3    H237076   4.662   0.285   4.281 -1.7544  1.3287  1.0023
 5221TIP3   OH237077   0.958   3.305  12.167  0.2171  0.4541  0.3539
 5221TIP3    H137078   0.891   3.350  12.117  0.7799  1.8913  0.8429
 5221TIP3    H237079   0.982   3.230  12.113 -2.9702 -1.1657  0.9228
 5222TIP3   OH237080   3.852   4.747   4.229  0.3498 -0.0186 -0.1671
 5222TIP3    H137081   3.763   4.782   4.229  0.4398  0.2171 -0.5022
 5222TIP3    H237082   3.907   4.824   4.246  0.5860  0.1118 -1.4400
 5223TIP3   OH237083   0.927   2.194  11.848  0.6690 -0.6840  0.3229
 5223TIP3    H137084   0.855   2.256  11.858  2.3991  1.3793  0.7103
 5223TIP3    H237085   0.911   2.153  11.763 -0.2193  0.7750 -0.2606
 5224TIP3   OH237086   5.457   2.023  17.015  0.1333  0.1799 -0.6680
 5224TIP3    H137087   5.491   1.983  16.935 -0.1727 -2.5190  0.4357
 5224TIP3    H237088   5.528   2.014  17.078  0.1231  1.6645 -0.3979
 5225TIP3   OH237089   5.880   2.933  17.066  0.6020 -0.6163  0.2244
 5225TIP3    H137090   5.928   2.899  17.141  1.3596 -0.1525 -0.0279
 5225TIP3    H237091   5.798   2.966  17.102  0.8181 -0.6936  0.7927
 5226TIP3   OH237092   6.538   1.241  14.213 -0.4974  0.7815  0.3342
 5226TIP3    H137093   6.634   1.235  14.220 -0.4110 -0.0971 -1.1855
 5226TIP3    H237094   6.519   1.214  14.123 -2.2547  0.0217  0.8959
 5227TIP3   OH237095   4.425   6.328  12.333  0.3997 -0.3886  0.0722
 5227TIP3    H137096   4.347   6.354  12.383 -0.4287 -0.5571 -1.0721
 5227TIP3    H237097   4.391   6.269  12.266  1.5028 -0.3453 -0.5418
 5228TIP3   OH237098   5.306   2.792  13.154 -0.1388  0.1187 -0.2285
 5228TIP3    H137099   5.293   2.834  13.239  1.5803  2.0442 -0.8305
 5228TIP3    H237100   5.223   2.747  13.136 -1.0202  0.8183  1.8160
 5229TIP3   OH237101   5.380   1.017  11.769 -0.1446 -0.4288 -0.4043
 5229TIP3    H137102   5.309   1.072  11.737 -0.7840 -1.5879 -1.0533
 5229TIP3    H237103   5.370   1.016  11.864 -1.8184 -1.6092 -0.5484
 5230TIP3   OH237104   0.025   5.470   5.093 -0.0846 -0.2283 -0.4227
 5230TIP3    H137105   0.087   5.443   5.025  0.4374  0.7002 -0.3406
 5230TIP3    H237106  -0.007   5.388   5.130 -0.7316 -0.7598 -2.0815
 5231TIP3   OH237107   2.778   5.632  17.106  0.2420  0.4132  0.1562
 5231TIP3    H137108   2.818   5.556  17.148  1.2845  0.9148  0.0937
 5231TIP3    H237109   2.685   5.608  17.096  0.7074 -1.1975 -0.6594
 5232TIP3   OH237110   6.110   5.160   5.309 -0.3189 -0.0317 -0.4091
 5232TIP3    H137111   6.036   5.163   5.249 -1.0578 -0.3563  0.4601
 5232TIP3    H237112   6.186   5.141   5.253 -0.6842  1.4242 -1.4670
 5233TIP3   OH237113   5.906   5.886  14.230  1.2975  0.6617  0.1108
 5233TIP3    H137114   5.961   5.808  14.223  1.7909  1.0650 -0.6664
 5233TIP3    H237115   5.858   5.875  14.312  1.0814 -0.6355 -0.1745
 5234TIP3   OH237116   4.324   5.059   4.361 -0.1982 -0.0462  0.2255
 5234TIP3    H137117   4.392   5.126   4.345 -1.1180  0.4167 -2.3605
 5234TIP3    H237118   4.253   5.084   4.302 -1.4434 -2.1495  0.7548
 5235TIP3   OH237119   1.662   3.383  12.191 -0.2172  0.7493 -0.1352
 5235TIP3    H137120   1.584   3.364  12.243 -1.5888  3.1119 -1.1607
 5235TIP3    H237121   1.660   3.478  12.179  1.5148  0.6011 -2.2197
 5236TIP3   OH237122   6.701   1.101  13.909 -0.4936  0.1073  0.5041
 5236TIP3    H137123   6.741   1.121  13.994  0.6094  0.0100  0.0316
 5236TIP3    H237124   6.640   1.173  13.894  1.9467  2.1675 -0.2451
 5237TIP3   OH237125   4.034   5.723  11.956  0.8136  0.0470 -0.2820
 5237TIP3    H137126   3.949   5.710  11.913  0.7665 -0.2794 -0.0980
 5237TIP3    H237127   4.070   5.801  11.915  1.7550 -1.4409 -2.5270
 5238TIP3   OH237128   6.424   6.355   0.291  0.1726  0.0288  0.3168
 5238TIP3    H137129   6.343   6.332   0.246  0.5775  0.0498 -0.4503
 5238TIP3    H237130   6.447   6.441   0.256  1.0643 -0.4246 -0.2573
 5239TIP3   OH237131   4.875   5.305   4.959 -0.7774  0.1866  0.5943
 5239TIP3    H137132   4.819   5.233   4.931 -0.7121 -0.0405  1.0323
 5239TIP3    H237133   4.894   5.286   5.051 -0.8354  0.8150  0.7404
 5240TIP3   OH237134   3.215   1.665  13.016 -0.7822 -0.1993 -0.0510
 5240TIP3    H137135   3.147   1.671  13.083 -1.1475  0.3585 -0.4547
 5240TIP3    H237136   3.210   1.749  12.970  0.5392  0.0543  0.2417
 5241TIP3   OH237137   2.078   6.191  12.718 -0.1037 -0.3555 -0.4745
 5241TIP3    H137138   2.058   6.180  12.811 -0.2026  3.7248  0.1800
 5241TIP3    H237139   1.993   6.189  12.674 -0.6220  2.0800  0.2493
 5242TIP3   OH237140   0.020   1.492  16.860 -0.2178 -0.0568  0.7043
 5242TIP3    H137141   0.076   1.421  16.893 -1.4763 -2.1260 -1.3054
 5242TIP3    H237142  -0.057   1.490  16.916  0.1133  0.3342  1.1847
 5243TIP3   OH237143   3.041   5.709   3.128  0.2352  0.5154 -0.2775
 5243TIP3    H137144   2.989   5.737   3.053 -0.7103  0.4711  0.3308
 5243TIP3    H237145   2.982   5.721   3.203  0.6342 -0.8461  0.2795
 5244TIP3   OH237146   3.125   4.168  15.457 -0.2047  0.0721 -0.0114
 5244TIP3    H137147   3.096   4.227  15.526  0.2295  1.4582 -0.9820
 5244TIP3    H237148   3.074   4.088  15.471 -0.1545  0.3248  1.8769
 5245TIP3   OH237149   5.660   5.773   0.546 -0.2930  0.0716 -0.1619
 5245TIP3    H137150   5.579   5.737   0.511 -0.6219  0.1084  0.5408
 5245TIP3    H237151   5.656   5.867   0.524 -0.3351  0.0361 -0.3100
 5246TIP3   OH237152   3.454   4.421  15.396  0.7866 -0.6385 -0.0389
 5246TIP3    H137153   3.403   4.357  15.346  0.6644 -0.2137 -0.4647
 5246TIP3    H237154   3.394   4.494  15.410  0.9556 -0.5717  0.3612
 5247TIP3   OH237155   0.713   4.440   6.810 -0.3114 -0.1047  0.2049
 5247TIP3    H137156   0.629   4.457   6.852 -0.3286 -0.2437  0.2242
 5247TIP3    H237157   0.712   4.495   6.731 -0.5488 -0.3542  0.0373
 5248TIP3   OH237158   5.004   5.843   4.210  0.2691  0.5929 -0.6621
 5248TIP3    H137159   5.009   5.752   4.241  0.2707  0.8863  0.2094
 5248TIP3    H237160   5.009   5.835   4.114  0.6776 -0.2996 -0.5839
 5249TIP3   OH237161   3.475   3.860   2.095  0.0414 -0.0175 -0.1022
 5249TIP3    H137162   3.458   3.769   2.120  0.7065 -0.7288 -2.0609
 5249TIP3    H237163   3.398   3.885   2.043 -0.3320  0.6990  0.7731
 5250TIP3   OH237164   6.588   2.257  15.201  0.7358 -0.3835  0.4781
 5250TIP3    H137165   6.496   2.258  15.226  0.7033 -1.1296  0.4142
 5250TIP3    H237166   6.599   2.336  15.147 -0.2803 -1.1456 -0.9175
 5251TIP3   OH237167   6.416   6.577  14.796  0.4372  0.0436 -0.3783
 5251TIP3    H137168   6.385   6.664  14.819 -1.2898 -0.4538 -0.6625
 5251TIP3    H237169   6.479   6.554  14.865 -0.5087  0.7643  0.7528
 5252TIP3   OH237170   1.197   2.659  15.263  0.1129  0.0539 -0.1204
 5252TIP3    H137171   1.171   2.681  15.353 -0.2910  0.8438 -0.4143
 5252TIP3    H237172   1.290   2.637  15.270  0.2018  0.5613  0.4207
 5253TIP3   OH237173   3.515   1.074  15.054 -0.9450 -0.5352 -0.3299
 5253TIP3    H137174   3.540   1.150  15.002 -0.9344  0.0846  0.5551
 5253TIP3    H237175   3.533   0.999  14.997 -0.0335  0.0650 -0.8642
 5254TIP3   OH237176   4.984   6.663   0.663 -0.3832 -0.1549  0.0355
 5254TIP3    H137177   4.981   6.726   0.591 -1.9152  0.6579  0.7413
 5254TIP3    H237178   4.934   6.588   0.632 -1.7159  0.5075  0.4648
 5255TIP3   OH237179   3.858   3.944   0.530  0.2320  0.0411  0.2815
 5255TIP3    H137180   3.848   4.009   0.460 -0.7302  1.3434  1.5394
 5255TIP3    H237181   3.787   3.882   0.515 -0.5283  0.8096  0.5551
 5256TIP3   OH237182   2.612   1.441   1.841 -0.2673  0.8244 -0.0863
 5256TIP3    H137183   2.521   1.466   1.855  0.0903  3.3956 -1.7011
 5256TIP3    H237184   2.661   1.487   1.909 -0.0822 -0.3573  0.6263
 5257TIP3   OH237185   3.714   0.723  15.418 -0.3210 -0.6853 -0.4171
 5257TIP3    H137186   3.801   0.682  15.418 -0.5161 -1.1185  0.2614
 5257TIP3    H237187   3.728   0.809  15.380  0.2372 -1.1036 -1.2032
 5258TIP3   OH237188   6.606   6.319   2.117  0.2004  0.1474 -0.4259
 5258TIP3    H137189   6.617   6.237   2.068  0.7949 -0.0803  0.0794
 5258TIP3    H237190   6.695   6.353   2.126  0.1619 -0.0644  0.9266
 5259TIP3   OH237191   3.351   4.106   4.082 -0.6599  0.2089  0.2686
 5259TIP3    H137192   3.328   4.014   4.067 -1.3060  0.3541  0.3145
 5259TIP3    H237193   3.425   4.103   4.142 -0.3522 -0.2907 -0.1315
 5260TIP3   OH237194   5.107   5.424  16.056 -0.2143  0.2279  0.3183
 5260TIP3    H137195   5.184   5.447  16.003  0.4148 -0.1462  1.0482
 5260TIP3    H237196   5.033   5.456  16.005  0.4157  0.4944 -0.4600
 5261TIP3   OH237197   5.375   6.246   3.638  0.3175  0.0855 -0.4452
 5261TIP3    H137198   5.428   6.319   3.671 -0.8506  0.5745  0.4314
 5261TIP3    H237199   5.352   6.272   3.549 -0.0927  0.8279 -0.1416
 5262TIP3   OH237200   3.002   5.417  16.034 -0.0848  0.1111  0.6177
 5262TIP3    H137201   3.065   5.366  15.984 -0.4688  1.2130 -1.0721
 5262TIP3    H237202   3.049   5.496  16.060 -0.6690  0.8766 -0.5342
 5263TIP3   OH237203   1.587   5.469  14.387  0.1364  0.0432  0.7089
 5263TIP3    H137204   1.541   5.518  14.318 -1.0588  0.2225  1.5993
 5263TIP3    H237205   1.660   5.526  14.411  1.3529 -0.5935 -1.2679
 5264TIP3   OH237206   3.795   1.078  11.118 -0.0323  0.5111 -0.2798
 5264TIP3    H137207   3.756   1.017  11.056 -0.6968  1.8027 -1.1760
 5264TIP3    H237208   3.836   1.022  11.184 -2.7769 -0.9589  0.3349
 5265TIP3   OH237209   4.327   3.573   3.698 -0.2029  0.3476 -0.0773
 5265TIP3    H137210   4.250   3.559   3.643  0.1980 -0.8151 -0.3674
 5265TIP3    H237211   4.389   3.619   3.642  0.2005 -0.8273 -0.6138
 5266TIP3   OH237212   2.623   5.228  16.091 -0.2410  0.1926 -0.0217
 5266TIP3    H137213   2.528   5.239  16.085 -0.4867 -1.0884  1.1296
 5266TIP3    H237214   2.658   5.316  16.078 -1.6288  0.8517  0.4913
 5267TIP3   OH237215   1.603   0.208   2.681 -0.6653  0.9363 -0.1286
 5267TIP3    H137216   1.519   0.179   2.644  0.1890 -2.1134  0.0074
 5267TIP3    H237217   1.665   0.201   2.609 -0.1064  0.9269  0.3446
 5268TIP3   OH237218   0.552   0.781  16.775  0.0136 -0.0364  0.0429
 5268TIP3    H137219   0.549   0.843  16.702 -0.0111  0.0124  0.0857
 5268TIP3    H237220   0.565   0.696  16.734 -0.1630 -0.0289 -0.0297
 5269TIP3   OH237221   5.314   0.455   0.853 -0.1794 -0.1347 -0.1327
 5269TIP3    H137222   5.271   0.481   0.934 -2.7097 -1.5648 -0.9040
 5269TIP3    H237223   5.338   0.537   0.810  0.8356  0.6325  1.8155
 5270TIP3   OH237224   1.741   4.713  11.121 -0.0696 -0.7547  0.3971
 5270TIP3    H137225   1.741   4.769  11.043 -1.3692  1.1918  1.6990
 5270TIP3    H237226   1.754   4.625  11.087  0.4048  0.1323 -1.9183
 5271TIP3   OH237227   3.076   2.894  15.061 -0.3241  0.1567  0.4723
 5271TIP3    H137228   3.036   2.842  15.131 -1.4109  1.2378  0.6818
 5271TIP3    H237229   3.009   2.959  15.037 -0.9063 -1.5122 -3.1308
 5272TIP3   OH237230   0.393   2.660   3.119  0.1317 -0.3587 -0.1261
 5272TIP3    H137231   0.477   2.686   3.081 -0.4262 -0.6228 -1.6030
 5272TIP3    H237232   0.351   2.609   3.051 -2.1174  1.5085 -0.2613
 5273TIP3   OH237233   5.648   3.837   5.090 -0.3902  0.6812 -0.1465
 5273TIP3    H137234   5.644   3.909   5.027 -0.6125 -0.1677 -1.1408
 5273TIP3    H237235   5.613   3.874   5.171 -0.3472  1.7295 -0.5897
 5274TIP3   OH237236   3.922   5.202   4.380  0.6294 -0.7216 -0.8168
 5274TIP3    H137237   3.972   5.253   4.315 -0.0119 -0.6614 -1.2688
 5274TIP3    H237238   3.865   5.146   4.328 -1.5100  0.8855 -0.3766
 5275TIP3   OH237239   4.391   0.625   0.444 -0.0752  0.4294 -0.7848
 5275TIP3    H137240   4.423   0.715   0.451 -1.2205  0.8638 -0.8309
 5275TIP3    H237241   4.369   0.601   0.534 -0.1785  0.3618 -0.8273
 5276TIP3   OH237242   2.014   3.553   1.816 -0.2568 -0.4405  0.6186
 5276TIP3    H137243   2.065   3.586   1.890 -1.4551  2.4395  0.3188
 5276TIP3    H237244   2.078   3.540   1.747  0.6628 -1.6376  1.6542
 5277TIP3   OH237245   4.082   1.329   4.289  0.6834 -0.0505 -0.2016
 5277TIP3    H137246   4.014   1.333   4.222  0.0760  3.8261  0.4298
 5277TIP3    H237247   4.043   1.279   4.361 -1.3360  1.5243 -0.1312
 5278TIP3   OH237248   6.092   5.147  13.840 -0.2281  0.7704 -0.2970
 5278TIP3    H137249   6.115   5.085  13.771  0.0961  1.5622 -0.9221
 5278TIP3    H237250   6.015   5.193  13.806 -2.8723 -1.7725  1.7110
 5279TIP3   OH237251   4.558   2.248   2.024  0.2902  0.5446  0.0700
 5279TIP3    H137252   4.623   2.285   1.964 -0.1258 -2.0115 -2.1636
 5279TIP3    H237253   4.477   2.297   2.005  0.3652  0.3154 -0.9239
 5280TIP3   OH237254   0.421   1.122   0.857  0.5093 -0.1929  0.1302
 5280TIP3    H137255   0.350   1.186   0.851  0.3738 -0.4635 -1.4937
 5280TIP3    H237256   0.376   1.038   0.869  0.5784 -0.2842 -0.2454
 5281TIP3   OH237257   4.818   5.511  12.193 -0.3448  0.1563  0.1921
 5281TIP3    H137258   4.724   5.495  12.192 -0.4325  0.6357 -0.8658
 5281TIP3    H237259   4.829   5.589  12.138  0.7680 -0.5057 -0.5461
 5282TIP3   OH237260   5.925   2.840   4.350  0.2356  0.0282 -0.0485
 5282TIP3    H137261   5.849   2.785   4.334  0.0190  0.6268 -1.1344
 5282TIP3    H237262   5.907   2.883   4.433 -1.6494  1.8311 -1.3077
 5283TIP3   OH237263   0.745   1.225   4.441 -0.4467  0.1876  0.8311
 5283TIP3    H137264   0.704   1.156   4.494  0.0806 -0.9576 -0.2095
 5283TIP3    H237265   0.740   1.303   4.496  1.1500 -1.1802  3.0874
 5284TIP3   OH237266   0.587   4.695   4.152 -0.4860  0.1472  0.2585
 5284TIP3    H137267   0.636   4.773   4.128 -0.2557 -0.2070 -0.4624
 5284TIP3    H237268   0.560   4.657   4.068 -0.6493 -0.5101  0.6019
 5285TIP3   OH237269   5.483   2.192   4.274 -0.0888  0.1168  0.2413
 5285TIP3    H137270   5.411   2.225   4.220 -1.5427 -2.9635  0.1169
 5285TIP3    H237271   5.553   2.257   4.262 -1.3937  1.1469 -2.9143
 5286TIP3   OH237272   6.349   1.561  13.332 -0.1428 -0.0030 -0.9807
 5286TIP3    H137273   6.265   1.562  13.287  0.0438 -0.4803 -1.3497
 5286TIP3    H237274   6.339   1.493  13.399 -0.6341  1.1301  0.1362
 5287TIP3   OH237275   1.889   4.126   6.541 -0.3582 -0.1433 -0.0093
 5287TIP3    H137276   1.978   4.143   6.572  0.4163  0.3596 -2.2753
 5287TIP3    H237277   1.852   4.067   6.605  0.5890  1.8422  2.5636
 5288TIP3   OH237278   3.821   4.259   3.851 -0.7379 -0.0488 -0.4059
 5288TIP3    H137279   3.757   4.190   3.834 -0.1012 -0.4188 -1.3965
 5288TIP3    H237280   3.780   4.315   3.918 -0.8817 -1.9084  1.1496
 5289TIP3   OH237281   2.639   3.226  12.345  0.6196 -0.2983 -0.4227
 5289TIP3    H137282   2.670   3.157  12.287 -0.7098 -1.1501 -0.1680
 5289TIP3    H237283   2.601   3.180  12.420 -0.3376  0.6994 -0.2656
 5290TIP3   OH237284   0.677   6.497  13.827  0.9656  0.1688  0.3900
 5290TIP3    H137285   0.752   6.439  13.835  1.3932  0.6699  0.0569
 5290TIP3    H237286   0.607   6.441  13.793  0.6230 -0.7527  2.4965
 5291TIP3   OH237287   2.279   5.362   1.634  0.0379 -0.5394 -0.6017
 5291TIP3    H137288   2.208   5.299   1.629  2.3642 -3.3781 -0.3808
 5291TIP3    H237289   2.308   5.373   1.543 -1.0633  1.1732 -0.7834
 5292TIP3   OH237290   2.128   3.966   3.591 -0.5455  0.5250  0.7590
 5292TIP3    H137291   2.124   4.050   3.636 -2.0035  0.5538  0.6110
 5292TIP3    H237292   2.204   3.973   3.533 -0.4913  1.6299  0.9423
 5293TIP3   OH237293   2.142   4.871  13.593 -0.0630 -0.1567 -0.0859
 5293TIP3    H137294   2.127   4.781  13.623 -0.9607  0.0263  0.0626
 5293TIP3    H237295   2.147   4.922  13.674 -0.6289  0.0736 -0.1906
 5294TIP3   OH237296   5.615   1.635  15.018 -0.1697  0.0643  0.2744
 5294TIP3    H137297   5.583   1.687  14.944  1.2409  0.7232  0.1011
 5294TIP3    H237298   5.536   1.601  15.059 -1.0866  1.5915 -0.1543
 5295TIP3   OH237299   5.471   2.118   0.159  0.7653  0.5097 -0.3469
 5295TIP3    H137300   5.439   2.198   0.119  0.4194  0.7727  0.4289
 5295TIP3    H237301   5.564   2.113   0.135  1.0884  1.7580  0.5562
 5296TIP3   OH237302   3.530   0.900  14.051  0.2454 -0.5475  0.0786
 5296TIP3    H137303   3.508   0.918  13.960  1.5323  0.2208 -0.1023
 5296TIP3    H237304   3.553   0.807  14.053  0.3160 -0.5426 -0.4013
 5297TIP3   OH237305   0.182   4.206   6.020  0.4708  0.2192 -0.1617
 5297TIP3    H137306   0.224   4.138   5.967 -1.2605 -0.3445 -0.8569
 5297TIP3    H237307   0.165   4.164   6.104  0.3086  0.1114 -0.2489
 5298TIP3   OH237308   3.769   1.958   0.791 -0.4883  0.4248 -0.2291
 5298TIP3    H137309   3.838   2.019   0.820 -0.0967 -0.4411  0.7327
 5298TIP3    H237310   3.766   1.969   0.696  0.5429  0.9338 -0.2213
 5299TIP3   OH237311   2.627   4.153  14.914  0.3610  0.1859  0.3820
 5299TIP3    H137312   2.667   4.239  14.900 -2.2912  1.9471  2.5044
 5299TIP3    H237313   2.543   4.158  14.869 -0.3419 -0.8047  1.5318
 5300TIP3   OH237314   0.339   4.245   5.479  0.0369  0.6698  0.0140
 5300TIP3    H137315   0.425   4.232   5.438 -0.2196  1.4410 -0.8119
 5300TIP3    H237316   0.307   4.156   5.496  0.3661  0.3262 -1.0424
 5301TIP3   OH237317   0.466   1.430   5.988 -0.5150 -0.2683 -0.0320
 5301TIP3    H137318   0.441   1.357   5.930 -0.2960 -1.6095  1.4889
 5301TIP3    H237319   0.533   1.393   6.046 -0.3453  1.1744  0.7402
 5302TIP3   OH237320   3.568   6.215  16.532  0.2317 -0.3920  0.4395
 5302TIP3    H137321   3.661   6.204  16.551  0.1767 -1.8107 -0.0028
 5302TIP3    H237322   3.525   6.151  16.590 -0.7322  2.0939  2.6906
 5303TIP3   OH237323   1.442   1.614  17.047 -0.2053 -0.2824  0.2966
 5303TIP3    H137324   1.470   1.531  17.008  0.4451  0.0440  0.0442
 5303TIP3    H237325   1.397   1.660  16.976 -2.5973 -1.3308  1.0365
 5304TIP3   OH237326   3.035   5.931  11.637  0.1990  0.2960 -0.6540
 5304TIP3    H137327   3.001   5.900  11.720 -0.5314 -0.5974 -1.2732
 5304TIP3    H237328   2.959   5.934  11.579  0.9092 -0.3272 -1.6450
 5305TIP3   OH237329   6.736   5.392  15.366  0.6176  0.4699  0.4227
 5305TIP3    H137330   6.776   5.472  15.399 -2.6745  2.2865  0.4348
 5305TIP3    H237331   6.681   5.361  15.437 -0.4587 -0.0870 -0.6167
 5306TIP3   OH237332   3.962   4.815   3.554  0.7520  0.3985 -0.2832
 5306TIP3    H137333   4.004   4.760   3.488  0.5394  2.3365 -2.1123
 5306TIP3    H237334   3.885   4.764   3.581  1.1641 -0.6922 -1.0677
 5307TIP3   OH237335   6.290   3.695  15.615 -0.0402 -0.3456  0.3750
 5307TIP3    H137336   6.344   3.680  15.692 -2.9570 -2.1724  2.2370
 5307TIP3    H237337   6.211   3.737  15.648 -0.7994  0.1285 -1.8505
 5308TIP3   OH237338   5.211   2.256  13.309  0.2059 -0.1180 -0.3931
 5308TIP3    H137339   5.226   2.349  13.328  1.1225 -0.3154 -0.1040
 5308TIP3    H237340   5.201   2.252  13.214  2.1604  0.0357 -0.6413
 5309TIP3   OH237341   0.278   1.511  15.369  0.2207  0.2329  0.1300
 5309TIP3    H137342   0.185   1.492  15.373  0.4287 -1.4145 -1.5409
 5309TIP3    H237343   0.283   1.606  15.356 -1.1729  0.4464  0.9804
 5310TIP3   OH237344   2.105   3.350  11.314  0.0325 -0.1889  0.2373
 5310TIP3    H137345   2.081   3.428  11.263  1.4316  0.5090  0.5950
 5310TIP3    H237346   2.192   3.327  11.282 -0.3851 -1.6555  0.1097
 5311TIP3   OH237347   1.046   0.318  15.319  0.0476 -0.3253 -0.5142
 5311TIP3    H137348   1.005   0.401  15.343  0.4129 -0.3188  0.1225
 5311TIP3    H237349   1.041   0.315  15.224  1.6276  1.2821 -0.7150
 5312TIP3   OH237350   5.289   5.820   3.233 -0.2710 -0.1708 -0.0194
 5312TIP3    H137351   5.225   5.890   3.245  1.1500  1.1681  0.2343
 5312TIP3    H237352   5.296   5.779   3.319  1.5002  1.8298  0.8991
 5313TIP3   OH237353   2.430   3.251  15.471 -0.1233 -0.0980  0.3358
 5313TIP3    H137354   2.363   3.272  15.407 -0.9443  2.5250  1.9127
 5313TIP3    H237355   2.493   3.323  15.465  1.7457 -1.6832  0.0154
 5314TIP3   OH237356   1.749   5.986   2.130  0.3078  0.4006  0.0415
 5314TIP3    H137357   1.727   5.896   2.108  0.9585  0.5717 -1.4443
 5314TIP3    H237358   1.843   5.993   2.113  0.4887  1.0762  1.2144
 5315TIP3   OH237359   0.844   5.126   5.965 -0.2512 -0.4793  0.3095
 5315TIP3    H137360   0.923   5.135   6.019 -0.9157  2.1919  0.9999
 5315TIP3    H237361   0.789   5.063   6.012  0.4036 -0.3944  1.2069
 5316TIP3   OH237362   3.752   4.463   2.670  0.2387  0.0624 -0.0205
 5316TIP3    H137363   3.790   4.478   2.757  0.5850  1.1167 -0.3409
 5316TIP3    H237364   3.792   4.382   2.640  5.2075  2.7712 -1.8471
 5317TIP3   OH237365   3.725   3.399  10.513  0.0770  0.0158  0.6184
 5317TIP3    H137366   3.806   3.372  10.555  0.5804  1.0597  0.3550
 5317TIP3    H237367   3.732   3.494  10.507  0.7455 -0.1549 -3.2336
 5318TIP3   OH237368   0.182   3.765  16.620 -0.5822  0.8607  0.0340
 5318TIP3    H137369   0.141   3.821  16.687  3.0684  1.7850  1.7731
 5318TIP3    H237370   0.230   3.699  16.670 -0.9793 -0.9733 -1.8783
 5319TIP3   OH237371   4.695   0.479   0.752  0.9797 -0.5283  0.0473
 5319TIP3    H137372   4.678   0.399   0.802  0.8389 -1.2023 -1.0481
 5319TIP3    H237373   4.632   0.542   0.785  1.2029 -0.8073  1.0474
 5320TIP3   OH237374   1.553   3.917  14.484  0.0834  0.4287 -0.5286
 5320TIP3    H137375   1.644   3.943  14.490  0.3202 -0.0952 -1.6697
 5320TIP3    H237376   1.538   3.864  14.563  0.5555  1.0797  0.0097
 5321TIP3   OH237377   1.802   2.735  16.832  0.4740 -0.8309 -0.2492
 5321TIP3    H137378   1.818   2.732  16.927  1.3738 -0.3867 -0.3742
 5321TIP3    H237379   1.708   2.749  16.824  0.5987  0.7938  0.6291
 5322TIP3   OH237380   1.610   5.010   6.521 -0.5391 -0.4237 -0.3373
 5322TIP3    H137381   1.695   5.013   6.566 -0.3529  0.8782 -0.7337
 5322TIP3    H237382   1.555   4.956   6.578  0.3393 -0.6716  0.3080
 5323TIP3   OH237383   5.569   6.630   3.193  0.5065 -0.4603  0.4712
 5323TIP3    H137384   5.654   6.617   3.236  0.2160  0.3306  1.3114
 5323TIP3    H237385   5.505   6.593   3.254  0.2357 -1.1371 -0.1999
 5324TIP3   OH237386   2.134   3.646   2.085 -0.2910  0.1515 -0.2344
 5324TIP3    H137387   2.191   3.717   2.055 -1.0107  0.3882 -1.0900
 5324TIP3    H237388   2.186   3.599   2.150  0.1622  1.5261  0.4265
 5325TIP3   OH237389   6.563   5.045  11.323  0.3871 -0.0178  0.3812
 5325TIP3    H137390   6.581   4.952  11.338 -1.3506 -0.4750 -0.0955
 5325TIP3    H237391   6.636   5.075  11.270  0.8372 -1.1996  0.2961
 5326TIP3   OH237392   2.183   5.664  12.293  0.3127  0.2434 -0.1289
 5326TIP3    H137393   2.117   5.629  12.233 -0.3845  1.2468  0.0260
 5326TIP3    H237394   2.241   5.716  12.236  0.4278  0.1187 -0.1266
 5327TIP3   OH237395   3.133   5.745  13.678 -0.0903  0.1516  0.3169
 5327TIP3    H137396   3.112   5.700  13.759 -1.2005 -1.3597 -0.7436
 5327TIP3    H237397   3.069   5.816  13.672 -0.2457  0.0329  0.5849
 5328TIP3   OH237398   0.266   2.397  14.196  0.1319  0.3506 -1.1980
 5328TIP3    H137399   0.211   2.329  14.235 -1.0314  1.6854 -0.4234
 5328TIP3    H237400   0.341   2.403  14.254 -0.4460  0.6854 -0.4704
 5329TIP3   OH237401   0.017   5.923  16.128 -0.5245 -0.3116 -0.4000
 5329TIP3    H137402   0.056   5.910  16.042 -2.9245 -1.2248 -1.4236
 5329TIP3    H237403  -0.066   5.966  16.111  1.0635  4.3089  1.9250
 5330TIP3   OH237404   1.094   1.809   2.482  0.0049 -0.2489 -0.1341
 5330TIP3    H137405   1.010   1.821   2.439  0.7007  0.2701 -1.4051
 5330TIP3    H237406   1.145   1.887   2.457  0.6882 -0.2929  1.0384
 5331TIP3   OH237407   3.495   5.875   4.742  0.3933  0.1534  0.4827
 5331TIP3    H137408   3.409   5.868   4.781  0.5578 -0.8695  0.7077
 5331TIP3    H237409   3.496   5.960   4.698 -0.8200  0.0541  0.2463
 5332TIP3   OH237410   1.657   3.026  14.893  0.3680  0.0135 -0.2894
 5332TIP3    H137411   1.579   3.032  14.948 -0.1235 -1.1605 -0.8245
 5332TIP3    H237412   1.670   3.115  14.860 -0.5298  0.3000  0.0993
 5333TIP3   OH237413   4.763   6.629   4.371 -0.2222 -0.6703  0.4572
 5333TIP3    H137414   4.748   6.568   4.443  0.0150  0.2156  1.2822
 5333TIP3    H237415   4.739   6.714   4.407  0.7022 -0.0921 -0.2416
 5334TIP3   OH237416   2.781   3.930   3.286  0.0444 -0.0520 -0.0602
 5334TIP3    H137417   2.731   3.969   3.358 -2.5283 -0.4712 -1.4989
 5334TIP3    H237418   2.829   3.857   3.327  0.5045  1.1326  1.6153
 5335TIP3   OH237419   2.621   3.670   1.865 -0.2670 -0.2117  0.1348
 5335TIP3    H137420   2.550   3.609   1.887  0.3362 -1.3788 -1.0188
 5335TIP3    H237421   2.603   3.696   1.775 -0.1308  0.8193  0.3836
 5336TIP3   OH237422   3.919   3.746  16.158  0.9402  0.7003 -0.2876
 5336TIP3    H137423   3.993   3.795  16.121 -0.0240  0.3985 -2.7718
 5336TIP3    H237424   3.853   3.812  16.177  1.9697  1.0496  2.5199
 5337TIP3   OH237425   1.841   1.722  15.122 -0.6904 -0.0959 -0.0469
 5337TIP3    H137426   1.766   1.668  15.094 -0.2602 -1.0725  0.5961
 5337TIP3    H237427   1.887   1.666  15.186  1.0642  0.1470 -1.0474
 5338TIP3   OH237428   5.304   3.307  17.127 -0.1288  0.8537 -0.4865
 5338TIP3    H137429   5.313   3.213  17.116  0.3394  0.8926 -0.4938
 5338TIP3    H237430   5.309   3.321  17.222  0.1141  0.8938 -0.5027
 5339TIP3   OH237431   4.101   0.683  13.025  0.0991 -0.3564 -0.2758
 5339TIP3    H137432   4.179   0.635  12.998  0.4834 -0.3016  0.6936
 5339TIP3    H237433   4.133   0.747  13.088 -0.7066 -0.2098  0.0010
 5340TIP3   OH237434   2.525   1.551  11.098 -0.6382  0.5808  0.5262
 5340TIP3    H137435   2.509   1.594  11.182 -0.1773 -1.3248  1.6395
 5340TIP3    H237436   2.620   1.559  11.085 -0.7617  1.2264 -0.0368
 5341TIP3   OH237437   2.062   3.997  11.676  0.1322  0.4377  0.3284
 5341TIP3    H137438   2.128   3.951  11.625  0.3941 -0.1194  1.1450
 5341TIP3    H237439   2.095   3.994  11.766 -0.1957  1.6101  0.5023
 5342TIP3   OH237440   3.107   6.596   4.110  0.0453 -0.8694  0.4378
 5342TIP3    H137441   3.103   6.584   4.205 -1.4869 -1.7277  0.2964
 5342TIP3    H237442   3.088   6.510   4.074 -1.8289 -0.0531 -0.6404
 5343TIP3   OH237443   3.166   2.475  12.253 -0.3895 -0.4736  0.2327
 5343TIP3    H137444   3.205   2.532  12.188  0.0004 -0.3170  0.5962
 5343TIP3    H237445   3.136   2.399  12.204  0.2556 -0.5332 -0.0771
 5344TIP3   OH237446   0.344   6.468  11.057  0.7203  0.0122  0.5109
 5344TIP3    H137447   0.283   6.415  11.110  1.2927  0.1586  1.3380
 5344TIP3    H237448   0.352   6.420  10.975 -1.1464  0.4114  0.0524
 5345TIP3   OH237449   4.215   2.615   4.412 -0.1056  0.4234  0.4680
 5345TIP3    H137450   4.122   2.622   4.393  0.5047  0.2281 -3.5298
 5345TIP3    H237451   4.237   2.698   4.454 -2.0605  0.4511  1.5236
 5346TIP3   OH237452   0.863   4.569  13.120  0.0279 -0.2246 -0.1637
 5346TIP3    H137453   0.867   4.639  13.185 -1.7924  1.1945 -1.4864
 5346TIP3    H237454   0.791   4.513  13.149  1.7179 -1.8953  1.1054
 5347TIP3   OH237455   1.319   6.409  15.385 -0.0543  0.1682  0.3465
 5347TIP3    H137456   1.232   6.427  15.422 -0.3127  0.0600 -0.1974
 5347TIP3    H237457   1.301   6.371  15.299  0.5312 -0.0612  0.3198
 5348TIP3   OH237458   3.989   5.664  14.655 -0.0085 -0.0190 -0.2501
 5348TIP3    H137459   3.930   5.671  14.730 -1.0344  1.3053 -1.1447
 5348TIP3    H237460   4.064   5.720  14.678  0.1962 -0.4719  0.2203
 5349TIP3   OH237461   1.979   5.148   2.199 -0.3660 -0.0975  0.1280
 5349TIP3    H137462   2.068   5.178   2.220 -0.3267 -0.3209  0.2814
 5349TIP3    H237463   1.969   5.066   2.248 -1.2442  0.7593  1.4627
 5350TIP3   OH237464   2.270   3.544   4.148  0.0857 -0.1752 -0.4342
 5350TIP3    H137465   2.249   3.566   4.057 -0.1635  0.7795 -0.1553
 5350TIP3    H237466   2.364   3.526   4.147  0.4079  1.3319 -0.6270
 5351TIP3   OH237467   1.799   0.453   3.163 -0.0867  0.6844  0.2392
 5351TIP3    H137468   1.801   0.379   3.103 -1.5934  0.6434  0.2050
 5351TIP3    H237469   1.784   0.529   3.106 -1.0867  0.6983  0.5121
 5352TIP3   OH237470   1.544   6.405   4.274  0.6078 -0.0265 -0.1247
 5352TIP3    H137471   1.499   6.478   4.230 -0.6262 -0.9560 -0.4860
 5352TIP3    H237472   1.481   6.375   4.340  1.3628 -0.3529  0.4556
 5353TIP3   OH237473   2.630   1.197  15.765 -0.0609  0.1738 -0.0555
 5353TIP3    H137474   2.669   1.195  15.853 -1.2833  2.4361  0.6097
 5353TIP3    H237475   2.561   1.131  15.768 -1.0057  1.1653  1.2002
 5354TIP3   OH237476   0.698   0.775   3.087  0.2858  0.4687 -0.3588
 5354TIP3    H137477   0.679   0.829   3.010 -2.2348 -1.4996 -1.2848
 5354TIP3    H237478   0.699   0.837   3.160  2.1782  2.3169 -1.8442
 5355TIP3   OH237479   6.754   4.049  13.445  0.4458  0.4799  0.0128
 5355TIP3    H137480   6.742   4.002  13.527  0.6919  0.6402  0.1417
 5355TIP3    H237481   6.668   4.086  13.426  0.8828  2.3383  1.3632
 5356TIP3   OH237482   5.205   1.302  17.150  0.0352 -0.6116  0.7470
 5356TIP3    H137483   5.141   1.373  17.138  0.6038 -0.2223 -0.0825
 5356TIP3    H237484   5.242   1.318  17.237 -0.4872 -0.4169  0.9363
 5357TIP3   OH237485   6.155   4.734   5.492 -0.4448  0.8955 -0.4915
 5357TIP3    H137486   6.162   4.819   5.535  0.8498  0.5233  0.0868
 5357TIP3    H237487   6.219   4.738   5.421  0.3676  0.0652  0.1704
 5358TIP3   OH237488   6.279   2.247   2.173  0.2697  0.2796  0.0271
 5358TIP3    H137489   6.309   2.221   2.260  0.8470 -0.7341 -0.4509
 5358TIP3    H237490   6.275   2.343   2.177  1.0568  0.2954  0.9265
 5359TIP3   OH237491   4.342   3.304  12.344 -0.6954  0.3508 -0.2142
 5359TIP3    H137492   4.337   3.259  12.260  1.2199  1.2466 -0.8443
 5359TIP3    H237493   4.339   3.397  12.323 -1.3239  0.5933  0.8283
 5360TIP3   OH237494   0.988   1.533  12.600  0.0071 -0.1108  0.2302
 5360TIP3    H137495   1.055   1.539  12.667  1.0866 -1.1603 -0.6991
 5360TIP3    H237496   1.029   1.481  12.530 -1.0008  1.0666 -1.3048
 5361TIP3   OH237497   0.487   5.469  11.298  0.5573  0.1685 -0.3997
 5361TIP3    H137498   0.483   5.394  11.357  0.2844  1.3299  1.1195
 5361TIP3    H237499   0.502   5.545  11.356  2.8804  1.0797 -2.0355
 5362TIP3   OH237500   4.873   4.157  11.064 -0.2189  0.3356  0.0184
 5362TIP3    H137501   4.821   4.175  10.986 -0.4268  1.1652  0.3352
 5362TIP3    H237502   4.953   4.209  11.052  0.2528 -0.4016 -0.1491
 5363TIP3   OH237503   3.901   0.895   4.582 -0.2387  0.6814 -0.1255
 5363TIP3    H137504   3.982   0.845   4.589 -0.9902 -0.4019  1.1013
 5363TIP3    H237505   3.843   0.858   4.648 -2.5045  0.0330 -2.3246
 5364TIP3   OH237506   6.062   0.381   2.260  0.1424  0.7502 -0.3886
 5364TIP3    H137507   6.079   0.469   2.228  3.3981  0.4286  0.1820
 5364TIP3    H237508   5.983   0.390   2.314  0.2139  3.2206 -0.5918
 5365TIP3   OH237509   3.225   1.668  12.031  0.1449 -0.4409 -0.1128
 5365TIP3    H137510   3.211   1.574  12.048  0.2754 -0.4483 -0.0476
 5365TIP3    H237511   3.319   1.676  12.016  0.0094 -0.4765 -1.0805
 5366TIP3   OH237512   0.069   5.714   1.956  0.1911 -0.0040 -0.3273
 5366TIP3    H137513   0.061   5.809   1.962  1.7560  0.1900 -0.8779
 5366TIP3    H237514   0.156   5.694   1.990  0.7316 -0.9995 -2.1431
 5367TIP3   OH237515   5.891   4.994   1.809  0.0714 -0.2553  0.1994
 5367TIP3    H137516   5.966   5.018   1.864 -0.1242  1.1031 -0.0962
 5367TIP3    H237517   5.925   4.926   1.750  1.1915  0.6235 -0.1986
 5368TIP3   OH237518   2.508   6.276  17.034  0.6489  0.0876 -0.4359
 5368TIP3    H137519   2.525   6.209  17.100 -0.9331 -1.1757 -1.2369
 5368TIP3    H237520   2.594   6.294  16.995  1.1731 -1.1180  0.1237
 5369TIP3   OH237521   3.006   5.300  14.873  0.0642 -0.6922 -0.0541
 5369TIP3    H137522   3.054   5.217  14.873 -0.5152 -1.0723  1.5607
 5369TIP3    H237523   2.956   5.298  14.791  1.5546 -1.0140 -0.9780
 5370TIP3   OH237524   3.047   0.870  13.973 -0.1430 -0.1514  0.6167
 5370TIP3    H137525   3.032   0.776  13.976  0.8546 -0.3183  0.6615
 5370TIP3    H237526   3.118   0.886  14.035 -0.8145  0.7407  1.1803
 5371TIP3   OH237527   5.427   3.922  16.016 -0.8152  0.3464 -0.4031
 5371TIP3    H137528   5.350   3.908  16.070 -0.3177  1.2089  0.5539
 5371TIP3    H237529   5.400   3.894  15.928 -2.5301  1.5251 -0.3000
 5372TIP3   OH237530   5.390   5.248  14.312  0.3539  0.5007 -0.1986
 5372TIP3    H137531   5.384   5.309  14.239 -0.6915  1.0733  0.3520
 5372TIP3    H237532   5.323   5.182  14.295  0.6227  0.2078 -0.1416
 5373TIP3   OH237533   3.073   3.816   2.541  0.2836 -0.3431 -0.4205
 5373TIP3    H137534   3.071   3.827   2.636 -2.1714 -0.7604 -0.3554
 5373TIP3    H237535   3.131   3.742   2.527  0.2454 -0.6340  0.8199
 5374TIP3   OH237536   3.349   6.035   0.386 -0.2816 -0.1055 -0.9739
 5374TIP3    H137537   3.264   6.065   0.418  0.2912 -0.8246  1.4008
 5374TIP3    H237538   3.350   5.942   0.405  1.9155  0.2854  1.2823
 5375TIP3   OH237539   2.128   4.420   0.087  0.8713  0.7706 -0.2908
 5375TIP3    H137540   2.158   4.485   0.150 -0.6209  0.6071  0.6280
 5375TIP3    H237541   2.169   4.446   0.004  2.0866  1.5431  0.5283
 5376TIP3   OH237542   5.849   2.351   3.664 -0.0014  0.1920  0.3269
 5376TIP3    H137543   5.860   2.349   3.759 -0.3479  0.1343  0.3660
 5376TIP3    H237544   5.929   2.310   3.630 -1.4745 -3.3299  0.7054
 5377TIP3   OH237545   2.711   2.100   3.990 -0.7505  0.2537  0.0998
 5377TIP3    H137546   2.776   2.045   3.947 -2.2759 -0.5235 -1.3320
 5377TIP3    H237547   2.753   2.127   4.072  1.3156 -0.2490 -0.7292
 5378TIP3   OH237548   1.812   5.722   4.365 -0.5374 -0.5651 -0.2574
 5378TIP3    H137549   1.844   5.781   4.297 -0.1009  0.8044  1.0763
 5378TIP3    H237550   1.716   5.730   4.360 -0.5952 -1.6929 -1.7010
 5379TIP3   OH237551   3.887   5.140  11.179 -0.4357  0.3057  0.0100
 5379TIP3    H137552   3.846   5.215  11.136 -0.0529  0.3829 -0.2141
 5379TIP3    H237553   3.837   5.064  11.147 -0.5093  0.4145 -0.1347
 5380TIP3   OH237554   1.448   0.851   4.796 -0.2349 -0.6210 -0.4037
 5380TIP3    H137555   1.431   0.857   4.890  2.2177 -0.6654  0.0882
 5380TIP3    H237556   1.393   0.778   4.767  0.1459 -1.6524  1.3156
 5381TIP3   OH237557   6.230   2.694  15.696  0.1830 -0.2225 -0.0258
 5381TIP3    H137558   6.181   2.624  15.653 -0.5673  0.2001  0.1391
 5381TIP3    H237559   6.166   2.738  15.752  0.9759 -0.3086  0.9763
 5382TIP3   OH237560   0.981   5.285  16.796  0.0105  0.3518 -0.0999
 5382TIP3    H137561   1.051   5.294  16.731 -0.1307 -2.5673 -0.7957
 5382TIP3    H237562   1.027   5.274  16.879  0.2603  1.4312 -0.0811
 5383TIP3   OH237563   6.086   6.669  14.922 -0.3448  0.1446 -1.1050
 5383TIP3    H137564   6.137   6.744  14.890  1.7834 -1.4319 -1.5978
 5383TIP3    H237565   6.040   6.636  14.845 -1.9884  1.4059 -0.7137
 5384TIP3   OH237566   4.352   1.963   0.126 -0.1097  0.2577  0.1207
 5384TIP3    H137567   4.344   1.974   0.032  1.5605 -0.4863 -0.1350
 5384TIP3    H237568   4.300   2.034   0.163  1.1038  2.0132 -1.3735
 5385TIP3   OH237569   6.617   0.427   4.670  0.4393  0.2770 -0.2435
 5385TIP3    H137570   6.598   0.341   4.632 -2.6080  0.3904  0.7634
 5385TIP3    H237571   6.631   0.410   4.763  1.4799  0.7002 -0.3167
 5386TIP3   OH237572   3.911   1.497  16.635  0.3387 -0.3945 -0.0106
 5386TIP3    H137573   3.828   1.457  16.608  0.1940 -0.5325  0.6251
 5386TIP3    H237574   3.913   1.487  16.730 -0.0006  1.7015  0.2665
 5387TIP3   OH237575   2.193   0.154  14.119 -0.3536 -0.5994  0.3064
 5387TIP3    H137576   2.178   0.248  14.120  1.9030 -0.1846  0.5064
 5387TIP3    H237577   2.211   0.132  14.211 -0.4944 -1.1571  0.2038
 5388TIP3   OH237578   1.570   5.283  11.386  0.0972 -0.3115  0.2238
 5388TIP3    H137579   1.666   5.278  11.387  0.2489  1.6603 -0.2587
 5388TIP3    H237580   1.551   5.377  11.379 -1.8838 -0.5868  1.1964
 5389TIP3   OH237581   2.860   6.016  12.804  0.0334  0.1105 -0.0205
 5389TIP3    H137582   2.928   6.074  12.770  1.4163 -1.4260 -0.0359
 5389TIP3    H237583   2.891   5.991  12.891 -2.5975  2.6057  1.8242
 5390TIP3   OH237584   6.681   3.665  16.738  0.6913  0.4005 -0.7194
 5390TIP3    H137585   6.743   3.593  16.727 -0.2864 -0.5457 -0.2560
 5390TIP3    H237586   6.672   3.703  16.650  0.9978 -0.2395 -1.0307
 5391TIP3   OH237587   1.581   4.096  13.841 -0.3798 -0.5672 -0.2569
 5391TIP3    H137588   1.660   4.073  13.791 -1.4661 -0.0291 -2.3695
 5391TIP3    H237589   1.608   4.168  13.897  0.3908  0.4069 -1.8030
 5392TIP3   OH237590   2.591   4.564   0.570 -0.0551  0.8751 -0.4806
 5392TIP3    H137591   2.573   4.516   0.489  1.1441  0.9615 -0.8246
 5392TIP3    H237592   2.539   4.520   0.637 -1.8352  1.3840 -1.4508
 5393TIP3   OH237593   0.051   1.882   0.138  0.1535 -0.2042 -0.5115
 5393TIP3    H137594   0.023   1.878   0.046  0.0537  0.8282 -0.5406
 5393TIP3    H237595   0.036   1.794   0.171 -3.0703  0.1876 -0.5675
 5394TIP3   OH237596   5.066   1.924   4.282  0.2000 -0.7153 -0.5360
 5394TIP3    H137597   5.161   1.921   4.269  0.2150 -2.6477 -0.2587
 5394TIP3    H237598   5.056   1.937   4.377  0.1520  0.7534 -0.7199
 5395TIP3   OH237599   3.250   0.577   1.281 -0.7824 -0.2770  0.3816
 5395TIP3    H137600   3.327   0.520   1.278  0.1659  0.9170  1.0992
 5395TIP3    H237601   3.214   0.564   1.369 -0.2113  0.6487  0.7644
 5396TIP3   OH237602   3.936   6.335   0.968 -0.0227 -0.1883  0.5856
 5396TIP3    H137603   3.914   6.421   0.932  0.6141 -0.3373 -0.1880
 5396TIP3    H237604   3.913   6.342   1.061 -2.0166  0.1017  0.1197
 5397TIP3   OH237605   4.840   4.688  13.509  0.2408 -0.5525  0.2012
 5397TIP3    H137606   4.875   4.606  13.545  0.4015 -0.3875  0.4245
 5397TIP3    H237607   4.785   4.661  13.436 -0.7133 -0.9554  1.0488
 5398TIP3   OH237608   3.480   0.113   4.078  0.4850 -0.5464 -0.3726
 5398TIP3    H137609   3.502   0.123   3.985  0.2902  1.2313 -0.2669
 5398TIP3    H237610   3.442   0.198   4.103  1.2386 -0.7076  1.5085
 5399TIP3   OH237611   4.496   5.242  17.009  0.1376 -0.4245  0.7407
 5399TIP3    H137612   4.547   5.274  17.084 -0.6309 -0.4091  1.2594
 5399TIP3    H237613   4.446   5.319  16.981  1.3244 -0.0848 -0.5736
 5400TIP3   OH237614   0.449   2.470  11.333 -0.6742  0.4209  0.2174
 5400TIP3    H137615   0.372   2.459  11.389 -1.3767 -0.1386 -0.8334
 5400TIP3    H237616   0.413   2.482  11.245  0.4689 -0.5264 -0.3960
 5401TIP3   OH237617   0.977   0.462   0.041  0.3507 -0.0807 -0.0294
 5401TIP3    H137618   1.045   0.415  -0.008 -0.5585 -2.4508  0.8698
 5401TIP3    H237619   0.896   0.440  -0.003 -0.5068 -2.3166  2.4143
 5402TIP3   OH237620   0.341   1.980  13.921  0.3776 -0.7656  0.2386
 5402TIP3    H137621   0.280   1.966  13.848 -0.6956  2.1690  0.4219
 5402TIP3    H237622   0.415   2.026  13.882  1.1008 -1.6280  0.5616
 5403TIP3   OH237623   5.160   0.901  16.505 -0.3417 -0.6488 -0.4455
 5403TIP3    H137624   5.238   0.864  16.549  0.3296  0.7084 -0.4407
 5403TIP3    H237625   5.195   0.971  16.451 -1.4757 -0.6651 -1.2157
 5404TIP3   OH237626   1.766   3.043   4.463 -0.1718 -0.2031  0.2434
 5404TIP3    H137627   1.789   3.009   4.549  0.8556  0.0211  0.0702
 5404TIP3    H237628   1.674   3.018   4.451  0.3044 -2.2381  0.4442
 5405TIP3   OH237629   3.845   3.981  10.697 -0.1562  0.3308  0.0812
 5405TIP3    H137630   3.757   3.944  10.701 -0.2735  0.4039 -1.4696
 5405TIP3    H237631   3.899   3.920  10.747 -1.1342  0.4865  1.3707
 5406TIP3   OH237632   0.243   1.714   5.672 -0.0540 -0.4469 -0.1652
 5406TIP3    H137633   0.245   1.729   5.578 -3.1315 -0.7561 -0.3851
 5406TIP3    H237634   0.161   1.666   5.687 -1.4215  2.4336  2.9813
 5407TIP3   OH237635   6.482   6.145  14.728  0.5092  0.4912  0.0924
 5407TIP3    H137636   6.442   6.210  14.670  0.5149  0.3881 -0.0274
 5407TIP3    H237637   6.539   6.094  14.670 -1.0320 -0.9279 -0.2235
 5408TIP3   OH237638   3.705   3.872  15.720  0.2401  0.5928 -0.3556
 5408TIP3    H137639   3.712   3.946  15.780  0.3376 -0.0180  0.4098
 5408TIP3    H237640   3.612   3.866  15.699 -0.1814 -0.5963  1.6066
 5409TIP3   OH237641   1.978   3.723   3.112  0.0028 -0.5046 -0.2683
 5409TIP3    H137642   1.964   3.772   3.031  0.0764  0.1273  0.0947
 5409TIP3    H237643   2.020   3.786   3.171  3.1104 -1.8991 -0.8204
 5410TIP3   OH237644   2.957   3.522  11.223 -0.2979 -0.0181 -0.1171
 5410TIP3    H137645   2.964   3.576  11.301 -2.2595 -0.6439  0.5720
 5410TIP3    H237646   3.018   3.561  11.161  0.0464  1.5491  1.1280
 5411TIP3   OH237647   0.253   6.489  13.160 -0.6569  0.3747 -0.2959
 5411TIP3    H137648   0.162   6.479  13.135 -0.9042  0.5432  0.5141
 5411TIP3    H237649   0.274   6.580  13.137 -0.3171 -0.0193 -1.6290
 5412TIP3   OH237650   4.291   0.987  15.309  0.4719 -0.5161  0.2854
 5412TIP3    H137651   4.305   0.979  15.403 -3.3086 -2.8647  0.8386
 5412TIP3    H237652   4.306   1.080  15.291 -1.3569  0.6307  3.7829
 5413TIP3   OH237653   3.160   5.098  15.070 -0.3274  0.1341 -0.2170
 5413TIP3    H137654   3.180   5.110  14.977 -0.1809  0.1902 -0.1787
 5413TIP3    H237655   3.142   5.004  15.079 -2.5325  0.4520 -0.7210
 5414TIP3   OH237656   4.050   5.167   3.147 -0.2212  0.2292  0.5018
 5414TIP3    H137657   4.135   5.175   3.192 -0.6922 -0.6990  1.6161
 5414TIP3    H237658   4.019   5.257   3.139  1.4795  0.7305 -1.2139
 5415TIP3   OH237659   1.655   2.089   2.800  0.1390  0.2733 -0.2583
 5415TIP3    H137660   1.633   2.155   2.867 -0.6068  0.1217 -0.3395
 5415TIP3    H237661   1.590   2.104   2.731 -0.1878 -0.6941 -0.1725
 5416TIP3   OH237662   6.114   4.579  10.876  0.2249 -0.5198 -0.2775
 5416TIP3    H137663   6.206   4.565  10.899 -0.0344 -0.9391  0.5356
 5416TIP3    H237664   6.096   4.514  10.808  0.3729 -0.8290 -0.0226
 5417TIP3   OH237665   4.462   6.393   2.266 -0.2295 -0.0652  0.0831
 5417TIP3    H137666   4.523   6.319   2.274 -0.8106 -0.5846 -0.1817
 5417TIP3    H237667   4.505   6.453   2.206  1.2251  0.8372  1.9266
 5418TIP3   OH237668   6.249   1.929   3.662  0.2401 -0.6558 -0.5872
 5418TIP3    H137669   6.313   1.861   3.643  0.8657 -0.6535  1.2501
 5418TIP3    H237670   6.170   1.881   3.687  0.7570 -0.7865  0.9572
 5419TIP3   OH237671   0.059   4.893   5.400  0.4935  0.4512 -0.0673
 5419TIP3    H137672   0.025   4.804   5.404 -0.0307  0.7132  2.7138
 5419TIP3    H237673   0.129   4.895   5.466  3.0085  1.1809 -2.5230
 5420TIP3   OH237674   1.001   5.442  11.533 -0.4054  0.0498  0.1941
 5420TIP3    H137675   0.959   5.360  11.510 -1.1676  0.4632  0.0816
 5420TIP3    H237676   0.959   5.507  11.476  0.3162  0.4899  0.1448
 5421TIP3   OH237677   2.142   6.034   1.728  0.3137  0.5642  0.0703
 5421TIP3    H137678   2.164   5.983   1.806 -0.8553  0.7881  0.5698
 5421TIP3    H237679   2.222   6.084   1.708  1.2802 -0.9644 -0.0738
 5422TIP3   OH237680   2.402   0.414  15.026 -0.3221 -0.1619 -0.0636
 5422TIP3    H137681   2.336   0.421  15.095  1.6713 -1.4623  2.1060
 5422TIP3    H237682   2.470   0.477  15.052  1.3047 -1.9514  0.2520
 5423TIP3   OH237683   0.772   5.129  15.839 -0.3835  0.5323  0.0732
 5423TIP3    H137684   0.848   5.113  15.896  0.5423  0.2050 -1.2023
 5423TIP3    H237685   0.709   5.062  15.865 -0.1525  0.6502  0.9923
 5424TIP3   OH237686   1.853   5.029   3.823 -0.4601 -0.5084 -0.0302
 5424TIP3    H137687   1.871   5.081   3.901  0.7585 -1.3628  0.2949
 5424TIP3    H237688   1.794   5.083   3.771 -0.9062  0.2874  1.2508
 5425TIP3   OH237689   2.868   3.686  12.292 -0.0810  0.1780 -0.4317
 5425TIP3    H137690   2.872   3.625  12.366 -0.1751  0.7364  0.0441
 5425TIP3    H237691   2.775   3.707  12.284  0.1980  2.4039  1.2275
 5426TIP3   OH237692   6.287   4.107   0.100 -0.2768 -0.3049 -0.4002
 5426TIP3    H137693   6.203   4.153   0.106  0.5104  1.3496 -1.2492
 5426TIP3    H237694   6.353   4.177   0.099  1.0498 -1.5066 -0.8168
 5427TIP3   OH237695   6.037   5.078  14.158  0.0214  0.4398 -0.0306
 5427TIP3    H137696   5.968   5.033  14.109 -0.4440  1.5371 -0.4115
 5427TIP3    H237697   6.051   5.023  14.235  1.1202 -1.6169 -1.5928
 5428TIP3   OH237698   2.014   6.737  16.740 -0.4141  0.4124 -0.6028
 5428TIP3    H137699   2.015   6.644  16.759 -0.1965  0.5494  0.0679
 5428TIP3    H237700   2.018   6.780  16.825 -2.6642  1.0521 -0.7562
 5429TIP3   OH237701   6.015   3.501   2.224  0.5903  0.0670 -0.2155
 5429TIP3    H137702   6.023   3.470   2.134 -1.2419  0.7129 -0.6369
 5429TIP3    H237703   5.924   3.483   2.248  0.0866  2.9599  0.3296
 5430TIP3   OH237704   6.617   4.838   4.751  0.3001 -0.2948  0.2171
 5430TIP3    H137705   6.683   4.812   4.815  1.1006  0.3103 -0.3486
 5430TIP3    H237706   6.542   4.867   4.804  0.6434 -0.5769  0.8674
 5431TIP3   OH237707   0.495   2.097   1.619  0.1087 -0.5040  0.2329
 5431TIP3    H137708   0.570   2.157   1.612 -1.1623  1.0966 -0.1533
 5431TIP3    H237709   0.464   2.109   1.709  0.7787 -1.8050  0.6742
 5432TIP3   OH237710   2.990   1.613   0.695 -0.0244 -0.8291  0.3108
 5432TIP3    H137711   2.974   1.574   0.781 -1.0991  0.4589  0.7383
 5432TIP3    H237712   3.007   1.705   0.713 -0.9344 -0.3903 -0.8843
 5433TIP3   OH237713   3.128   2.672  11.804 -0.3038 -0.0022 -0.4186
 5433TIP3    H137714   3.032   2.674  11.810 -0.2340 -0.1873  1.3426
 5433TIP3    H237715   3.155   2.762  11.822 -0.0850 -0.4457  1.7186
 5434TIP3   OH237716   3.158   4.774   1.566  0.1045  0.3175  0.8222
 5434TIP3    H137717   3.067   4.796   1.547  0.1089 -0.0421  0.3825
 5434TIP3    H237718   3.156   4.741   1.656 -0.4125 -0.8666  0.4086
 5435TIP3   OH237719   1.161   2.795   4.741 -0.1624 -0.2657  0.2652
 5435TIP3    H137720   1.132   2.758   4.824  1.0898 -3.1164 -0.4256
 5435TIP3    H237721   1.254   2.770   4.734  0.4191  1.8863 -0.9929
 5436TIP3   OH237722   5.912   2.603  16.008 -0.0681  0.3722  1.0865
 5436TIP3    H137723   5.886   2.641  16.092  0.0182  0.8402  0.9044
 5436TIP3    H237724   5.981   2.540  16.030 -0.8007 -0.3081  1.4837
 5437TIP3   OH237725   0.683   1.795   2.780  0.2915  0.5298  0.7404
 5437TIP3    H137726   0.755   1.854   2.803 -0.8613  1.2235  2.8157
 5437TIP3    H237727   0.640   1.775   2.863  0.3364 -2.9363  0.0655
 5438TIP3   OH237728   4.538   1.876  12.061  0.0802 -0.2510 -0.5849
 5438TIP3    H137729   4.499   1.839  12.140 -0.9638  1.3637 -0.2911
 5438TIP3    H237730   4.622   1.832  12.053  0.9848  0.6899  2.3805
 5439TIP3   OH237731   6.243   6.146  11.884  0.3946 -0.0663  0.1394
 5439TIP3    H137732   6.209   6.075  11.829  0.5825  0.3719 -0.5602
 5439TIP3    H237733   6.320   6.107  11.927 -0.5095 -0.8142  1.1262
 5440TIP3   OH237734   1.761   6.647   4.494 -0.4818 -0.6833  0.0230
 5440TIP3    H137735   1.727   6.736   4.488  0.5364 -0.3588 -1.4994
 5440TIP3    H237736   1.686   6.595   4.524 -1.7404  0.3490 -1.1675
 5441TIP3   OH237737   5.474   0.333  12.464 -0.4492 -0.0648  0.1278
 5441TIP3    H137738   5.380   0.347  12.472 -0.3353  1.2997 -0.6796
 5441TIP3    H237739   5.502   0.308  12.552 -1.5439 -0.4678  0.3815
 5442TIP3   OH237740   2.562   5.700   3.508 -0.4924 -0.0921 -0.3515
 5442TIP3    H137741   2.519   5.682   3.424 -1.8097  0.8650  0.0966
 5442TIP3    H237742   2.576   5.613   3.546 -0.7408 -0.4838 -1.1227
 5443TIP3   OH237743   5.558   3.454  14.947  0.3404 -0.1740 -0.2492
 5443TIP3    H137744   5.544   3.437  15.040 -0.5260  0.5839 -0.2250
 5443TIP3    H237745   5.471   3.476  14.913  0.9380  1.5752 -0.7861
 5444TIP3   OH237746   0.258   5.666  10.819 -0.5547 -0.2917  0.5087
 5444TIP3    H137747   0.224   5.592  10.770  0.2169  0.2966 -0.9634
 5444TIP3    H237748   0.273   5.734  10.753  1.8512  0.0534  1.3224
 5445TIP3   OH237749   3.567   2.627  16.088 -0.3433  0.1183 -0.4656
 5445TIP3    H137750   3.472   2.617  16.093 -0.5033  0.6168 -1.9246
 5445TIP3    H237751   3.584   2.650  15.996  1.2156 -0.2446 -0.2994
 5446TIP3   OH237752   5.890   6.571   5.390 -0.0152 -0.0435 -0.4513
 5446TIP3    H137753   5.921   6.493   5.343 -0.2984  0.4398 -1.4767
 5446TIP3    H237754   5.824   6.608   5.332  0.6758  1.4056 -0.3478
 5447TIP3   OH237755   3.431   3.537   4.181  0.5679 -0.6481  0.2527
 5447TIP3    H137756   3.377   3.610   4.210  0.0218 -0.9414  0.0039
 5447TIP3    H237757   3.368   3.472   4.149  1.0742 -0.9631 -0.1261
 5448TIP3   OH237758   2.950   3.127  17.179 -0.4029  0.4362  0.2655
 5448TIP3    H137759   2.998   3.184  17.239  1.3355 -1.4404  0.7420
 5448TIP3    H237760   3.014   3.102  17.112 -1.3813 -0.2265 -0.4541
 5449TIP3   OH237761   1.091   6.543   5.990 -0.3337  0.5400  0.7003
 5449TIP3    H137762   1.043   6.535   5.907  0.3448  1.5508  0.1784
 5449TIP3    H237763   1.063   6.468   6.042 -1.1255  0.1407 -0.2718
 5450TIP3   OH237764   1.143   5.282  16.189  0.3109 -0.6348 -0.6246
 5450TIP3    H137765   1.178   5.362  16.150 -0.3540  0.2776  0.5942
 5450TIP3    H237766   1.209   5.255  16.253 -0.8693  0.7791  1.2790
 5451TIP3   OH237767   5.964   3.614  12.348  0.2966  0.2751  0.2826
 5451TIP3    H137768   5.869   3.613  12.354  0.1213 -0.4634 -1.7566
 5451TIP3    H237769   5.990   3.524  12.364  0.2803 -0.3574 -2.6816
 5452TIP3   OH237770   3.537   2.165   4.235  0.1932  0.1525  0.1024
 5452TIP3    H137771   3.630   2.155   4.218  0.3571  0.3125  0.8766
 5452TIP3    H237772   3.508   2.235   4.176  0.0628 -1.4101 -1.8192
 5453TIP3   OH237773   6.510   2.981   1.182 -0.0533 -0.1749  0.1714
 5453TIP3    H137774   6.500   3.073   1.155 -1.1424 -0.2333  0.3642
 5453TIP3    H237775   6.605   2.967   1.182  0.1897  1.2586  1.1751
 5454TIP3   OH237776   0.668   1.410   2.870  0.0962 -0.6621 -0.2227
 5454TIP3    H137777   0.751   1.443   2.906  0.4479 -0.1105 -1.4923
 5454TIP3    H237778   0.601   1.441   2.932  0.7632 -0.5848  0.4814
 5455TIP3   OH237779   1.219   2.727  14.612 -0.2879 -0.7543 -0.0613
 5455TIP3    H137780   1.156   2.684  14.554 -1.1487  0.0707  0.2207
 5455TIP3    H237781   1.189   2.818  14.615 -1.7430 -1.1719  3.4841
 5456TIP3   OH237782   4.485   6.192   3.044 -0.0725  0.0458  0.0404
 5456TIP3    H137783   4.428   6.149   3.107  0.3194  0.8117  0.9485
 5456TIP3    H237784   4.507   6.276   3.085  0.4761  0.4144 -0.9627
 5457TIP3   OH237785   6.325   2.763  11.963  0.2330  0.1119 -0.0691
 5457TIP3    H137786   6.243   2.807  11.987 -1.0743 -1.5983 -1.1683
 5457TIP3    H237787   6.388   2.835  11.954 -1.1713  1.5059  0.6591
 5458TIP3   OH237788   1.268   4.237   2.119  0.4619  0.1278  0.3315
 5458TIP3    H137789   1.304   4.227   2.031 -0.2914  0.9204 -0.0826
 5458TIP3    H237790   1.192   4.179   2.121  0.6721 -0.1426  0.5798
 5459TIP3   OH237791   1.880   0.021  15.067 -0.7548 -0.4733 -0.1299
 5459TIP3    H137792   1.910   0.087  15.129  0.2868  0.5012 -1.5990
 5459TIP3    H237793   1.786   0.012  15.085 -0.9749  1.5633 -0.0023
 5460TIP3   OH237794   4.638   3.666   0.755 -0.3060 -0.0461 -0.1461
 5460TIP3    H137795   4.707   3.606   0.783  0.4320  0.8731  0.0405
 5460TIP3    H237796   4.627   3.726   0.829 -0.0114  0.9419 -0.8924
 5461TIP3   OH237797   4.692   1.547   5.041  0.5486  0.0486  0.2773
 5461TIP3    H137798   4.636   1.612   5.084  1.1787  0.2060  0.8746
 5461TIP3    H237799   4.664   1.548   4.950  0.9607  1.6106  0.1391
 5462TIP3   OH237800   6.081   0.350   0.305 -0.0114 -0.1764  0.2511
 5462TIP3    H137801   6.067   0.442   0.281  1.2284 -0.1012 -0.2445
 5462TIP3    H237802   6.101   0.352   0.399 -1.2410 -0.0921  0.5324
 5463TIP3   OH237803   2.761   2.096  16.690  0.1118 -0.1462 -0.3351
 5463TIP3    H137804   2.731   2.081  16.779  0.8102  2.5875  0.4761
 5463TIP3    H237805   2.827   2.028  16.674 -0.4451 -1.0237  0.9918
 5464TIP3   OH237806   6.402   6.564  11.574 -0.5613  0.0005  0.4855
 5464TIP3    H137807   6.328   6.503  11.578 -1.8135  1.3731 -0.7049
 5464TIP3    H237808   6.401   6.607  11.660 -1.4063  0.2769  0.3514
 5465TIP3   OH237809   4.506   1.656   6.533 -0.2745 -0.0438  0.7433
 5465TIP3    H137810   4.558   1.697   6.465 -1.7555  0.6733 -0.0116
 5465TIP3    H237811   4.557   1.580   6.560  0.7329  0.1351 -0.5639
 5466TIP3   OH237812   3.074   3.989  14.227 -0.6338  0.0936 -0.3458
 5466TIP3    H137813   3.088   3.996  14.133  1.7866 -0.2315 -0.0734
 5466TIP3    H237814   3.057   3.896  14.242  2.5994 -0.5885 -0.1630
 5467TIP3   OH237815   1.218   4.944  15.415  0.2229  0.1528 -0.4601
 5467TIP3    H137816   1.202   5.026  15.462 -0.6107 -1.0867  1.5653
 5467TIP3    H237817   1.306   4.917  15.442  0.0503 -0.1731 -0.2127
 5468TIP3   OH237818   0.929   0.155  15.521 -0.2030 -0.2913 -0.0158
 5468TIP3    H137819   0.962   0.242  15.496  0.8506 -0.6844 -0.0654
 5468TIP3    H237820   0.948   0.099  15.446 -0.8427 -0.5752  0.0288
 5469TIP3   OH237821   4.246   3.774  11.624  1.1598  0.2719  0.0616
 5469TIP3    H137822   4.194   3.836  11.676  1.1500  1.0842 -0.8832
 5469TIP3    H237823   4.237   3.691  11.671  0.1064  0.6915  0.6542
 5470TIP3   OH237824   4.056   1.055   1.427 -0.1129  0.7129 -0.0674
 5470TIP3    H137825   3.970   1.018   1.407 -0.5417  2.1142 -0.9995
 5470TIP3    H237826   4.086   1.006   1.503 -1.5453 -0.1060  0.0100
 5471TIP3   OH237827   5.163   1.653  15.966  0.4597 -0.1917  0.1079
 5471TIP3    H137828   5.161   1.748  15.948  0.2631 -0.1663  0.2566
 5471TIP3    H237829   5.070   1.628  15.971  0.4741 -0.6840 -1.4546
 5472TIP3   OH237830   2.975   2.644  14.332  0.4376  0.0639  0.4641
 5472TIP3    H137831   2.965   2.555  14.366  0.3067  0.1939  0.7731
 5472TIP3    H237832   2.954   2.700  14.406 -0.1325  0.3577  0.0919
 5473TIP3   OH237833   6.385   1.822  15.162 -0.1603  0.1093 -0.7354
 5473TIP3    H137834   6.458   1.883  15.152  0.5259 -0.3987  0.7709
 5473TIP3    H237835   6.424   1.747  15.207 -1.2573 -0.9070 -1.4370
 5474TIP3   OH237836   5.048   2.004   5.093 -0.0156  0.2479 -0.0198
 5474TIP3    H137837   5.024   2.001   5.000  0.9987  0.7313 -0.3150
 5474TIP3    H237838   4.973   1.967   5.139 -1.1600  1.3853 -0.9097
 5475TIP3   OH237839   2.137   4.874  15.733 -0.2059  0.2466 -0.4681
 5475TIP3    H137840   2.059   4.897  15.681  0.3596  1.2962 -0.8743
 5475TIP3    H237841   2.203   4.852  15.667 -1.1819 -4.6024 -0.1798
 5476TIP3   OH237842   3.048   4.734  12.099  0.3733  0.9523  0.1430
 5476TIP3    H137843   3.114   4.738  12.030  0.7497  0.1036  0.4466
 5476TIP3    H237844   2.989   4.664  12.072  2.1517 -1.4551  2.0525
 5477TIP3   OH237845   0.603   1.132   0.611 -0.2253  0.1763 -0.4248
 5477TIP3    H137846   0.662   1.067   0.649  1.0147  1.8948  0.6995
 5477TIP3    H237847   0.530   1.138   0.673 -0.5107 -0.3394 -0.6976
 5478TIP3   OH237848   0.160   1.163   3.282  0.1321  0.7338 -0.3823
 5478TIP3    H137849   0.151   1.075   3.247 -0.6910  0.0170  1.4672
 5478TIP3    H237850   0.184   1.217   3.207  1.7946 -1.2438 -1.3568
 5479TIP3   OH237851   0.180   2.927   1.629 -0.4398 -0.1184  0.3615
 5479TIP3    H137852   0.266   2.897   1.599 -0.3227 -0.0494  0.6238
 5479TIP3    H237853   0.174   3.018   1.599 -0.3550 -0.0728  0.4860
 5480TIP3   OH237854   0.204   0.228   6.025 -0.5372 -0.5257  0.1977
 5480TIP3    H137855   0.227   0.180   6.105 -1.1208 -2.3271 -0.6502
 5480TIP3    H237856   0.122   0.271   6.046  0.0785  0.2747  1.0374
 5481TIP3   OH237857   0.446   5.650   1.180  0.3423 -0.2846  0.2573
 5481TIP3    H137858   0.385   5.724   1.186  0.0037 -0.6384  1.4754
 5481TIP3    H237859   0.497   5.668   1.101 -0.4084  0.7283 -0.0288
 5482TIP3   OH237860   5.550   5.379   3.591  0.4744  0.4381 -0.1830
 5482TIP3    H137861   5.589   5.335   3.666  1.4061 -0.6658 -1.2476
 5482TIP3    H237862   5.569   5.320   3.517 -0.9732  1.1510 -1.1719
 5483TIP3   OH237863   5.449   0.832  17.012 -0.4208  0.8237  0.6423
 5483TIP3    H137864   5.410   0.747  16.990  0.2640  0.3651  1.1810
 5483TIP3    H237865   5.383   0.896  16.983 -0.4102  0.1751 -0.9342
 5484TIP3   OH237866   1.299   3.810  16.507  0.0165 -0.5787 -0.6285
 5484TIP3    H137867   1.280   3.873  16.577  0.5047  0.6221 -1.5400
 5484TIP3    H237868   1.360   3.748  16.547  0.7695  0.4431 -0.1385
 5485TIP3   OH237869   1.507   1.037   5.200 -0.0263  0.0250 -0.2108
 5485TIP3    H137870   1.534   1.069   5.286 -0.7305 -0.7406  0.3120
 5485TIP3    H237871   1.548   1.097   5.138  2.2098 -0.6086  0.5558
 5486TIP3   OH237872   5.299   2.802   0.181 -0.0231 -0.0406  0.0979
 5486TIP3    H137873   5.370   2.766   0.234  0.4006 -0.8192 -0.9728
 5486TIP3    H237874   5.244   2.849   0.244  0.4248 -0.9896  1.2329
 5487TIP3   OH237875   1.816   1.426   2.496 -0.2927  0.3693  0.3204
 5487TIP3    H137876   1.806   1.433   2.591  0.9893  0.2374  0.4854
 5487TIP3    H237877   1.907   1.452   2.480 -0.5658  0.6335 -0.9011
 5488TIP3   OH237878   6.319   4.316   3.809 -0.2004  0.1133  0.2168
 5488TIP3    H137879   6.411   4.315   3.838 -0.4354  0.3483  0.9808
 5488TIP3    H237880   6.296   4.223   3.800  0.2593  0.0548 -0.4840
 5489TIP3   OH237881   3.620   3.790   2.425 -0.8363  0.4259  0.2661
 5489TIP3    H137882   3.676   3.715   2.407 -2.2364 -0.1677 -2.0059
 5489TIP3    H237883   3.680   3.858   2.455  0.9711 -0.4911 -1.0684
 5490TIP3   OH237884   0.483   0.473   4.558  0.3115  0.4065  0.0213
 5490TIP3    H137885   0.413   0.486   4.493  0.0580 -2.7476 -0.5033
 5490TIP3    H237886   0.499   0.378   4.557  3.9814  0.8554  0.7935
 5491TIP3   OH237887   0.249   0.399  12.674 -0.1795 -0.0599  0.0810
 5491TIP3    H137888   0.308   0.401  12.749 -0.4855 -1.2160  0.3693
 5491TIP3    H237889   0.282   0.468  12.616  0.8289  0.0018  0.7023
 5492TIP3   OH237890   2.569   0.717   4.352  0.2610 -0.1831 -0.0144
 5492TIP3    H137891   2.626   0.781   4.395 -0.5135  0.5902 -0.1083
 5492TIP3    H237892   2.545   0.758   4.269  0.3995 -0.9506 -0.4423
 5493TIP3   OH237893   5.101   3.600   5.707  0.5340 -0.2319 -0.4112
 5493TIP3    H137894   5.132   3.511   5.727 -0.1821 -0.3857  0.0709
 5493TIP3    H237895   5.084   3.639   5.793 -0.7603 -0.2183 -0.6529
 5494TIP3   OH237896   1.929   3.003  12.860  0.5157  0.2008 -0.1649
 5494TIP3    H137897   1.879   3.002  12.778  1.5120  0.4643 -0.7984
 5494TIP3    H237898   1.968   2.916  12.866 -0.6981 -0.3129  0.7892
 5495TIP3   OH237899   3.203   5.774  14.422  0.7550 -0.0108  0.0222
 5495TIP3    H137900   3.108   5.777  14.409  0.0964 -0.7135  3.4873
 5495TIP3    H237901   3.236   5.851  14.376 -1.3162 -0.3205 -2.1476
 5496TIP3   OH237902   0.662   3.532  16.978 -0.4626 -0.3453 -0.0309
 5496TIP3    H137903   0.626   3.461  17.030  0.6315 -0.4659  0.5676
 5496TIP3    H237904   0.708   3.489  16.906  0.9868 -0.2881  0.8413
 5497TIP3   OH237905   1.783   2.646  13.490  0.3696  0.5779 -0.4188
 5497TIP3    H137906   1.809   2.677  13.577  0.1783  1.1697 -0.5641
 5497TIP3    H237907   1.711   2.585  13.506  1.3740 -0.5584 -0.0574
 5498TIP3   OH237908   3.661   1.817   3.743 -0.7744  0.6737  0.1299
 5498TIP3    H137909   3.584   1.771   3.713 -1.0301  1.5370 -0.5597
 5498TIP3    H237910   3.683   1.776   3.827  0.0064 -1.8239 -1.2173
 5499TIP3   OH237911   4.059   4.339   3.705 -0.5273 -0.3905 -0.0121
 5499TIP3    H137912   4.100   4.399   3.768 -0.1031 -0.8144  0.1231
 5499TIP3    H237913   3.977   4.313   3.748 -0.2135 -0.7193  0.3882
 5500TIP3   OH237914   3.705   4.262  11.748 -0.4185 -0.4464 -0.5235
 5500TIP3    H137915   3.705   4.207  11.827  0.4687  0.2225 -0.0335
 5500TIP3    H237916   3.756   4.213  11.684 -1.0342 -0.9350 -0.6489
 5501TIP3   OH237917   3.225   2.137   3.290 -0.2204  0.2856 -0.0152
 5501TIP3    H137918   3.215   2.111   3.198 -0.6032  2.8674 -0.7804
 5501TIP3    H237919   3.249   2.229   3.286 -2.4241  1.0934  2.5207
 5502TIP3   OH237920   5.638   2.008  10.792  0.3342 -0.7538 -0.6513
 5502TIP3    H137921   5.669   2.041  10.876 -1.5747  0.8678 -0.4914
 5502TIP3    H237922   5.693   1.932  10.774  3.3513  1.0537  0.1888
 5503TIP3   OH237923   1.001   3.488  10.752  0.3551 -0.1849 -0.6870
 5503TIP3    H137924   1.090   3.462  10.773 -0.4319 -0.7080  2.6751
 5503TIP3    H237925   0.999   3.582  10.767 -0.0612 -0.4682  1.2539
 5504TIP3   OH237926   3.221   0.799   3.715  0.0880  0.2945 -0.0040
 5504TIP3    H137927   3.277   0.722   3.701  1.6776  1.4135 -0.0727
 5504TIP3    H237928   3.183   0.785   3.801  1.5526  0.1066  0.6489
 5505TIP3   OH237929   4.901   4.138  14.778  0.3765 -0.1064 -0.2397
 5505TIP3    H137930   4.897   4.232  14.792  2.3778 -0.2217  1.5709
 5505TIP3    H237931   4.970   4.126  14.714  3.2189 -0.4430  2.6307
 5506TIP3   OH237932   6.051   2.911  11.353 -0.0840 -0.1785 -0.1273
 5506TIP3    H137933   6.017   2.867  11.275  0.2461  0.6467 -0.7557
 5506TIP3    H237934   6.078   2.840  11.411 -3.0567 -0.9118  0.5317
 5507TIP3   OH237935   3.471   1.026   0.009 -0.0552  0.1055 -0.0224
 5507TIP3    H137936   3.554   1.067  -0.016 -0.5249 -0.4867 -2.8932
 5507TIP3    H237937   3.484   0.933  -0.009 -1.7130  0.1635 -1.9115
 5508TIP3   OH237938   6.745   1.881   0.848  0.1856  0.3857 -0.3079
 5508TIP3    H137939   6.819   1.855   0.903  0.4154  1.7392  0.0662
 5508TIP3    H237940   6.777   1.957   0.800 -1.0814  1.2305  0.1441
 5509TIP3   OH237941   3.765   2.984   3.817  0.1254  0.1491  0.6175
 5509TIP3    H137942   3.734   2.927   3.746  0.8749 -0.2455  0.5882
 5509TIP3    H237943   3.686   3.023   3.854 -0.3957 -0.8876  0.6135
 5510TIP3   OH237944   6.314   5.433  15.706 -0.0364 -0.0658  0.1154
 5510TIP3    H137945   6.278   5.345  15.719 -1.5894  0.6541  0.9534
 5510TIP3    H237946   6.290   5.481  15.785  0.4625  1.2366 -0.4874
 5511TIP3   OH237947   2.471   2.755  14.717  0.5305 -0.0173  0.1055
 5511TIP3    H137948   2.536   2.745  14.786  0.5606  0.0907  0.0928
 5511TIP3    H237949   2.455   2.849  14.711  0.0728 -0.0732  0.3870
 5512TIP3   OH237950   4.301   6.250  13.316  0.1802  0.3440 -0.0171
 5512TIP3    H137951   4.342   6.332  13.291 -0.4761  0.7921  0.3244
 5512TIP3    H237952   4.374   6.192  13.338  0.6536  0.7867 -0.3956
 5513TIP3   OH237953   2.595   5.871  15.630 -0.3574 -0.1881  0.3026
 5513TIP3    H137954   2.562   5.787  15.660 -1.3279 -0.4304 -1.3406
 5513TIP3    H237955   2.619   5.857  15.539 -2.4937  1.7729 -0.6622
 5514TIP3   OH237956   1.781   4.921  10.961  0.0104  0.1393  0.1732
 5514TIP3    H137957   1.769   4.982  10.888 -0.2651  0.3554  0.3991
 5514TIP3    H237958   1.826   4.972  11.028 -0.7295  0.2639  0.5871
 5515TIP3   OH237959   0.580   4.055  10.284  0.0684  0.3907  0.5411
 5515TIP3    H137960   0.515   4.083  10.350 -0.0431 -0.2010  0.6840
 5515TIP3    H237961   0.660   4.041  10.334 -0.2234 -0.8384  0.6886
 5516TIP3   OH237962   6.113   0.381   6.387  0.1568 -0.8174 -0.6680
 5516TIP3    H137963   6.155   0.448   6.440 -0.0835 -0.7511 -0.5592
 5516TIP3    H237964   6.178   0.311   6.380  0.0727 -0.9668 -0.0094
 5517TIP3   OH237965   3.109   0.327   1.783  0.2818 -0.3237 -0.3505
 5517TIP3    H137966   3.072   0.240   1.800  0.9753 -0.5480  0.0545
 5517TIP3    H237967   3.043   0.371   1.729 -1.5589  0.0207  1.9596
 5518TIP3   OH237968   5.769   5.558  10.671  0.7543 -0.3897  0.2149
 5518TIP3    H137969   5.690   5.611  10.657  2.2241  1.4880 -1.6265
 5518TIP3    H237970   5.818   5.566  10.589  3.1950 -0.9148  1.5406
 5519TIP3   OH237971   1.343   1.658  16.452  0.3620 -0.0720  1.0690
 5519TIP3    H137972   1.324   1.717  16.378 -0.9256 -2.8494 -1.0274
 5519TIP3    H237973   1.269   1.669  16.511 -0.2019 -0.0262  0.3678
 5520TIP3   OH237974   6.540   5.895  16.444  0.6024  0.0668 -0.5095
 5520TIP3    H137975   6.446   5.889  16.461  0.2489  1.9024 -1.5907
 5520TIP3    H237976   6.576   5.935  16.524  0.1738  1.0283 -0.7799
 5521TIP3   OH237977   0.923   2.276  13.189  0.3003 -0.2181 -0.1030
 5521TIP3    H137978   0.919   2.358  13.140  0.7236  0.1261  0.4268
 5521TIP3    H237979   0.965   2.299  13.272 -0.0830 -0.8597  0.2809
 5522TIP3   OH237980   0.585   3.576  11.565 -0.2314 -0.1849 -0.0056
 5522TIP3    H137981   0.628   3.649  11.609  1.8619  0.2247 -2.4849
 5522TIP3    H237982   0.515   3.616  11.513  1.2378  0.2457 -1.7655
 5523TIP3   OH237983   5.555   2.361   5.213  0.7607 -0.1001 -0.1208
 5523TIP3    H137984   5.641   2.348   5.172  1.3017  1.1337  0.5493
 5523TIP3    H237985   5.501   2.397   5.143  1.9286  2.8641  0.3164
 5524TIP3   OH237986   6.530   4.802  13.947 -0.1216 -0.3051 -0.0605
 5524TIP3    H137987   6.517   4.720  13.995 -1.5245  0.4834  0.9795
 5524TIP3    H237988   6.543   4.868  14.015  0.2649  0.4550 -0.8507
 5525TIP3   OH237989   4.578   6.218   1.021 -0.1104 -0.2847 -0.6693
 5525TIP3    H137990   4.569   6.255   0.933  0.8365  0.6615 -0.3926
 5525TIP3    H237991   4.567   6.293   1.080 -0.1638 -0.8065 -0.0021
 5526TIP3   OH237992   5.368   3.354   0.880 -0.1585 -0.6525 -0.1996
 5526TIP3    H137993   5.364   3.424   0.946  0.1476  0.6058 -1.4613
 5526TIP3    H237994   5.372   3.273   0.931  0.8933  0.3089  1.3249
 5527TIP3   OH237995   0.880   5.158   4.946  0.6678 -0.0693 -0.7303
 5527TIP3    H137996   0.841   5.110   4.873  1.0803 -1.0358 -0.3210
 5527TIP3    H237997   0.951   5.102   4.977  0.6735  0.4629  0.2449
 5528TIP3   OH237998   0.676   1.930  13.012  1.1569 -0.0949 -0.6041
 5528TIP3    H137999   0.648   1.847  13.050 -2.4172  0.5650 -1.4931
 5528TIP3    H238000   0.706   1.981  13.088  0.9527 -1.2671  0.2982
 5529TIP3   OH238001   1.074   2.623  14.336  0.8809 -1.0539 -0.0445
 5529TIP3    H138002   0.985   2.605  14.305  1.0604 -0.1380 -1.1726
 5529TIP3    H238003   1.087   2.716  14.317  2.2572 -1.2896 -0.3726
 5530TIP3   OH238004   5.945   2.899  15.582 -0.0032 -0.1605 -0.1623
 5530TIP3    H138005   5.877   2.884  15.648  0.9275 -0.9179  0.6592
 5530TIP3    H238006   6.025   2.913  15.633  0.8386 -1.2658 -1.1175
 5531TIP3   OH238007   0.674   3.006  13.064 -0.5537 -0.0930 -0.0333
 5531TIP3    H138008   0.653   2.929  13.116 -2.3228 -0.7712 -1.6593
 5531TIP3    H238009   0.698   2.972  12.978  2.9421  0.9645  0.3644
 5532TIP3   OH238010   2.612   6.324  14.563  0.0893  0.3788 -0.4838
 5532TIP3    H138011   2.554   6.394  14.594 -0.3103 -0.8368  1.6802
 5532TIP3    H238012   2.651   6.288  14.643 -0.6066 -2.6222 -1.3822
 5533TIP3   OH238013   2.574   6.570  14.320 -0.0677  0.1632 -0.1725
 5533TIP3    H138014   2.519   6.639  14.282 -0.4500  0.4912  0.9557
 5533TIP3    H238015   2.623   6.535  14.245 -2.9464 -1.2425 -1.5559
 5534TIP3   OH238016   1.798   5.580   1.283  0.2062 -0.1534  0.0628
 5534TIP3    H138017   1.727   5.544   1.336 -0.0944 -0.0874 -0.2900
 5534TIP3    H238018   1.818   5.511   1.220  0.5784 -0.2401  0.2690
 5535TIP3   OH238019   1.352   4.362  14.617  0.3899  0.2453 -0.6994
 5535TIP3    H138020   1.413   4.392  14.685  0.5792 -0.1421 -0.6976
 5535TIP3    H238021   1.297   4.438  14.599 -0.8336 -0.1375  1.1560
 5536TIP3   OH238022   4.304   6.692  16.961 -0.0041 -0.2606 -0.0423
 5536TIP3    H138023   4.325   6.705  16.868  2.0819  0.1679  0.4476
 5536TIP3    H238024   4.306   6.597  16.972  0.4552 -0.2873 -0.2975
 5537TIP3   OH238025   2.310   4.892   1.286  0.1225 -0.6804 -0.3873
 5537TIP3    H138026   2.371   4.820   1.303  0.9546 -0.2763 -1.5731
 5537TIP3    H238027   2.240   4.878   1.349  1.6735 -0.8663  1.4105
 5538TIP3   OH238028   6.789   1.392  13.152  0.2004 -0.4381  0.5433
 5538TIP3    H138029   6.706   1.434  13.174  1.9715  2.4963  2.1500
 5538TIP3    H238030   6.822   1.441  13.077  0.6165 -1.4453  0.0412
 5539TIP3   OH238031   4.427   5.786   1.851 -1.3726 -0.5239  0.4660
 5539TIP3    H138032   4.521   5.805   1.853 -0.9003 -2.2475 -1.2955
 5539TIP3    H238033   4.386   5.864   1.886  0.6075  1.3814 -1.1386
 5540TIP3   OH238034   2.625   6.257  12.838  0.1561 -0.0134 -0.1713
 5540TIP3    H138035   2.678   6.309  12.778 -0.4890  1.7720  0.7561
 5540TIP3    H238036   2.667   6.170  12.837  0.9774  0.3600 -2.0897
 5541TIP3   OH238037   6.369   0.456  12.409  0.3522  0.2729 -1.0441
 5541TIP3    H138038   6.326   0.405  12.340  1.5139  1.3968 -2.6596
 5541TIP3    H238039   6.335   0.545  12.398  0.8505  0.5535 -0.4081
 5542TIP3   OH238040   6.664   0.328   4.920  0.5907  0.2401  0.3334
 5542TIP3    H138041   6.705   0.340   5.006  2.0251  0.0145 -0.2852
 5542TIP3    H238042   6.660   0.233   4.909  2.6670  0.2242 -0.8212
 5543TIP3   OH238043   3.397   1.040   1.625 -0.1708  0.3809 -0.2061
 5543TIP3    H138044   3.387   0.973   1.693  1.1606 -1.0836 -1.3922
 5543TIP3    H238045   3.491   1.056   1.620 -0.3133  0.9723 -1.2434
 5544TIP3   OH238046   2.339   4.886  12.956  0.4494 -0.3826 -0.3219
 5544TIP3    H138047   2.277   4.955  12.978 -0.9827 -1.4121 -0.9488
 5544TIP3    H238048   2.408   4.930  12.906  0.2801  0.7903  0.4360
 5545TIP3   OH238049   1.003   6.688   6.280  0.5667  0.0125  0.1332
 5545TIP3    H138050   0.952   6.613   6.250 -0.3357  0.6959 -0.1061
 5545TIP3    H238051   1.085   6.682   6.232 -0.3955  0.4486 -1.6949
 5546TIP3   OH238052   3.588   2.458  12.641  0.5838  0.4116 -0.1580
 5546TIP3    H138053   3.616   2.550  12.635  0.6665  0.4133  0.2508
 5546TIP3    H238054   3.503   2.456  12.597  0.0065  0.9315  0.8887
 5547TIP3   OH238055   4.819   6.696  12.234 -0.0806 -0.2999  0.2557
 5547TIP3    H138056   4.785   6.718  12.321 -0.3508 -1.1088  0.3652
 5547TIP3    H238057   4.745   6.708  12.175 -0.7902 -2.6399  0.5795
 5548TIP3   OH238058   0.219   3.145  14.162  0.1547 -0.9289 -0.0784
 5548TIP3    H138059   0.288   3.105  14.108  0.2922 -0.5492 -0.1894
 5548TIP3    H238060   0.200   3.228  14.118  2.0275  0.6096  1.7563
 5549TIP3   OH238061   5.718   1.559   5.607  0.6314  0.0095 -0.4056
 5549TIP3    H138062   5.708   1.616   5.684  0.1232  0.0399 -0.4892
 5549TIP3    H238063   5.726   1.471   5.643  2.2204  0.1972 -0.2348
 5550TIP3   OH238064   2.857   3.071   3.155 -0.2523  0.0838  0.0020
 5550TIP3    H138065   2.810   3.154   3.147  0.8928  0.6649 -1.1582
 5550TIP3    H238066   2.795   3.005   3.124 -0.9913  0.5662  0.4179
 5551TIP3   OH238067   1.955   5.128   3.002 -0.1209 -0.2144  0.1871
 5551TIP3    H138068   1.878   5.103   3.053  0.9316 -1.4449  1.2515
 5551TIP3    H238069   1.957   5.223   3.005 -0.6253 -0.2320  1.6595
 5552TIP3   OH238070   4.202   2.455   5.051 -0.5868  0.6362  0.2600
 5552TIP3    H138071   4.225   2.370   5.014 -0.1789  0.4564  0.9037
 5552TIP3    H238072   4.113   2.471   5.021 -0.1055  0.7244 -1.1868
 5553TIP3   OH238073   4.277   5.689   3.477 -0.4087 -0.2509  0.1673
 5553TIP3    H138074   4.304   5.679   3.568 -0.3804 -1.9478  0.0041
 5553TIP3    H238075   4.182   5.672   3.479 -0.6888  1.1779  0.0735
 5554TIP3   OH238076   1.151   4.043  13.815  0.9462 -0.2816  0.3435
 5554TIP3    H138077   1.138   3.965  13.762 -1.5446  0.1024  0.2561
 5554TIP3    H238078   1.161   4.114  13.751  1.0736 -0.2353  0.4132
 5555TIP3   OH238079   4.818   3.556   3.626 -0.4137  0.3126  0.1765
 5555TIP3    H138080   4.872   3.620   3.672 -0.5511  1.0556 -0.6709
 5555TIP3    H238081   4.801   3.488   3.691  0.6328  0.5982  0.7709
 5556TIP3   OH238082   1.132   2.395  13.784 -0.5711 -0.4001  0.2731
 5556TIP3    H138083   1.114   2.317  13.836 -1.1165 -1.0820 -0.8983
 5556TIP3    H238084   1.077   2.463  13.824  0.1710 -0.4969  1.5147
 5557TIP3   OH238085   3.716   0.099   4.504  0.3316 -0.5906  0.4382
 5557TIP3    H138086   3.765   0.174   4.468  0.9028 -0.8615  0.6318
 5557TIP3    H238087   3.784   0.039   4.535 -0.0910  0.0646  2.9200
 5558TIP3   OH238088   0.501   2.868   0.166 -1.2426  0.2234 -0.9792
 5558TIP3    H138089   0.420   2.877   0.215 -0.7086  0.9061 -0.1846
 5558TIP3    H238090   0.524   2.775   0.174 -2.3635 -0.1528 -1.9298
 5559TIP3   OH238091   2.957   0.291  16.042 -0.5149  0.1965 -0.4580
 5559TIP3    H138092   2.953   0.386  16.052  0.0174  0.1549  0.1617
 5559TIP3    H238093   2.865   0.263  16.045 -0.5921  0.5434  0.8049
 5560TIP3   OH238094   3.197   1.150   2.759 -0.0740  0.2360 -0.4614
 5560TIP3    H138095   3.198   1.057   2.737  0.7127  0.3620 -0.9999
 5560TIP3    H238096   3.151   1.192   2.686  2.8604  0.6991 -2.2005
 5561TIP3   OH238097   1.316   0.127   0.627 -0.7007  0.4741 -0.6929
 5561TIP3    H138098   1.254   0.112   0.555 -0.0105  0.5802 -1.3106
 5561TIP3    H238099   1.268   0.100   0.705 -0.7380 -1.6435 -1.3987
 5562TIP3   OH238100   3.658   5.904  10.618  0.0723 -0.0300  0.1989
 5562TIP3    H138101   3.738   5.886  10.568  0.9009 -0.1795  1.5299
 5562TIP3    H238102   3.676   5.986  10.664  0.5265 -1.3364  2.5304
 5563TIP3   OH238103   5.399   4.999   1.738 -0.6327 -0.0764  0.2904
 5563TIP3    H138104   5.421   5.088   1.767 -3.2574  1.0035 -0.6850
 5563TIP3    H238105   5.443   4.942   1.800  1.3855  1.8768  0.7817
 5564TIP3   OH238106   6.140   6.531   2.663 -0.1048  0.3313  0.0561
 5564TIP3    H138107   6.153   6.597   2.595 -0.5575 -0.6941 -1.0812
 5564TIP3    H238108   6.045   6.529   2.677 -0.1284 -0.2490 -0.1257
 5565TIP3   OH238109   2.817   1.799  13.162  0.4836  0.7785 -0.5889
 5565TIP3    H138110   2.802   1.787  13.068  0.4594 -1.0505 -0.3821
 5565TIP3    H238111   2.798   1.892  13.177 -0.2172  0.9477 -2.2507
 5566TIP3   OH238112   5.170   5.381  11.576  0.4335  0.1153 -0.4717
 5566TIP3    H138113   5.087   5.384  11.528  0.5432  0.2113 -0.6554
 5566TIP3    H238114   5.164   5.301  11.629 -0.1697  0.6160  0.2355
 5567TIP3   OH238115   6.640   3.294  11.164 -0.1902  0.2814  0.1734
 5567TIP3    H138116   6.723   3.282  11.210 -1.2920  1.7364  2.7764
 5567TIP3    H238117   6.658   3.268  11.074  2.7130 -0.6829  0.9309
 5568TIP3   OH238118   2.375   3.774   5.484  0.3216 -0.7609  0.1428
 5568TIP3    H138119   2.461   3.737   5.465  1.4401  1.3873  0.6858
 5568TIP3    H238120   2.373   3.780   5.580  0.4235  0.9685  0.0696
 5569TIP3   OH238121   6.639   2.440   0.477 -0.0089  0.0881 -0.1147
 5569TIP3    H138122   6.693   2.444   0.556 -0.8285  1.0769  0.4362
 5569TIP3    H238123   6.602   2.352   0.477  2.1917 -0.8995 -0.9536
 5570TIP3   OH238124   4.322   2.894   4.618  0.0871 -0.0221  0.6921
 5570TIP3    H138125   4.269   2.949   4.676  0.6144  2.4518 -1.0086
 5570TIP3    H238126   4.402   2.877   4.668 -0.1485  0.6638  1.3192
 5571TIP3   OH238127   4.177   4.701   4.271  0.2241 -0.3086 -0.1205
 5571TIP3    H138128   4.141   4.788   4.286  0.2409  0.0997 -2.1769
 5571TIP3    H238129   4.138   4.647   4.340 -1.5188  0.8625 -0.1355
 5572TIP3   OH238130   0.137   5.871  11.721 -0.3191 -0.3810  0.0421
 5572TIP3    H138131   0.145   5.810  11.648  0.2331 -0.1084 -0.1376
 5572TIP3    H238132   0.227   5.901  11.736 -0.3869 -0.6178  0.9944
 5573TIP3   OH238133   5.243   2.916  14.038  0.7233 -0.3276  0.5297
 5573TIP3    H138134   5.305   2.899  13.967  1.2142 -0.6799  1.0343
 5573TIP3    H238135   5.275   2.862  14.110 -0.1480 -0.4820  0.8083
 5574TIP3   OH238136   3.174   0.399  13.288  0.2224  0.3870 -0.1905
 5574TIP3    H138137   3.117   0.393  13.212  1.9744  1.1563 -1.6626
 5574TIP3    H238138   3.120   0.437  13.356 -1.2700  0.1632 -1.1968
 5575TIP3   OH238139   0.334   4.759  16.648  0.2449 -0.0082  0.2824
 5575TIP3    H138140   0.349   4.853  16.636 -0.7791  0.0829 -0.4755
 5575TIP3    H238141   0.360   4.720  16.564  1.9924 -0.5966  1.0657
 5576TIP3   OH238142   4.929   1.754  11.665 -0.0076 -0.7629 -0.5469
 5576TIP3    H138143   5.014   1.770  11.706  0.4526  1.4466 -2.2073
 5576TIP3    H238144   4.947   1.693  11.594 -0.0398 -1.2360 -0.1528
 5577TIP3   OH238145   0.867   4.417   5.947  0.3111 -0.1727 -0.2431
 5577TIP3    H138146   0.938   4.458   5.995 -1.0426  0.2582  1.5229
 5577TIP3    H238147   0.909   4.372   5.874  2.4577 -0.5347  1.1388
 5578TIP3   OH238148   2.690   4.354   1.273  0.4962  0.5888  0.5808
 5578TIP3    H138149   2.701   4.309   1.189 -1.9287  0.5101  0.2350
 5578TIP3    H238150   2.615   4.312   1.313  0.8180  1.5068  2.2302
 5579TIP3   OH238151   1.077   2.984  13.459  0.1353  0.2767 -0.2105
 5579TIP3    H138152   1.120   3.035  13.528  3.5185  1.6496 -2.9906
 5579TIP3    H238153   1.089   2.893  13.485  3.3388  0.6741  0.1263
 5580TIP3   OH238154   0.242   5.345  16.431  0.2363  0.9693 -0.7049
 5580TIP3    H138155   0.280   5.418  16.479 -1.0388  0.8461  0.5534
 5580TIP3    H238156   0.301   5.271  16.448  0.1497  1.0890  0.1598
 5581TIP3   OH238157   1.960   2.523   3.857 -0.8135 -0.4375 -0.5153
 5581TIP3    H138158   1.987   2.485   3.940 -0.1148 -0.2798 -0.6669
 5581TIP3    H238159   1.916   2.605   3.881  1.1127  0.6055 -0.3806
 5582TIP3   OH238160   1.947   0.410   2.784 -0.5333 -0.1943 -0.1751
 5582TIP3    H138161   1.977   0.358   2.709  2.7568 -1.4822  1.8245
 5582TIP3    H238162   2.007   0.485   2.785  1.1801 -1.4527  2.4281
 5583TIP3   OH238163   3.440   3.832   5.009 -0.5323  0.1988 -0.6232
 5583TIP3    H138164   3.443   3.739   4.986  0.5483 -0.0191  0.3144
 5583TIP3    H238165   3.532   3.860   5.009 -0.2714  0.0709  3.5660
 5584TIP3   OH238166   0.233   3.075  12.944 -0.4404  0.3922  0.0810
 5584TIP3    H138167   0.256   3.123  13.024 -1.3470  0.6485  0.1927
 5584TIP3    H238168   0.238   2.983  12.969  0.9964  0.4146 -0.0487
 5585TIP3   OH238169   2.648   6.182   2.902  0.0995 -0.4346  0.1683
 5585TIP3    H138170   2.728   6.176   2.849  0.6336  1.0281  0.7499
 5585TIP3    H238171   2.668   6.133   2.982 -0.5696 -2.3171 -0.7551
 5586TIP3   OH238172   5.062   4.903  15.435 -0.4218  0.0445 -0.1007
 5586TIP3    H138173   5.071   4.854  15.517 -0.2658  1.1312  0.5511
 5586TIP3    H238174   5.150   4.933  15.415 -0.2562 -1.1163 -1.2787
 5587TIP3   OH238175   0.173   4.607   0.316  0.1230  0.6040 -0.5001
 5587TIP3    H138176   0.235   4.542   0.349  2.0552 -1.3266 -6.7064
 5587TIP3    H238177   0.210   4.691   0.343  1.2266 -0.6105  2.1276
 5588TIP3   OH238178   0.687   6.539  15.950 -0.0568  0.6483 -0.0668
 5588TIP3    H138179   0.778   6.510  15.956 -0.6397 -1.1046  1.0061
 5588TIP3    H238180   0.652   6.496  15.872 -0.3290  0.2264  0.2850
 5589TIP3   OH238181   5.474   3.840   0.500  1.1849  0.8848 -0.3005
 5589TIP3    H138182   5.510   3.921   0.538 -1.0802  1.1008  1.6075
 5589TIP3    H238183   5.416   3.870   0.431 -0.4815  1.0352  1.1058
 5590TIP3   OH238184   0.660   1.560  12.337  0.7405 -0.8528  0.2878
 5590TIP3    H138185   0.691   1.628  12.396 -1.7963  0.2610  0.4836
 5590TIP3    H238186   0.703   1.480  12.366  1.0052  0.0202  2.4310
 5591TIP3   OH238187   2.354   2.363   2.485  0.0900 -0.1680  0.0413
 5591TIP3    H138188   2.403   2.288   2.520  0.8023  0.3520  0.1782
 5591TIP3    H238189   2.384   2.370   2.394 -0.1927 -0.2264 -0.0559
 5592TIP3   OH238190   5.606   4.756   5.045 -0.1806  0.2756 -0.4655
 5592TIP3    H138191   5.686   4.741   5.095 -0.5754  0.8580  0.3754
 5592TIP3    H238192   5.572   4.839   5.078 -0.7864  0.3646 -1.2777
 5593TIP3   OH238193   3.143   6.571  12.312 -0.4125 -0.5718 -0.3906
 5593TIP3    H138194   3.069   6.591  12.255 -0.5748 -1.9400 -0.6973
 5593TIP3    H238195   3.178   6.489  12.278  0.2921 -0.7493  0.6956
 5594TIP3   OH238196   1.448   2.023   3.140  0.9680 -0.4140 -0.5745
 5594TIP3    H138197   1.471   2.114   3.120 -0.2725  0.0935  0.1819
 5594TIP3    H238198   1.492   2.005   3.223 -0.8717  0.4037  0.6357
 5595TIP3   OH238199   1.277   5.123  13.401 -0.0434 -0.3006  0.1524
 5595TIP3    H138200   1.354   5.111  13.458 -0.2449 -0.9891  0.2908
 5595TIP3    H238201   1.300   5.196  13.345  0.1522  0.4265  1.1507
 5596TIP3   OH238202   1.378   0.338  13.728  0.3358  0.2691 -0.4616
 5596TIP3    H138203   1.322   0.261  13.735 -2.2855  1.8060 -2.4417
 5596TIP3    H238204   1.342   0.400  13.790  1.6339  0.3986  0.2040
 5597TIP3   OH238205   6.666   6.209  11.161  0.1696 -0.0612  0.7812
 5597TIP3    H138206   6.643   6.300  11.179 -0.0673  0.4133 -1.6059
 5597TIP3    H238207   6.605   6.182  11.093  0.8677 -1.7141  0.7652
 5598TIP3   OH238208   2.723   4.392   3.003  0.2471  0.3021  0.6997
 5598TIP3    H138209   2.660   4.430   3.063 -0.6829  0.1847 -0.1782
 5598TIP3    H238210   2.712   4.297   3.012 -0.6587  0.2771 -0.3971
 5599TIP3   OH238211   2.722   3.406  16.977 -0.1088  0.1700 -0.1410
 5599TIP3    H138212   2.734   3.487  17.027  3.1574  0.2840 -0.8425
 5599TIP3    H238213   2.772   3.421  16.896 -0.9505 -1.9011 -1.1109
 5600TIP3   OH238214   6.455   5.571  14.157 -0.6979 -0.2612  0.5664
 5600TIP3    H138215   6.459   5.656  14.202 -0.0933  0.1155 -0.1706
 5600TIP3    H238216   6.406   5.589  14.077  1.4222 -0.0198 -0.7626
 5601TIP3   OH238217   0.671   5.315   4.740 -0.6430 -0.1132  0.1930
 5601TIP3    H138218   0.759   5.311   4.777 -0.1631 -0.1747 -0.8915
 5601TIP3    H238219   0.675   5.257   4.663 -1.2222  0.9181 -0.6496
 5602TIP3   OH238220   6.174   3.488  12.940 -0.0540 -0.0395 -0.1303
 5602TIP3    H138221   6.266   3.484  12.916  0.3689  1.9786  0.9057
 5602TIP3    H238222   6.136   3.552  12.879 -0.2635  0.7395  0.7945
 5603TIP3   OH238223   0.955   2.844   2.014 -0.3298  0.9330  0.3030
 5603TIP3    H138224   0.911   2.760   2.028 -1.1545  0.9709 -1.7912
 5603TIP3    H238225   0.907   2.885   1.943  1.0765  2.4778  0.1821
 5604TIP3   OH238226   0.853   6.125   5.869 -0.4129  0.3393  0.5910
 5604TIP3    H138227   0.757   6.132   5.862 -0.3451  2.7571  1.3215
 5604TIP3    H238228   0.881   6.212   5.897  2.1500  0.0715 -0.9042
 5605TIP3   OH238229   5.866   6.199   0.216  0.1955  0.4300  0.2607
 5605TIP3    H138230   5.869   6.143   0.294 -0.7850  1.6404  1.1987
 5605TIP3    H238231   5.843   6.139   0.145 -0.1818 -0.4798  1.1217
 5606TIP3   OH238232   5.054   3.731   5.944 -0.3034 -0.3763 -0.2011
 5606TIP3    H138233   5.069   3.815   5.988 -0.3301  1.2163 -3.0375
 5606TIP3    H238234   4.989   3.687   5.999  0.0361  1.2435  1.6125
 5607TIP3   OH238235   2.463   3.914  14.273 -0.1927 -0.0724  0.2924
 5607TIP3    H138236   2.530   3.903  14.205 -0.7825  1.1197 -0.5244
 5607TIP3    H238237   2.399   3.845  14.256  1.2013 -1.7622  1.5986
 5608TIP3   OH238238   4.794   3.026  16.224  0.7711  0.6520  0.1098
 5608TIP3    H138239   4.775   3.023  16.317 -0.4641 -2.2148 -0.0964
 5608TIP3    H238240   4.888   3.045  16.218  0.5045  2.8290  1.7736
 5609TIP3   OH238241   0.267   2.371  14.568 -0.3005  0.1051  0.1708
 5609TIP3    H138242   0.357   2.353  14.540 -0.1466  1.9910 -0.7156
 5609TIP3    H238243   0.213   2.313  14.515  0.3243 -0.2403 -0.0984
 5610TIP3   OH238244   4.852   6.761   4.684  0.0669  0.2970 -0.6638
 5610TIP3    H138245   4.869   6.701   4.756  2.4807  1.6205 -0.0372
 5610TIP3    H238246   4.778   6.722   4.637  1.1831 -2.8606 -0.0098
 5611TIP3   OH238247   2.631   2.597  16.627 -0.0441 -0.2013 -0.4223
 5611TIP3    H138248   2.677   2.643  16.556 -3.7832  0.4797 -2.7395
 5611TIP3    H238249   2.617   2.509  16.593  0.3072 -0.6383  0.5719
 5612TIP3   OH238250   4.309   1.161   5.193 -0.4305  0.2995  0.3996
 5612TIP3    H138251   4.381   1.204   5.145  0.4233  0.3905  1.7001
 5612TIP3    H238252   4.299   1.076   5.150  1.0800 -0.0827  0.7249
 5613TIP3   OH238253   2.589   2.404   3.196 -0.4614  0.0335 -0.1409
 5613TIP3    H138254   2.672   2.444   3.172 -1.3866  2.5157  0.4526
 5613TIP3    H238255   2.583   2.414   3.291  0.1130 -3.4658  0.3918
 5614TIP3   OH238256   5.590   0.093  11.130 -0.0243 -0.1547 -0.2176
 5614TIP3    H138257   5.607   0.101  11.036 -1.4512  0.6407 -0.4565
 5614TIP3    H238258   5.587   0.184  11.161  0.6106 -0.4179  0.6380
 5615TIP3   OH238259   0.928   0.274  14.071  0.8554 -0.2826 -0.1984
 5615TIP3    H138260   0.928   0.254  14.164  2.2663  0.0932 -0.0846
 5615TIP3    H238261   0.853   0.227  14.035 -0.4472  0.5875  1.3215
 5616TIP3   OH238262   3.863   1.780   2.939  0.4882  0.3687  0.2858
 5616TIP3    H138263   3.820   1.859   2.905 -2.2335 -0.5343  1.3952
 5616TIP3    H238264   3.907   1.810   3.018 -2.5634  0.4874  2.1000
 5617TIP3   OH238265   4.305   2.257   6.460 -0.4212 -0.1350  0.3176
 5617TIP3    H138266   4.301   2.206   6.541 -0.6663  1.5072  1.3833
 5617TIP3    H238267   4.274   2.344   6.485  0.4847  0.7024 -1.3238
 5618TIP3   OH238268   0.504   5.900   3.271 -0.0619 -0.2556 -0.2241
 5618TIP3    H138269   0.510   5.995   3.286 -1.2540  0.1005 -1.7476
 5618TIP3    H238270   0.592   5.875   3.244  0.2058  0.4516 -0.0556
 5619TIP3   OH238271   4.590   5.924  13.310  0.1749 -0.0665 -0.1658
 5619TIP3    H138272   4.528   5.890  13.374 -1.3990  0.6737 -1.2085
 5619TIP3    H238273   4.567   5.879  13.229  2.5589 -1.4682 -0.1410
 5620TIP3   OH238274   0.382   0.955  14.301  0.0927  0.4919  0.0445
 5620TIP3    H138275   0.397   1.032  14.357 -0.2859  1.7666 -1.5313
 5620TIP3    H238276   0.382   0.990  14.212 -2.0482 -1.0349 -0.6273
 5621TIP3   OH238277   2.452   1.081   5.796 -0.6752 -0.2170 -0.1738
 5621TIP3    H138278   2.511   1.094   5.869 -2.3241  1.2192  1.0022
 5621TIP3    H238279   2.370   1.052   5.836 -1.3323 -0.3482 -1.5448
 5622TIP3   OH238280   5.017   1.839  13.606 -0.5394  0.6488  0.1105
 5622TIP3    H138281   4.955   1.909  13.587 -0.2694 -0.1040 -4.6674
 5622TIP3    H238282   4.963   1.760  13.614 -0.5302  0.7563  1.4238
 5623TIP3   OH238283   3.958   6.728  14.007  0.5179  0.0057  0.0637
 5623TIP3    H138284   4.019   6.786  14.053  0.6797  0.1551 -0.3345
 5623TIP3    H238285   3.872   6.754  14.038  0.5430  0.8459 -0.5205
 5624TIP3   OH238286   4.736   2.011   2.587  0.5428  0.5304 -0.1131
 5624TIP3    H138287   4.786   2.084   2.550  3.1497  0.8041  3.4082
 5624TIP3    H238288   4.795   1.936   2.579 -0.5189 -0.3125 -0.1727
 5625TIP3   OH238289   1.693   1.786  16.879  0.5236  0.6060 -0.1596
 5625TIP3    H138290   1.739   1.723  16.822 -0.4477 -0.9234  0.6891
 5625TIP3    H238291   1.618   1.815  16.827 -0.0063 -0.3029  0.0752
 5626TIP3   OH238292   0.445   0.138  13.410 -0.4665  0.1638 -0.0705
 5626TIP3    H138293   0.371   0.088  13.376  0.3542  0.2803 -2.1507
 5626TIP3    H238294   0.441   0.221  13.363 -0.4059  1.1412  1.5948
 5627TIP3   OH238295   3.527   4.823  12.137  0.0192  0.1666 -0.0535
 5627TIP3    H138296   3.537   4.916  12.117  0.9354 -0.1320 -1.1149
 5627TIP3    H238297   3.604   4.782  12.098  0.4510 -0.8613  1.7601
 5628TIP3   OH238298   2.454   4.622   0.928  0.2253 -0.1553  0.1121
 5628TIP3    H138299   2.449   4.541   0.876 -0.5541  0.5212 -0.9059
 5628TIP3    H238300   2.364   4.636   0.958  0.2422  0.6478 -0.2007
 5629TIP3   OH238301   3.670   0.215  15.851 -0.5585  0.3141  0.3936
 5629TIP3    H138302   3.706   0.132  15.820 -2.6796 -0.9162  1.0357
 5629TIP3    H238303   3.637   0.258  15.772  0.6984  0.6467  0.0363
 5630TIP3   OH238304   6.013   2.689   2.100 -0.2042  0.0924  0.1244
 5630TIP3    H138305   6.035   2.668   2.009  2.7846 -0.3484  0.8513
 5630TIP3    H238306   5.924   2.655   2.111  0.4285 -2.5192 -1.8279
 5631TIP3   OH238307   5.628   1.367   3.093 -0.0116  0.6437  0.1539
 5631TIP3    H138308   5.666   1.404   3.013 -1.3443  0.8033 -0.4296
 5631TIP3    H238309   5.545   1.414   3.104 -0.2105  0.0748  1.2024
 5632TIP3   OH238310   2.434   5.136  12.764 -0.3142 -0.0748  0.5179
 5632TIP3    H138311   2.380   5.199  12.811 -0.4908 -0.6908  1.1567
 5632TIP3    H238312   2.465   5.184  12.687  0.0066  0.9549  1.2692
 5633TIP3   OH238313   5.118   1.645   3.997 -0.0412 -0.2340 -0.3044
 5633TIP3    H138314   5.053   1.625   4.065 -1.1262  2.0202 -0.5891
 5633TIP3    H238315   5.071   1.696   3.932  1.6476  0.0790 -1.3544
 5634TIP3   OH238316   1.091   6.571  12.542  0.0214 -0.0961  0.2807
 5634TIP3    H138317   1.041   6.632  12.488  0.9780  1.3718  0.9813
 5634TIP3    H238318   1.051   6.577  12.629  1.5819  1.4250  0.9598
 5635TIP3   OH238319   4.182   6.293   3.950  0.5608 -0.5353 -0.0822
 5635TIP3    H138320   4.104   6.251   3.914  0.3835 -0.8178  0.6145
 5635TIP3    H238321   4.221   6.338   3.875 -0.6190  0.1597 -0.3179
 5636TIP3   OH238322   6.045   5.600  10.807  0.0686 -0.2825 -0.0794
 5636TIP3    H138323   5.990   5.569  10.735 -0.4089 -1.7058  0.8567
 5636TIP3    H238324   6.085   5.680  10.773 -1.1030 -0.2305 -1.4700
 5637TIP3   OH238325   2.476   5.914  12.190  0.2152  0.7271  0.1242
 5637TIP3    H138326   2.496   5.841  12.131  0.3723 -0.7988  1.9958
 5637TIP3    H238327   2.483   5.878  12.278 -2.3640  2.2983  1.1079
 5638TIP3   OH238328   6.562   4.453   3.899  0.1469 -0.4294 -0.1523
 5638TIP3    H138329   6.601   4.366   3.891  0.8083 -0.1439 -0.1224
 5638TIP3    H238330   6.553   4.466   3.994  2.3821  0.5218 -0.0182
 5639TIP3   OH238331   6.675   5.543  12.046  0.5567  0.5723 -0.3870
 5639TIP3    H138332   6.726   5.551  12.126 -0.3890 -1.0871  0.4183
 5639TIP3    H238333   6.674   5.450  12.026 -0.7048  0.7496 -1.3462
 5640TIP3   OH238334   1.219   2.877  11.377  0.1106 -0.5639 -0.2852
 5640TIP3    H138335   1.156   2.806  11.363  0.3644 -0.6055 -1.2839
 5640TIP3    H238336   1.279   2.844  11.444 -1.1599 -0.3675  1.0015
 5641TIP3   OH238337   3.547   1.117  14.229  0.7329  0.2506  0.6043
 5641TIP3    H138338   3.504   1.043  14.186  2.7614 -0.6366 -0.0229
 5641TIP3    H238339   3.637   1.087  14.244  1.8397  2.8283 -0.2986
 5642TIP3   OH238340   3.352   4.515  13.523 -0.2783 -0.2443  0.6740
 5642TIP3    H138341   3.298   4.570  13.467  0.6539  0.1887  0.1810
 5642TIP3    H238342   3.323   4.426  13.504 -0.4908 -0.0497  0.0626
 5643TIP3   OH238343   2.941   2.319   0.892 -0.6073  0.2939  0.0729
 5643TIP3    H138344   2.884   2.271   0.831  0.2202  0.3639 -0.7670
 5643TIP3    H238345   3.000   2.253   0.926 -1.3597  0.1644  1.1788
 5644TIP3   OH238346   5.217   5.976   2.397  0.3324  0.3540 -0.0330
 5644TIP3    H138347   5.208   6.069   2.376 -0.2090  0.2118 -0.4657
 5644TIP3    H238348   5.198   5.932   2.314  1.2894 -0.1226 -0.0118
 5645TIP3   OH238349   2.071   0.589   5.736 -0.6643  0.4156 -0.2598
 5645TIP3    H138350   2.106   0.536   5.808 -2.1356  2.5851  2.2332
 5645TIP3    H238351   2.130   0.665   5.732  0.1700 -0.2711 -2.3420
 5646TIP3   OH238352   5.823   1.478   3.610  0.4215 -0.2971 -0.5505
 5646TIP3    H138353   5.850   1.566   3.583 -0.9451  0.1114 -0.6691
 5646TIP3    H238354   5.778   1.490   3.693  1.0020 -1.0139 -0.1179
 5647TIP3   OH238355   0.550   2.152  13.780  0.3311 -0.2539  0.0556
 5647TIP3    H138356   0.503   2.147  13.697 -1.4743 -0.4268  1.0539
 5647TIP3    H238357   0.552   2.246  13.801 -1.2004 -0.3746  0.8745
 5648TIP3   OH238358   5.909   5.384   6.066  0.7931 -0.0696 -0.1840
 5648TIP3    H138359   5.878   5.385   6.156 -1.0591 -1.9802 -0.7273
 5648TIP3    H238360   5.847   5.439   6.019  0.3765 -0.9260 -0.6584
 5649TIP3   OH238361   3.957   0.827   5.710 -0.3982  0.4793  0.2819
 5649TIP3    H138362   3.892   0.854   5.775 -0.7793 -1.4454  0.7420
 5649TIP3    H238363   4.029   0.890   5.722 -0.8772  0.7760  1.8916
 5650TIP3   OH238364   4.160   3.081   5.721 -0.2015  0.0681  0.3903
 5650TIP3    H138365   4.163   3.153   5.784 -1.2280  0.9256 -0.5011
 5650TIP3    H238366   4.243   3.086   5.674  0.5101 -0.4861  1.5342
 5651TIP3   OH238367   1.135   0.309  11.378  0.7704  0.2753 -0.0185
 5651TIP3    H138368   1.231   0.307  11.369  0.7230 -0.6074 -0.4152
 5651TIP3    H238369   1.108   0.386  11.329  1.1952 -0.0854 -0.8435
 5652TIP3   OH238370   0.177   2.995   4.510 -0.6297  0.0048 -0.4153
 5652TIP3    H138371   0.084   2.975   4.504 -0.5107 -0.4500 -0.8190
 5652TIP3    H238372   0.212   2.932   4.573 -0.6806  0.4875  0.0982
 5653TIP3   OH238373   0.599   5.029  12.184  0.4027 -0.6122 -0.5470
 5653TIP3    H138374   0.633   5.090  12.249 -1.2651 -0.5347  0.3188
 5653TIP3    H238375   0.584   4.948  12.233 -0.3587 -0.7230 -0.9408
 5654TIP3   OH238376   2.314   4.033   2.501 -0.1448  0.3415  0.0806
 5654TIP3    H138377   2.386   3.976   2.525  0.6944  0.7002 -1.4601
 5654TIP3    H238378   2.247   4.016   2.567  1.3192 -0.0127  1.5423
 5655TIP3   OH238379   3.056   0.438   3.983  0.6173  0.0930 -0.0533
 5655TIP3    H138380   3.029   0.515   3.932 -0.3232 -0.2477 -0.0811
 5655TIP3    H238381   3.016   0.364   3.938  2.4843 -0.5739 -0.7255
 5656TIP3   OH238382   5.187   1.931  15.889  0.1583  0.5912 -0.6155
 5656TIP3    H138383   5.168   1.927  15.796 -0.3301  0.2284 -0.5042
 5656TIP3    H238384   5.135   2.004  15.922  2.1368  2.2970 -1.0262
 5657TIP3   OH238385   3.421   6.473  12.611 -0.3402 -0.0145  0.0892
 5657TIP3    H138386   3.367   6.411  12.562  0.4115 -0.6742  0.0889
 5657TIP3    H238387   3.399   6.455  12.703 -0.7103  0.2708  0.0611
 5658TIP3   OH238388   1.641   0.418   3.391 -0.0689 -0.2574 -0.4297
 5658TIP3    H138389   1.554   0.443   3.360  0.5058  1.0735 -1.0437
 5658TIP3    H238390   1.685   0.382   3.314 -0.7844 -3.1158  0.3707
 5659TIP3   OH238391   4.783   4.098   4.453 -0.1953 -0.3850 -0.2063
 5659TIP3    H138392   4.814   4.175   4.405  1.2047 -0.8905 -0.1722
 5659TIP3    H238393   4.717   4.131   4.513  1.2822  1.0260  0.7235
 5660TIP3   OH238394   2.890   6.600   1.315  0.8351  0.1813  0.3350
 5660TIP3    H138395   2.921   6.622   1.227  3.7535 -0.1441  1.1608
 5660TIP3    H238396   2.913   6.677   1.368 -1.5355  0.6756  0.7571
 5661TIP3   OH238397   2.167   3.986  13.439  0.3163 -0.3988  0.7944
 5661TIP3    H138398   2.202   3.936  13.365  0.0847 -0.1712  0.5286
 5661TIP3    H238399   2.238   4.045  13.464  0.3214 -0.3308  0.6184
 5662TIP3   OH238400   4.305   4.808  13.907  0.4242 -0.0743  0.6114
 5662TIP3    H138401   4.210   4.807  13.891  0.4983  0.0074  0.1682
 5662TIP3    H238402   4.342   4.848  13.829  0.7716  0.5201  1.0666
 5663TIP3   OH238403   2.815   6.563   5.996  0.0914 -0.1161  0.5469
 5663TIP3    H138404   2.745   6.625   6.017  0.3219  0.9676 -1.6590
 5663TIP3    H238405   2.868   6.560   6.076 -1.8637 -0.1912  1.9150
 5664TIP3   OH238406   5.671   5.688   3.095 -0.0954 -0.1596  0.2335
 5664TIP3    H138407   5.611   5.662   3.164 -0.9785 -0.8703 -0.7620
 5664TIP3    H238408   5.679   5.611   3.039 -0.1251  0.6496 -0.9416
 5665TIP3   OH238409   2.254   1.943   2.366  0.2802 -0.2063  0.0625
 5665TIP3    H138410   2.274   2.013   2.304 -0.3655  1.8146  2.0050
 5665TIP3    H238411   2.161   1.924   2.352  0.5452 -0.9873 -0.7226
 5666TIP3   OH238412   6.594   5.386   6.263 -0.1213 -0.0183 -0.5993
 5666TIP3    H138413   6.518   5.399   6.321 -1.3044 -0.6492 -1.9532
 5666TIP3    H238414   6.609   5.472   6.224 -0.8961 -0.1526 -1.2102
 5667TIP3   OH238415   4.663   3.457   4.711  0.2948 -0.4107  0.6185
 5667TIP3    H138416   4.675   3.432   4.803  0.9228  1.3894  1.0686
 5667TIP3    H238417   4.569   3.475   4.703 -0.2730 -3.0834  0.1688
 5668TIP3   OH238418   1.664   2.256   1.631  0.4972  0.4704  0.3295
 5668TIP3    H138419   1.739   2.212   1.670  0.0138 -1.1670 -0.4752
 5668TIP3    H238420   1.611   2.184   1.595 -0.8275  1.6697 -0.1822
 5669TIP3   OH238421   3.282   3.077   4.513  0.3269 -0.6849  0.1201
 5669TIP3    H138422   3.201   3.032   4.487 -0.8295  0.6292  1.3038
 5669TIP3    H238423   3.316   3.024   4.585  0.9345 -1.6453 -0.8525
 5670TIP3   OH238424   2.678   6.527   4.067  0.5799 -0.4351  0.3478
 5670TIP3    H138425   2.632   6.566   3.993 -0.1499 -1.0316  0.4767
 5670TIP3    H238426   2.712   6.444   4.033  3.1467  0.7576 -0.2753
 5671TIP3   OH238427   4.630   5.429  17.173  0.1266  0.1921  0.0332
 5671TIP3    H138428   4.688   5.492  17.216  0.3673  0.2621 -0.3850
 5671TIP3    H238429   4.625   5.459  17.082  2.9660 -2.2275 -1.0944
 5672TIP3   OH238430   5.728   0.791  12.856 -0.7490 -0.2153  0.0013
 5672TIP3    H138431   5.790   0.740  12.804 -2.3460 -1.6008 -0.6262
 5672TIP3    H238432   5.664   0.823  12.792 -1.3784  0.1398  0.7927
 5673TIP3   OH238433   2.623   0.022  10.454 -0.0177  0.5875 -0.4683
 5673TIP3    H138434   2.632  -0.068  10.425 -1.1688  0.7149 -1.2691
 5673TIP3    H238435   2.676   0.027  10.534  0.1483 -0.7545 -0.4821
 5674TIP3   OH238436   4.902   1.473  14.847 -0.0498 -0.2469 -0.2251
 5674TIP3    H138437   4.997   1.469  14.842 -0.0759 -2.2035  0.2641
 5674TIP3    H238438   4.878   1.410  14.915 -1.8391 -1.5635 -1.9719
 5675TIP3   OH238439   5.151   2.951   3.667 -0.5203 -0.0415  0.5328
 5675TIP3    H138440   5.177   2.969   3.577  0.1455 -0.9106  0.5397
 5675TIP3    H238441   5.233   2.928   3.711 -0.5866  1.8886  1.7532
 5676TIP3   OH238442   6.642   5.601  13.719  0.4200  0.4717  0.2848
 5676TIP3    H138443   6.608   5.670  13.776  0.9719 -0.7749  2.2423
 5676TIP3    H238444   6.638   5.638  13.631 -3.0361  1.5209  0.7193
 5677TIP3   OH238445   1.085   5.009  13.875  0.4489  0.6824  0.2165
 5677TIP3    H138446   1.122   5.096  13.858  1.4840  0.3344  0.5788
 5677TIP3    H238447   1.115   4.956  13.801  0.1874  0.5325  0.2193
 5678TIP3   OH238448   0.091   3.435  13.492  0.4432 -0.4108 -0.2032
 5678TIP3    H138449   0.019   3.420  13.553  1.0076 -2.2374  0.0674
 5678TIP3    H238450   0.064   3.392  13.411  0.0404  1.3304 -1.0486
 5679TIP3   OH238451   4.324   1.341   5.840  0.5320 -0.3310  0.2294
 5679TIP3    H138452   4.357   1.251   5.842 -1.1430 -1.0225 -0.8926
 5679TIP3    H238453   4.344   1.376   5.927 -0.3563 -2.4011  1.3413
 5680TIP3   OH238454   5.877   5.887  13.960  0.2781  0.3170 -0.0926
 5680TIP3    H138455   5.954   5.831  13.951 -0.4275 -0.4991 -1.3396
 5680TIP3    H238456   5.864   5.896  14.055  1.6572  0.1449  0.1310
 5681TIP3   OH238457   4.060   1.006   6.643 -0.0201 -0.3726  0.6233
 5681TIP3    H138458   4.064   1.067   6.717  0.7118 -0.0480  0.3245
 5681TIP3    H238459   4.045   1.062   6.566 -2.0994 -0.8145  0.6540
 5682TIP3   OH238460   3.765   3.127   4.937  0.0255  0.0230 -0.0682
 5682TIP3    H138461   3.734   3.036   4.931 -0.2783  0.1980 -1.4110
 5682TIP3    H238462   3.842   3.130   4.880  1.0838  0.2088  1.3121
 5683TIP3   OH238463   3.950   5.913  17.008 -0.0027 -0.6222 -0.0673
 5683TIP3    H138464   3.953   5.845  17.075 -0.4094  0.7198  1.3857
 5683TIP3    H238465   4.038   5.951  17.007 -0.3069  0.1371  0.5904
 5684TIP3   OH238466   4.820   3.391   5.467  0.1270  0.5959  0.2643
 5684TIP3    H138467   4.854   3.373   5.554 -1.9452 -0.5212  0.9141
 5684TIP3    H238468   4.860   3.475   5.442  0.6535  1.0214  2.3436
 5685TIP3   OH238469   2.401   3.070  13.053  0.5043  0.3332 -0.2189
 5685TIP3    H138470   2.422   3.027  13.136 -0.1299  0.0074 -0.2149
 5685TIP3    H238471   2.468   3.136  13.042  0.8099  0.1284  0.3744
 5686TIP3   OH238472   0.536   5.925   0.687 -0.1627  0.3471  0.0058
 5686TIP3    H138473   0.443   5.933   0.667  0.0112 -1.2682 -1.7137
 5686TIP3    H238474   0.573   6.011   0.668 -0.6522 -0.0802 -3.4408
 5687TIP3   OH238475   4.897   3.227   1.124  0.3373 -0.3987  0.4931
 5687TIP3    H138476   4.832   3.169   1.165  1.9645 -1.0546  2.2441
 5687TIP3    H238477   4.947   3.169   1.067 -0.0553 -0.0407 -0.2403
 5688TIP3   OH238478   0.442   3.577  15.025  0.4187 -0.4318  0.7139
 5688TIP3    H138479   0.451   3.551  14.933 -0.8276  0.2337  0.3765
 5688TIP3    H238480   0.505   3.523  15.072  1.1456 -0.7192 -0.5488
 5689TIP3   OH238481   3.816   4.559   3.180 -0.1978  0.2776  0.0679
 5689TIP3    H138482   3.844   4.647   3.205  1.0491  0.3755 -1.5015
 5689TIP3    H238483   3.809   4.562   3.085 -0.6456 -1.1771  0.0339
 5690TIP3   OH238484   5.496   5.628  13.563  0.0517  0.6372  0.0017
 5690TIP3    H138485   5.459   5.667  13.483 -1.0681 -0.3890 -0.0128
 5690TIP3    H238486   5.583   5.600  13.537 -0.3249  0.2435 -0.9061
 5691TIP3   OH238487   4.474   6.692   5.634  0.0200  0.3019  0.3099
 5691TIP3    H138488   4.390   6.668   5.672  0.2958 -0.9902  0.1603
 5691TIP3    H238489   4.472   6.654   5.546 -0.2871  2.5334 -0.6945
 5692TIP3   OH238490   2.912   0.305  10.666 -0.2426 -0.1928 -0.3964
 5692TIP3    H138491   2.838   0.321  10.608  1.4130  1.1479 -2.2898
 5692TIP3    H238492   2.885   0.231  10.720 -2.0456 -1.3105 -2.6516
 5693TIP3   OH238493   2.896   6.465   2.805 -0.2636  0.0846  0.0859
 5693TIP3    H138494   2.840   6.426   2.738  0.9957  2.1088 -2.3721
 5693TIP3    H238495   2.928   6.546   2.764  3.1659 -0.1711  1.9045
 5694TIP3   OH238496   6.337   1.326   2.353 -0.5464 -0.2058 -0.4264
 5694TIP3    H138497   6.382   1.329   2.269  2.0186 -1.8044  0.7582
 5694TIP3    H238498   6.356   1.411   2.393 -0.5762  0.0140 -0.8721
 5695TIP3   OH238499   0.094   4.998  13.606  0.4423  0.0629 -0.1994
 5695TIP3    H138500   0.077   5.065  13.672 -3.2459 -0.4837 -0.4167
 5695TIP3    H238501   0.065   4.916  13.647 -2.9512 -0.1573 -2.6694
 5696TIP3   OH238502   0.132   3.108  16.483  0.0484 -0.3485 -0.4351
 5696TIP3    H138503   0.202   3.144  16.429  0.0414 -0.1672 -0.3223
 5696TIP3    H238504   0.095   3.183  16.529  0.5013 -0.5987  0.3455
 5697TIP3   OH238505   5.513   3.253   4.989 -0.5864 -0.1711 -0.0346
 5697TIP3    H138506   5.521   3.202   4.908  0.5523 -1.7772  1.0284
 5697TIP3    H238507   5.602   3.261   5.021 -1.1614 -0.9343  1.8566
 5698TIP3   OH238508   5.352   0.575  16.930  0.4380 -0.2691 -0.1940
 5698TIP3    H138509   5.374   0.516  16.858  0.7827  0.2217 -0.5061
 5698TIP3    H238510   5.276   0.535  16.972  0.7220 -0.9777 -0.3357
 5699TIP3   OH238511   4.129   6.018  12.325 -0.1749 -0.3739 -0.0518
 5699TIP3    H138512   4.121   5.923  12.327  1.4097 -0.5708 -0.9218
 5699TIP3    H238513   4.065   6.047  12.261 -0.1403 -0.9377 -0.3450
 5700TIP3   OH238514   2.351   2.167   5.208 -0.1142 -0.5347  0.9135
 5700TIP3    H138515   2.408   2.242   5.228 -0.0891 -0.2800 -0.0290
 5700TIP3    H238516   2.409   2.104   5.166 -0.3417 -0.6455  0.7661
 5701TIP3   OH238517   5.480   4.521  14.583  0.2076  0.1377  0.5219
 5701TIP3    H138518   5.537   4.459  14.537 -0.0357 -1.0823  1.7866
 5701TIP3    H238519   5.497   4.504  14.676  0.2634  2.1154  0.9271
 5702TIP3   OH238520   0.340   3.643  12.895 -0.2065 -0.2425  0.0296
 5702TIP3    H138521   0.337   3.720  12.952 -2.4294 -0.6650  0.5531
 5702TIP3    H238522   0.429   3.643  12.860 -0.3076  2.9952 -0.5588
 5703TIP3   OH238523   0.091   4.449  13.334 -0.9536 -0.0669 -0.3213
 5703TIP3    H138524   0.180   4.483  13.332 -1.5500  1.5710 -1.9627
 5703TIP3    H238525   0.080   4.413  13.422  0.5609  1.7995  0.6875
 5704TIP3   OH238526   6.440   1.946   2.477  0.0532  0.3725  0.1547
 5704TIP3    H138527   6.528   1.920   2.504 -0.8191 -2.8266  0.2418
 5704TIP3    H238528   6.383   1.915   2.547 -1.4016 -0.1617 -1.1989
 5705TIP3   OH238529   0.326   2.881   1.217  0.4907  0.4432  0.8155
 5705TIP3    H138530   0.414   2.845   1.209  0.8464  1.3699  0.3733
 5705TIP3    H238531   0.277   2.814   1.265  1.7597  0.4420  2.2010
 5706TIP3   OH238532   0.815   5.062  12.562  0.1343  0.1190  0.0624
 5706TIP3    H138533   0.836   5.021  12.646 -0.5260 -1.4477 -0.4923
 5706TIP3    H238534   0.860   5.008  12.497 -1.5027 -0.3356 -0.7676
 5707TIP3   OH238535   4.292   6.115   4.322 -1.0043 -0.1663  0.0765
 5707TIP3    H138536   4.201   6.084   4.315 -1.7769  1.7893  0.6646
 5707TIP3    H238537   4.344   6.035   4.326 -2.7515 -1.3632  0.3992
 5708TIP3   OH238538   5.644   3.558   5.261 -0.5388 -0.3744 -0.3117
 5708TIP3    H138539   5.634   3.473   5.302 -1.1932  0.2628  0.9117
 5708TIP3    H238540   5.720   3.597   5.303 -1.0848  0.2006  0.1713
 5709TIP3   OH238541   1.785   2.336   3.724  0.1727  0.2878  0.2504
 5709TIP3    H138542   1.798   2.244   3.745  1.2588 -0.1587 -2.0246
 5709TIP3    H238543   1.841   2.384   3.786  1.4673 -0.7581 -0.0628
 5710TIP3   OH238544   4.611   4.009  14.700  0.0263  0.6760 -0.1608
 5710TIP3    H138545   4.694   3.966  14.679 -0.3312 -0.7534  1.1659
 5710TIP3    H238546   4.636   4.089  14.747  0.6682 -0.2195  1.0708
 5711TIP3   OH238547   2.217   0.385  16.565 -0.1763  0.6991  0.0933
 5711TIP3    H138548   2.130   0.420  16.583 -0.4553  0.2049 -0.2533
 5711TIP3    H238549   2.272   0.462  16.548 -0.4785  1.0253  0.5815
 5712TIP3   OH238550   6.077   6.622  14.217  0.2483  0.0221  0.1592
 5712TIP3    H138551   6.014   6.690  14.196  1.9445  1.6978  0.2465
 5712TIP3    H238552   6.062   6.554  14.151 -2.8649 -0.5764  1.3046
 5713TIP3   OH238553   5.773   4.433   4.298 -0.0836  0.6402  0.0138
 5713TIP3    H138554   5.736   4.350   4.330 -0.6829  0.8299 -0.1707
 5713TIP3    H238555   5.777   4.489   4.376  1.3104  0.1048  0.3601
 5714TIP3   OH238556   3.931   2.621   3.890 -0.5175 -0.0574  0.7642
 5714TIP3    H138557   3.977   2.660   3.816 -0.8817 -1.4141 -0.2026
 5714TIP3    H238558   3.986   2.641   3.966  1.2493 -0.9513 -0.2401
 5715TIP3   OH238559   3.403   5.879  12.405  0.2014  0.5331  0.4191
 5715TIP3    H138560   3.351   5.802  12.428  1.8914  0.0034  2.8061
 5715TIP3    H238561   3.445   5.856  12.323 -0.7414 -0.3214  0.1568
 5716TIP3   OH238562   3.730   6.057  14.615 -0.5786 -0.4186 -0.0712
 5716TIP3    H138563   3.649   6.009  14.634  0.0260 -1.0113  1.0622
 5716TIP3    H238564   3.761   6.087  14.701 -0.1226  0.6923 -0.5967
 5717TIP3   OH238565   3.218   2.541  12.798  0.5316 -0.6409  0.0839
 5717TIP3    H138566   3.247   2.586  12.878  1.2761 -1.1076  0.0810
 5717TIP3    H238567   3.272   2.579  12.729  0.9170 -1.2802  0.0300
 5718TIP3   OH238568   6.195   2.493   2.227  0.2211 -0.0441 -0.2485
 5718TIP3    H138569   6.120   2.463   2.278  0.1105 -1.4486 -1.1870
 5718TIP3    H238570   6.157   2.548   2.158  0.0371 -0.7217 -0.6992
 5719TIP3   OH238571   0.598   1.825   3.904  0.3142 -0.0564  0.1307
 5719TIP3    H138572   0.670   1.783   3.952 -0.0202  0.2733  0.9518
 5719TIP3    H238573   0.633   1.910   3.877  0.0114  0.4301  1.2010
 5720TIP3   OH238574   1.077   6.246   2.751 -0.2840  0.2620  0.0046
 5720TIP3    H138575   0.982   6.238   2.761 -0.4334 -0.0266 -1.5145
 5720TIP3    H238576   1.109   6.251   2.841 -1.5271 -1.9864  0.6648
 5721TIP3   OH238577   1.807   2.004   0.558 -0.0585 -0.7482  0.1293
 5721TIP3    H138578   1.774   1.924   0.599 -3.0527 -0.0060 -0.6115
 5721TIP3    H238579   1.819   2.065   0.631  0.1139 -1.1569  0.4504
 5722TIP3   OH238580   4.482   6.646   6.533 -0.7968 -0.1384 -0.1517
 5722TIP3    H138581   4.503   6.553   6.519  1.7985  0.4763 -0.9867
 5722TIP3    H238582   4.392   6.646   6.565 -1.2172 -2.8723 -1.0652
 5723TIP3   OH238583   2.020   5.117   1.925  0.0117  0.7411  0.3070
 5723TIP3    H138584   1.961   5.165   1.867 -0.4364  0.4215  0.4934
 5723TIP3    H238585   1.980   5.124   2.011 -0.3436 -0.4128  0.2496
 5724TIP3   OH238586   3.086   2.763   2.522 -0.0736 -0.3693 -0.7385
 5724TIP3    H138587   2.993   2.746   2.513 -0.3555  0.0616  0.9335
 5724TIP3    H238588   3.125   2.676   2.537  0.0953 -0.7828 -3.1785
 5725TIP3   OH238589   4.939   5.655  13.494 -0.6636 -0.1245  0.3810
 5725TIP3    H138590   4.875   5.715  13.532  0.3672 -0.0164  2.0286
 5725TIP3    H238591   4.984   5.617  13.569  1.4012 -0.0037 -0.7172
 5726TIP3   OH238592   6.155   3.170   3.164  0.4128  0.4180 -0.3344
 5726TIP3    H138593   6.066   3.204   3.159  0.6918  1.0457 -1.2146
 5726TIP3    H238594   6.179   3.180   3.256 -0.0230  1.2812 -0.3075
 5727TIP3   OH238595   3.765   5.439  16.787 -0.0014  0.3524  0.3041
 5727TIP3    H138596   3.684   5.397  16.758  0.6285 -0.1274 -0.8628
 5727TIP3    H238597   3.754   5.531  16.762 -0.0318  0.2116 -0.2156
 5728TIP3   OH238598   2.475   5.398   3.578 -0.0092 -0.0655  0.6727
 5728TIP3    H138599   2.483   5.423   3.486 -0.7122 -1.7368  0.1236
 5728TIP3    H238600   2.455   5.305   3.576 -1.1789  0.0992  2.4888
 5729TIP3   OH238601   6.438   3.199   2.407  0.5480 -0.1334 -0.2722
 5729TIP3    H138602   6.524   3.240   2.416 -0.4424  2.1170 -0.1520
 5729TIP3    H238603   6.404   3.234   2.324 -0.2007 -1.0756 -0.3732
 5730TIP3   OH238604   2.864   5.350   3.472 -0.6358  0.1119 -0.3262
 5730TIP3    H138605   2.933   5.295   3.433  3.3826  1.8565  3.4571
 5730TIP3    H238606   2.839   5.410   3.401 -0.2878 -2.2391 -2.5962
 5731TIP3   OH238607   3.833   2.056  15.941  0.3358  0.0162 -0.2754
 5731TIP3    H138608   3.766   2.112  15.901 -1.4876 -1.7451  0.1238
 5731TIP3    H238609   3.889   2.031  15.868  1.1076  2.1561 -0.4886
 5732TIP3   OH238610   1.328   0.722   6.178  0.2621 -0.2243  0.0396
 5732TIP3    H138611   1.246   0.765   6.204  0.2284  1.8242 -2.9060
 5732TIP3    H238612   1.375   0.708   6.260 -2.1249  0.4465  1.6404
 5733TIP3   OH238613   2.716   6.494  14.986 -0.8370  0.6019  0.0343
 5733TIP3    H138614   2.736   6.458  15.072  1.5787 -1.0218 -1.0744
 5733TIP3    H238615   2.688   6.418  14.935 -2.2481  1.5432 -0.6207
 5734TIP3   OH238616   5.151   3.468  13.133 -0.7724 -0.6682  0.0884
 5734TIP3    H138617   5.244   3.468  13.113 -0.9702 -2.1223 -0.9907
 5734TIP3    H238618   5.145   3.506  13.221  0.7117  0.4109 -0.2393
 5735TIP3   OH238619   0.954   4.888  12.753  0.2681  0.1367  0.8824
 5735TIP3    H138620   0.929   4.796  12.761 -0.7555  0.3446  0.3349
 5735TIP3    H238621   1.044   4.886  12.721  0.9035 -0.6615  2.5976
 5736TIP3   OH238622   3.608   0.511  15.266 -0.2348  0.6754  0.0641
 5736TIP3    H138623   3.546   0.453  15.309  1.1740  0.0579  1.3589
 5736TIP3    H238624   3.614   0.587  15.324 -1.2050  1.6302 -1.0406
 5737TIP3   OH238625   3.194   2.914  16.760 -0.0633  0.2447  0.5057
 5737TIP3    H138626   3.288   2.907  16.774  0.2140  0.1236 -1.2372
 5737TIP3    H238627   3.184   2.991  16.704 -0.9418 -0.1424  0.1239
 5738TIP3   OH238628   2.853   2.737  11.735 -0.1623 -0.0630  0.1672
 5738TIP3    H138629   2.789   2.807  11.738  0.5585  0.6093  0.1715
 5738TIP3    H238630   2.824   2.680  11.664  0.1016  1.0775 -0.8748
 5739TIP3   OH238631   6.180   5.042  14.665  0.1793 -0.3132 -0.1833
 5739TIP3    H138632   6.222   5.099  14.730 -1.3754  0.8636 -0.1316
 5739TIP3    H238633   6.124   4.984  14.717 -1.1892  0.7337 -0.4081
 5740TIP3   OH238634   2.616   6.648   4.467  0.3634  0.9905 -0.2946
 5740TIP3    H138635   2.604   6.580   4.401 -1.7041  0.7465  0.2551
 5740TIP3    H238636   2.537   6.643   4.521  0.0707  3.8925 -0.2797
 5741TIP3   OH238637   1.320   2.756   3.113 -0.1005 -0.4051  0.4057
 5741TIP3    H138638   1.378   2.681   3.106 -0.6669 -1.0054  1.6521
 5741TIP3    H238639   1.374   2.824   3.153  0.1096 -0.5286  0.3327
 5742TIP3   OH238640   1.413   4.850  15.573  0.3243 -0.3485 -0.4963
 5742TIP3    H138641   1.396   4.899  15.654  0.7487 -1.2159  0.1396
 5742TIP3    H238642   1.447   4.765  15.603 -1.0692 -1.3207 -1.5299
 5743TIP3   OH238643   4.265   6.534   1.915  0.8559 -0.9264 -0.7039
 5743TIP3    H138644   4.264   6.572   2.002  0.6725  0.4334 -1.2836
 5743TIP3    H238645   4.209   6.591   1.863  1.7205 -1.1743 -1.9448
 5744TIP3   OH238646   1.595   0.285   1.685  0.0137  0.5223 -0.3450
 5744TIP3    H138647   1.548   0.210   1.721  0.7213 -0.2423 -0.9683
 5744TIP3    H238648   1.528   0.352   1.670 -0.5188  0.2663  0.8544
 5745TIP3   OH238649   0.586   4.467  13.363 -0.2498 -0.3563 -0.5574
 5745TIP3    H138650   0.503   4.436  13.398  1.6009 -1.9675  2.8271
 5745TIP3    H238651   0.579   4.563  13.366 -1.3153 -0.4441  1.5737
 5746TIP3   OH238652   4.871   1.160  11.687  0.0601 -0.4458 -0.0731
 5746TIP3    H138653   4.794   1.216  11.701 -0.1481 -0.8825  0.5788
 5746TIP3    H238654   4.888   1.167  11.593 -0.6489 -0.1794 -0.1921
 5747TIP3   OH238655   2.364   1.291  11.935 -0.4590  0.6816  0.2584
 5747TIP3    H138656   2.296   1.224  11.948 -0.2755  0.1623 -1.2677
 5747TIP3    H238657   2.412   1.261  11.858 -1.7386  3.6673 -1.8927
 5748TIP3   OH238658   0.143   5.025   1.393 -0.2048 -0.2000  0.2152
 5748TIP3    H138659   0.193   4.958   1.346 -0.9010 -0.3185 -0.3715
 5748TIP3    H238660   0.056   4.987   1.404 -0.9299  1.0146 -1.0591
 5749TIP3   OH238661   5.199   3.556  15.538 -0.1140 -0.1099  0.1334
 5749TIP3    H138662   5.149   3.608  15.601  0.5452  0.1072  0.4904
 5749TIP3    H238663   5.164   3.581  15.453  0.6240  1.4232  0.2406
 5750TIP3   OH238664   0.488   4.924  12.426 -0.2029 -0.1494  0.2788
 5750TIP3    H138665   0.496   4.971  12.509  1.8146 -0.9641  0.6126
 5750TIP3    H238666   0.453   4.838  12.450 -0.7400  0.0214  0.1172
 5751TIP3   OH238667   4.533   1.057  15.064 -0.4107  0.2492  0.5051
 5751TIP3    H138668   4.469   1.112  15.109 -0.3855 -0.2294  1.1431
 5751TIP3    H238669   4.485   1.018  14.991 -1.3837 -1.5377  2.0253
 5752TIP3   OH238670   6.163   1.426   1.653  0.3040 -0.1167  0.0013
 5752TIP3    H138671   6.238   1.480   1.678 -1.2384  1.6574  1.0639
 5752TIP3    H238672   6.119   1.477   1.585 -2.0562  0.8949  2.0987
 5753TIP3   OH238673   4.104   5.206   4.156 -0.0134  0.6095 -0.2660
 5753TIP3    H138674   4.113   5.287   4.206 -0.7598  1.1700 -1.0185
 5753TIP3    H238675   4.107   5.234   4.064  0.7280 -0.3366 -0.5460
 5754TIP3   OH238676   3.980   6.728  11.397 -0.3376 -0.0088 -0.9084
 5754TIP3    H138677   3.951   6.716  11.488 -0.8899  0.7955 -0.9603
 5754TIP3    H238678   3.990   6.640  11.363 -1.7367 -0.3351 -0.5533
 5755TIP3   OH238679   5.591   5.148  13.081 -0.3020 -0.0141  0.6180
 5755TIP3    H138680   5.519   5.197  13.040 -0.0486  1.2226  1.5915
 5755TIP3    H238681   5.614   5.081  13.017 -1.6490  0.2092 -0.1380
 5756TIP3   OH238682   3.121   1.280   1.717  0.0547  0.6545 -0.0874
 5756TIP3    H138683   3.210   1.306   1.738 -0.7403  1.9899  2.0017
 5756TIP3    H238684   3.066   1.342   1.765 -2.0051 -1.1522  0.0475
 5757TIP3   OH238685   3.385   5.513   2.617 -0.0467 -0.0673 -0.0907
 5757TIP3    H138686   3.361   5.484   2.529 -1.2563 -1.1061  0.5478
 5757TIP3    H238687   3.436   5.593   2.602 -0.9119  0.2463 -1.7019
 5758TIP3   OH238688   6.010   1.996   3.353  0.3467 -0.1238  0.5697
 5758TIP3    H138689   5.934   1.938   3.354  0.0498  0.2426 -0.0239
 5758TIP3    H238690   6.077   1.946   3.306 -0.3710  0.5407 -1.2683
 5759TIP3   OH238691   6.194   0.802   6.315  0.2653  0.1366 -0.5074
 5759TIP3    H138692   6.186   0.771   6.405  2.3709 -2.5797 -1.1227
 5759TIP3    H238693   6.134   0.746   6.265 -1.1149  1.8246 -0.8345
 5760TIP3   OH238694   4.089   0.120   3.208 -0.6046 -0.0431 -0.0882
 5760TIP3    H138695   4.002   0.149   3.180 -0.3007 -0.8336 -2.0340
 5760TIP3    H238696   4.146   0.143   3.135  0.6081 -0.6373  0.6388
 5761TIP3   OH238697   6.221   1.245  11.738 -0.0625  0.2042  0.1622
 5761TIP3    H138698   6.193   1.173  11.682 -0.0782 -0.1082  0.5662
 5761TIP3    H238699   6.163   1.240  11.814 -0.1836  0.7550  0.1124
 5762TIP3   OH238700   3.862   4.532   2.904  0.5677 -0.3727  0.1899
 5762TIP3    H138701   3.795   4.599   2.916 -1.2667 -2.0070 -0.2308
 5762TIP3    H238702   3.945   4.579   2.905 -0.5748  1.7460  0.8258
 5763TIP3   OH238703   2.543   5.513  16.817  0.2463  0.1505  0.4706
 5763TIP3    H138704   2.569   5.424  16.791 -0.0492 -0.1784  1.2802
 5763TIP3    H238705   2.529   5.558  16.734 -1.7260 -1.1920 -0.0160
 5764TIP3   OH238706   5.761   5.215   2.846 -0.5284 -0.2162  0.2083
 5764TIP3    H138707   5.823   5.160   2.799  0.5534  0.4078  0.8678
 5764TIP3    H238708   5.699   5.243   2.780  0.7268  0.3260 -0.7767
 5765TIP3   OH238709   1.635   3.002  10.661  0.0580  0.0297 -0.0270
 5765TIP3    H138710   1.558   2.953  10.690 -0.1675  0.6532  0.4597
 5765TIP3    H238711   1.616   3.023  10.570 -0.4895  0.4224  0.1668
 5766TIP3   OH238712   2.080   3.740  15.408  0.2605 -0.3481 -0.1234
 5766TIP3    H138713   2.116   3.789  15.333  0.3751 -0.9196 -0.4513
 5766TIP3    H238714   1.990   3.723  15.384 -0.8625  2.6127  1.4520
 5767TIP3   OH238715   0.068   6.760  10.479  0.2419  0.1540  0.0674
 5767TIP3    H138716   0.024   6.837  10.515  0.4044  1.5186 -2.4264
 5767TIP3    H238717   0.008   6.727  10.413  1.7337  0.3915 -1.4669
 5768TIP3   OH238718   0.919   1.842   0.892  0.0680  0.0823  0.5194
 5768TIP3    H138719   0.882   1.894   0.820  1.9940  1.4061  0.4246
 5768TIP3    H238720   0.906   1.896   0.970 -0.4400 -0.5708  0.8938
 5769TIP3   OH238721   3.905   0.423  12.516 -0.7398  0.5247 -0.5347
 5769TIP3    H138722   3.979   0.397  12.461  0.4717  1.3604  0.6291
 5769TIP3    H238723   3.879   0.509  12.484  0.4253  1.3268  0.5927
 5770TIP3   OH238724   0.387   1.170  12.706 -0.0426  0.1806  0.6190
 5770TIP3    H138725   0.330   1.244  12.725  1.5710  1.5002  0.4521
 5770TIP3    H238726   0.330   1.108  12.659 -0.9122  2.2146 -1.1538
 5771TIP3   OH238727   2.391   6.284  14.769 -0.1331  0.1107  0.1401
 5771TIP3    H138728   2.469   6.232  14.747  1.2325  1.3038  1.9173
 5771TIP3    H238729   2.354   6.240  14.846 -1.1442 -0.3324 -0.5746
 5772TIP3   OH238730   2.543   6.021   3.385 -0.3197  0.0922 -0.2192
 5772TIP3    H138731   2.485   6.001   3.458 -0.0998 -0.1671 -0.1119
 5772TIP3    H238732   2.491   6.076   3.326 -0.1241  1.3052  0.7059
 5773TIP3   OH238733   0.036   4.431   3.148  0.6879 -0.2063  0.2041
 5773TIP3    H138734  -0.012   4.379   3.212  0.7766  0.0666  0.4937
 5773TIP3    H238735  -0.029   4.492   3.112  0.8758  0.3755  0.8209
 5774TIP3   OH238736   6.383   0.664   4.443 -0.8139  0.5947  0.6261
 5774TIP3    H138737   6.371   0.609   4.366  0.5476  0.1853  0.6724
 5774TIP3    H238738   6.383   0.753   4.410 -1.1285  0.4659  0.2763
 5775TIP3   OH238739   3.555   2.777  11.495 -0.4222 -0.2731  0.3267
 5775TIP3    H138740   3.534   2.726  11.573 -2.3647 -1.4750 -0.8972
 5775TIP3    H238741   3.474   2.780  11.445  0.4379  1.4803 -1.1152
 5776TIP3   OH238742   2.645   2.316   4.610  0.1782 -0.7803  0.1626
 5776TIP3    H138743   2.559   2.282   4.634 -0.7399  1.5708  0.5640
 5776TIP3    H238744   2.626   2.397   4.562  2.1483  0.2439  0.9592
 5777TIP3   OH238745   5.675   1.736  12.630 -0.1168 -0.3155 -0.2054
 5777TIP3    H138746   5.615   1.662  12.628 -0.3285 -0.1543  0.0914
 5777TIP3    H238747   5.719   1.729  12.715  0.5382 -0.6303 -0.5618
 5778TIP3   OH238748   3.013   5.969   6.200  0.2927 -0.2261  0.5145
 5778TIP3    H138749   3.106   5.972   6.180 -0.1276 -0.5318 -1.8050
 5778TIP3    H238750   3.006   6.001   6.290  2.5933 -0.0284  0.6689
 5779TIP3   OH238751   6.217   2.103  11.115  0.2705  0.4482 -0.1550
 5779TIP3    H138752   6.234   2.009  11.126 -0.4318  0.2023 -1.0883
 5779TIP3    H238753   6.223   2.118  11.020 -1.0504  1.0518 -0.1696
 5780TIP3   OH238754   6.583   2.175  17.143  0.1775 -0.1375 -0.2328
 5780TIP3    H138755   6.488   2.180  17.142  0.0477 -1.1423  1.7955
 5780TIP3    H238756   6.612   2.244  17.083 -1.8068 -0.0660 -1.1775
 5781TIP3   OH238757   2.908   1.310   1.300  0.4588 -0.1619  0.3077
 5781TIP3    H138758   2.931   1.218   1.311  1.5931  0.2614  1.9645
 5781TIP3    H238759   2.822   1.310   1.258 -0.2637 -1.9984  1.6809
 5782TIP3   OH238760   3.338   3.524  13.244  0.2295 -0.3871  0.3475
 5782TIP3    H138761   3.339   3.461  13.316  0.5118 -0.5656  0.1899
 5782TIP3    H238762   3.316   3.607  13.286  1.8311 -0.1957  0.8955
 5783TIP3   OH238763   1.744   0.326   4.911 -0.2029 -0.4583 -0.3826
 5783TIP3    H138764   1.701   0.410   4.897  0.2832 -0.3738 -1.4996
 5783TIP3    H238765   1.812   0.322   4.842  2.3119 -0.1000  1.9006
 5784TIP3   OH238766   5.552   0.040  12.633 -0.5797  0.7601  0.7211
 5784TIP3    H138767   5.490  -0.013  12.683  0.1057 -0.6370  0.1712
 5784TIP3    H238768   5.551   0.125  12.675 -1.0828  0.0511  2.2030
 5785TIP3   OH238769   5.304   4.550  12.816  0.0306 -0.3943  0.4621
 5785TIP3    H138770   5.315   4.603  12.737  2.3906 -1.9744 -0.3852
 5785TIP3    H238771   5.355   4.596  12.883 -1.2317  0.4638  0.8777
 5786TIP3   OH238772   6.005   5.971  17.007  0.2554 -0.3611 -0.3543
 5786TIP3    H138773   5.991   5.998  16.916  1.6754 -1.5515 -0.9681
 5786TIP3    H238774   6.046   6.047  17.048 -2.5586  1.0930  0.0035
 5787TIP3   OH238775   1.918   5.386   1.117  0.1741  0.1691  0.1489
 5787TIP3    H138776   2.006   5.374   1.081  0.3608  2.1842 -0.2146
 5787TIP3    H238777   1.865   5.409   1.041  0.2171  2.8024  0.8031
 5788TIP3   OH238778   1.045   0.939   2.754 -0.0055 -0.6869  0.0131
 5788TIP3    H138779   0.975   1.004   2.759 -1.6413 -2.4324  0.8613
 5788TIP3    H238780   1.004   0.863   2.714  2.1138 -0.9574 -1.8546
 5789TIP3   OH238781   1.654   0.016  15.207 -0.6625 -0.2068 -0.4676
 5789TIP3    H138782   1.566  -0.005  15.177 -1.0423  1.7007 -0.8105
 5789TIP3    H238783   1.642   0.090  15.267  0.8108  1.0383 -1.6501
 5790TIP3   OH238784   4.496   0.500   1.124  0.2323 -0.3203 -0.1901
 5790TIP3    H138785   4.453   0.483   1.040 -0.8312  0.5915  0.1394
 5790TIP3    H238786   4.548   0.422   1.141 -0.5588 -1.0649 -1.0711
 5791TIP3   OH238787   1.103   2.603   4.486 -0.2475  0.0534  0.6339
 5791TIP3    H138788   1.184   2.639   4.523 -0.4563  0.2667  0.8918
 5791TIP3    H238789   1.115   2.611   4.391 -0.2409  0.7136  0.6830
 5792TIP3   OH238790   4.278   0.919  12.372 -0.0857  0.1959  0.0350
 5792TIP3    H138791   4.183   0.917  12.383 -0.0683 -0.4778  0.1086
 5792TIP3    H238792   4.297   0.848  12.311  0.2395  1.2435 -1.1079
 5793TIP3   OH238793   5.266   4.329  14.778 -0.7322  0.2216  0.3015
 5793TIP3    H138794   5.332   4.384  14.820 -0.6413  0.1540  0.2450
 5793TIP3    H238795   5.184   4.353  14.823 -0.6120  0.0494  0.6125
 5794TIP3   OH238796   4.505   4.289  12.568 -0.2024 -0.0014  0.7912
 5794TIP3    H138797   4.463   4.373  12.549 -0.6518  0.2086  2.5391
 5794TIP3    H238798   4.480   4.233  12.494 -1.5403  0.8279  0.5637
 5795TIP3   OH238799   6.404   2.529  12.538  0.1044  0.1989 -0.1873
 5795TIP3    H138800   6.428   2.465  12.471 -0.5715  0.5736 -0.7992
 5795TIP3    H238801   6.333   2.488  12.587  0.4234  0.0304  0.1367
 5796TIP3   OH238802   0.883   4.262   4.522  0.0151 -0.1924  0.6896
 5796TIP3    H138803   0.903   4.279   4.429  0.5272 -0.4301  0.7508
 5796TIP3    H238804   0.899   4.168   4.533 -1.5996 -0.4925  0.6505
 5797TIP3   OH238805   6.377   2.695   5.245  0.4032 -0.1013 -0.1886
 5797TIP3    H138806   6.365   2.608   5.207  0.8282 -1.1273  1.8272
 5797TIP3    H238807   6.472   2.704   5.253  0.3265 -0.2161  1.1263
 5798TIP3   OH238808   1.044   1.342   2.619 -0.5253  0.1323 -0.0457
 5798TIP3    H138809   1.027   1.435   2.606 -0.2134  0.2662  0.4833
 5798TIP3    H238810   1.128   1.339   2.665 -0.6185 -0.4029  0.0954
 5799TIP3   OH238811   1.604   0.534  16.622  0.5194  0.2791  0.4356
 5799TIP3    H138812   1.527   0.477  16.623 -0.3199  1.3670 -0.3110
 5799TIP3    H238813   1.643   0.522  16.708 -0.9137  0.2795  1.1145
 5800TIP3   OH238814   6.681   0.335   2.619 -0.4127  0.1762  0.3681
 5800TIP3    H138815   6.693   0.399   2.689  1.3776 -2.4393  2.6574
 5800TIP3    H238816   6.593   0.298   2.635 -0.4175  0.2927  0.6195
 5801TIP3   OH238817   2.228   4.865  17.035 -0.2251  0.0178 -1.2009
 5801TIP3    H138818   2.279   4.827  17.106  1.4156  1.2397 -1.6502
 5801TIP3    H238819   2.274   4.838  16.955  0.8498  2.5309 -1.5588
 5802TIP3   OH238820   2.563   2.161   3.605 -0.0507  0.2598  0.1620
 5802TIP3    H138821   2.630   2.100   3.574 -0.7905 -0.1152 -0.7384
 5802TIP3    H238822   2.481   2.113   3.598 -0.6467  1.3232 -0.5432
 5803TIP3   OH238823   5.997   0.353  13.142  0.4258 -0.3599  0.1180
 5803TIP3    H138824   5.990   0.395  13.056 -0.9020 -2.7047 -1.0257
 5803TIP3    H238825   5.922   0.384  13.191 -1.0552 -1.9349 -1.0395
 5804TIP3   OH238826   5.732   3.398   2.848  0.2937  0.2150  0.2358
 5804TIP3    H138827   5.748   3.322   2.903 -1.2991  0.5225  1.1680
 5804TIP3    H238828   5.726   3.471   2.909 -2.0141  0.4911 -0.2223
 5805TIP3   OH238829   5.707   0.280  16.549 -0.0183 -0.0065 -0.2523
 5805TIP3    H138830   5.683   0.370  16.526  0.0010  0.0620 -0.0016
 5805TIP3    H238831   5.800   0.273  16.527  1.0958  1.2623  3.3747
 5806TIP3   OH238832   4.421   1.609   4.593  0.4111 -0.6250  0.0621
 5806TIP3    H138833   4.365   1.659   4.533 -0.0191 -1.0335  0.1154
 5806TIP3    H238834   4.506   1.652   4.587 -0.1288  0.5803  0.6723
 5807TIP3   OH238835   4.046   2.621  12.392 -0.7948  0.3942  0.5096
 5807TIP3    H138836   4.111   2.644  12.326 -1.5070  0.0677 -0.3268
 5807TIP3    H238837   4.012   2.535  12.364 -0.6002 -0.0910  1.6994
 5808TIP3   OH238838   6.416   5.641   2.756  0.2470 -0.4407 -0.2110
 5808TIP3    H138839   6.425   5.553   2.718 -0.1195 -1.0448  1.0402
 5808TIP3    H238840   6.493   5.650   2.812  0.9333  0.5554 -1.2740
 5809TIP3   OH238841   5.815   6.630   1.264 -0.0691  0.4419  0.1136
 5809TIP3    H138842   5.898   6.674   1.284  0.1875  0.4567 -0.8957
 5809TIP3    H238843   5.838   6.565   1.197 -0.4235 -1.3066  1.6107
 5810TIP3   OH238844   1.470   0.297  16.150 -0.2013  0.1873 -0.3218
 5810TIP3    H138845   1.402   0.264  16.208  0.6395 -1.0151  0.0110
 5810TIP3    H238846   1.425   0.315  16.067 -1.0767  0.2590  0.1683
 5811TIP3   OH238847   0.781   2.893  16.438 -0.3231  0.1995  0.7463
 5811TIP3    H138848   0.699   2.937  16.458  0.8516  2.2092  1.4111
 5811TIP3    H238849   0.841   2.920  16.508  1.8391  1.4875 -1.4432
 5812TIP3   OH238850   0.070   4.118  11.582  0.0045  0.0962  0.4527
 5812TIP3    H138851   0.134   4.169  11.632 -0.3229  1.3628 -0.3515
 5812TIP3    H238852   0.009   4.184  11.548 -2.7110 -1.1744  2.5100
 5813TIP3   OH238853   4.124   0.205  11.803  0.3232 -0.0034  0.8364
 5813TIP3    H138854   4.194   0.165  11.855 -0.0686  0.2725  1.5695
 5813TIP3    H238855   4.043   0.175  11.843  0.0182  0.7337  0.7869
 5814TIP3   OH238856   5.216   0.289   0.644  0.4047  0.1228  0.3041
 5814TIP3    H138857   5.290   0.238   0.613 -0.3459 -0.4537 -0.6075
 5814TIP3    H238858   5.246   0.329   0.725  2.0115  0.6537 -0.5260
 5815TIP3   OH238859   5.137   1.365  12.851  0.2810  0.2283 -0.1198
 5815TIP3    H138860   5.191   1.356  12.772  1.0302 -0.9506  0.4859
 5815TIP3    H238861   5.053   1.399  12.819  0.6845  0.1165 -1.3702
 5816TIP3   OH238862   6.153   6.196  17.031 -0.4929 -0.2352  0.5803
 5816TIP3    H138863   6.187   6.220  17.117 -2.5409  1.3010  1.0183
 5816TIP3    H238864   6.119   6.278  16.994  0.7997 -0.7317 -1.9553
 5817TIP3   OH238865   5.112   2.271   4.357  0.3388  0.2308 -0.2053
 5817TIP3    H138866   5.159   2.305   4.281 -0.3333 -0.4421 -0.9435
 5817TIP3    H238867   5.176   2.215   4.401  0.6169  0.3081 -0.5033
 5818TIP3   OH238868   3.989   3.822  13.393  0.1357 -0.3624  0.2083
 5818TIP3    H138869   3.901   3.814  13.356 -0.1636 -0.5810  0.9494
 5818TIP3    H238870   3.986   3.770  13.474  0.3346  1.2958  1.3213
 5819TIP3   OH238871   1.391   3.647   4.902 -0.5574  0.4143 -0.4700
 5819TIP3    H138872   1.467   3.655   4.959  0.0743 -0.1012 -1.2133
 5819TIP3    H238873   1.364   3.738   4.886  0.0000  0.6123 -0.3261
 5820TIP3   OH238874   0.758   3.370  16.785 -0.2425  0.3605 -0.0938
 5820TIP3    H138875   0.793   3.346  16.699 -0.5192 -0.8836  0.1139
 5820TIP3    H238876   0.663   3.375  16.771 -0.5303 -1.9016  0.5267
 5821TIP3   OH238877   4.375   4.082  14.007  0.1997 -0.2656 -0.2417
 5821TIP3    H138878   4.446   4.132  14.048 -0.2308 -1.1127  1.6286
 5821TIP3    H238879   4.365   4.122  13.921  2.4453  0.3546 -0.2801
 5822TIP3   OH238880   4.319   0.234  15.502  0.4907 -0.2980 -0.2944
 5822TIP3    H138881   4.325   0.320  15.461  1.2907 -0.6600 -0.9803
 5822TIP3    H238882   4.398   0.228  15.556 -0.8961  0.4615  1.9428
 5823TIP3   OH238883   6.573   5.328   2.123  0.1292  0.1505  0.0380
 5823TIP3    H138884   6.549   5.406   2.173 -1.5420 -0.3987  0.1626
 5823TIP3    H238885   6.563   5.353   2.032  0.5761  0.3671  0.0459
 5824TIP3   OH238886   2.462   3.382  16.867 -0.0040 -0.0041 -0.1199
 5824TIP3    H138887   2.455   3.452  16.803 -2.0187  0.1376  0.1785
 5824TIP3    H238888   2.554   3.382  16.894  0.7105  0.4686 -2.3708
 5825TIP3   OH238889   6.227   3.797   2.086 -0.0348  0.5768 -0.3442
 5825TIP3    H138890   6.228   3.702   2.074 -0.4135  0.6396 -0.9268
 5825TIP3    H238891   6.311   3.826   2.050  0.6436  0.3465  0.9954
 5826TIP3   OH238892   0.279   0.821  10.337  0.4521  0.2270  0.1559
 5826TIP3    H138893   0.364   0.858  10.315  0.8889 -0.6723  0.2607
 5826TIP3    H238894   0.258   0.763  10.264  1.1964 -1.5905  1.2868
 5827TIP3   OH238895   4.202   2.936   3.612  0.2710  0.2523  0.2345
 5827TIP3    H138896   4.255   2.867   3.650 -0.0810 -0.1878 -0.0636
 5827TIP3    H238897   4.125   2.941   3.670 -0.3658 -0.5621 -0.5197
 5828TIP3   OH238898   6.091   1.870   0.754  0.4840  0.8185 -0.2073
 5828TIP3    H138899   6.061   1.960   0.762 -3.6442 -0.1569 -1.9306
 5828TIP3    H238900   6.113   1.860   0.661  0.2601 -0.1124 -0.1719
 5829TIP3   OH238901   2.105   3.533  12.655 -0.1950  0.1340 -0.2647
 5829TIP3    H138902   2.109   3.469  12.726 -2.0971 -0.6321 -0.7804
 5829TIP3    H238903   2.099   3.480  12.575 -2.6958  0.8635 -0.6442
 5830TIP3   OH238904   4.697   2.325  12.990  0.1050 -0.1609 -0.0026
 5830TIP3    H138905   4.780   2.372  12.983 -0.4554  0.7777 -0.6362
 5830TIP3    H238906   4.672   2.335  13.082  0.3346  0.1901  0.0218
 5831TIP3   OH238907   3.579   1.046   4.986  0.0229 -0.2524  0.0904
 5831TIP3    H138908   3.533   0.962   4.977 -0.7837  0.2335 -0.4487
 5831TIP3    H238909   3.577   1.063   5.080  2.9832 -2.3276  0.6798
 5832TIP3   OH238910   0.102   5.133  14.096  0.1217 -0.1391 -0.2732
 5832TIP3    H138911   0.067   5.195  14.159 -0.0927 -0.1420 -0.3888
 5832TIP3    H238912   0.036   5.130  14.026  0.3931 -0.0766 -0.5331
 5833TIP3   OH238913   0.705   1.549  15.092 -0.0466  0.8815 -0.0952
 5833TIP3    H138914   0.691   1.519  15.003  1.6934 -1.0104  0.1804
 5833TIP3    H238915   0.753   1.477  15.134  0.4229  2.2991  1.9559
 5834TIP3   OH238916   3.391   0.861   5.287  0.3112  0.1659 -0.1419
 5834TIP3    H138917   3.428   0.801   5.352 -1.0068  0.4417  0.9116
 5834TIP3    H238918   3.437   0.944   5.302 -1.4811  0.8812  2.0389
 5835TIP3   OH238919   1.926   3.329  12.270  0.1438 -0.4583 -0.8256
 5835TIP3    H138920   1.953   3.409  12.224 -0.1338  0.3735  0.4313
 5835TIP3    H238921   1.831   3.330  12.266  0.1324 -0.5917 -0.5755
 5836TIP3   OH238922   6.682   0.933  17.065  0.6964 -0.6296  0.4375
 5836TIP3    H138923   6.689   0.849  17.109 -1.0932 -1.4833 -0.7710
 5836TIP3    H238924   6.621   0.917  16.993  0.1841  1.7432  0.2677
 5837TIP3   OH238925   2.452   1.947   0.869  0.0632  1.1036  0.5977
 5837TIP3    H138926   2.471   2.012   0.802  0.6385  1.4661  1.0983
 5837TIP3    H238927   2.360   1.961   0.892 -1.3874 -1.4318 -2.7024
 5838TIP3   OH238928   5.693   6.652  15.391 -0.0046 -0.4365  0.4119
 5838TIP3    H138929   5.725   6.742  15.387 -0.1708 -0.3670  0.6124
 5838TIP3    H238930   5.707   6.627  15.483 -0.8106 -0.2997  0.5815
 5839TIP3   OH238931   6.474   2.633  10.730 -0.1134  0.2869 -0.1424
 5839TIP3    H138932   6.392   2.593  10.756  0.4921  0.1773  1.7233
 5839TIP3    H238933   6.448   2.712  10.683 -1.2818 -0.0235 -0.0472
 5840TIP3   OH238934   6.344   0.945  17.044 -0.6755  0.0398  0.9818
 5840TIP3    H138935   6.313   1.026  17.005 -1.8901 -0.5330  0.7045
 5840TIP3    H238936   6.420   0.920  16.992  0.9028  1.9209  2.2010
 5841TIP3   OH238937   0.338   1.641   1.298  0.3132  0.1559  0.3299
 5841TIP3    H138938   0.380   1.686   1.371  1.2003  0.5704 -0.4220
 5841TIP3    H238939   0.247   1.630   1.326  0.0839  2.3368  0.5813
 5842TIP3   OH238940   5.687   1.498  15.327  0.1895  0.2846 -0.6646
 5842TIP3    H138941   5.612   1.555  15.309  0.5145  0.6382 -0.9320
 5842TIP3    H238942   5.662   1.449  15.405 -1.2761 -1.2774 -2.0399
 5843TIP3   OH238943   1.992   1.176   0.621  0.0061 -0.7139 -0.1384
 5843TIP3    H138944   2.038   1.187   0.538  0.5008  0.7810  0.3075
 5843TIP3    H238945   1.985   1.264   0.657 -1.2087 -1.1933  0.8852
 5844TIP3   OH238946   1.850   2.969  13.135 -0.5606  0.3114  0.3881
 5844TIP3    H138947   1.857   3.007  13.047  0.9872  0.0343  0.3760
 5844TIP3    H238948   1.872   3.041  13.194 -0.7206  0.2559  0.5171
 5845TIP3   OH238949   3.396   4.384   4.010  0.3411 -0.3202  0.6091
 5845TIP3    H138950   3.348   4.462   4.038  1.1079 -0.0604  1.2339
 5845TIP3    H238951   3.364   4.314   4.067  0.8757 -0.0888  1.2137
 5846TIP3   OH238952   0.822   3.082   5.270  0.3959  1.2328  0.4960
 5846TIP3    H138953   0.900   3.097   5.217  1.1525 -0.2693  1.1418
 5846TIP3    H238954   0.805   2.988   5.264 -0.5602  1.3162  1.4562
 5847TIP3   OH238955   5.006   0.929   1.867  0.3581 -0.2967 -0.4409
 5847TIP3    H138956   4.918   0.937   1.831 -0.6816 -0.5853  1.8860
 5847TIP3    H238957   5.025   0.835   1.865  0.9205 -0.1818 -1.5260
 5848TIP3   OH238958   2.748   2.323  13.369  0.6140 -0.4067  0.2591
 5848TIP3    H138959   2.813   2.252  13.378  0.2526 -0.7739  0.0126
 5848TIP3    H238960   2.683   2.288  13.308  0.6096  0.2714 -0.1326
 5849TIP3   OH238961   0.613   6.382  13.330  0.0902 -0.0686  0.4082
 5849TIP3    H138962   0.662   6.360  13.410 -0.3812 -2.2056  0.1735
 5849TIP3    H238963   0.522   6.360  13.351 -0.2615  0.6793 -0.2743
 5850TIP3   OH238964   5.804   0.713   4.200  0.3168  0.4086 -0.1824
 5850TIP3    H138965   5.744   0.788   4.196  0.8823  0.8313 -2.5570
 5850TIP3    H238966   5.889   0.750   4.176  0.7851 -0.8274 -0.4731
 5851TIP3   OH238967   3.640   4.605   1.515  0.0590  0.1303  0.1725
 5851TIP3    H138968   3.681   4.565   1.438  2.9223  0.8656  1.1706
 5851TIP3    H238969   3.552   4.629   1.487  0.1390 -1.8926 -2.0722
 5852TIP3   OH238970   4.088   1.654  11.892 -1.2123 -0.1416  0.1738
 5852TIP3    H138971   4.091   1.717  11.965 -0.9868 -1.0425  0.9605
 5852TIP3    H238972   4.179   1.625  11.882 -1.3234 -0.3813 -0.1559
 5853TIP3   OH238973   4.961   0.632   1.660 -0.4571  0.1248 -0.0402
 5853TIP3    H138974   5.011   0.647   1.741 -0.1240  0.3948 -0.2949
 5853TIP3    H238975   4.995   0.697   1.599 -1.4686  0.6470 -0.0673
 5854TIP3   OH238976   3.116   0.379  15.351 -0.1018 -0.3184  0.5600
 5854TIP3    H138977   3.076   0.324  15.419 -0.6621  0.2613  0.7083
 5854TIP3    H238978   3.096   0.334  15.269 -0.9274 -0.1118  0.6466
 5855TIP3   OH238979   5.301   5.002  14.760  0.1878 -0.3802 -0.2236
 5855TIP3    H138980   5.373   5.046  14.714 -0.2398 -0.8663 -1.3842
 5855TIP3    H238981   5.222   5.035  14.717 -0.2899  0.0812  0.9865
 5856TIP3   OH238982   6.459   0.650  13.442  0.1513  0.4602  0.2230
 5856TIP3    H138983   6.440   0.586  13.374  0.7955  0.5730 -0.0751
 5856TIP3    H238984   6.450   0.602  13.524 -0.3821  0.2564  0.0442
 5857TIP3   OH238985   2.964   3.836  13.778 -0.1377  0.6326  0.5535
 5857TIP3    H138986   2.938   3.775  13.846  1.1563 -1.5890 -0.7887
 5857TIP3    H238987   2.941   3.792  13.696  0.7682  1.9938 -0.4867
 5858TIP3   OH238988   0.311   4.799   4.215 -0.2189 -0.2476  0.0688
 5858TIP3    H138989   0.398   4.780   4.249  0.4330 -0.7461 -1.7910
 5858TIP3    H238990   0.326   4.839   4.130 -1.8123  0.0133 -0.1259
 5859TIP3   OH238991   5.695   2.852  12.619  0.4386  0.2490 -0.8479
 5859TIP3    H138992   5.764   2.889  12.564  0.5508  1.0218 -0.2029
 5859TIP3    H238993   5.737   2.842  12.705  0.1592 -0.5962 -0.8042
 5860TIP3   OH238994   2.996   3.018   1.978 -0.0471 -0.1259 -0.1094
 5860TIP3    H138995   2.968   3.034   1.888 -0.6486  1.2382  0.2911
 5860TIP3    H238996   2.920   3.044   2.031  0.2501 -1.0459  0.7868
 5861TIP3   OH238997   3.304   1.359  12.039 -0.2491  0.4919  0.0593
 5861TIP3    H138998   3.397   1.336  12.037  0.6344  3.7308 -0.7292
 5861TIP3    H238999   3.272   1.316  12.118  1.7049 -1.3193 -0.0318
 5862TIP3   OH239000   6.147   2.489   1.306 -0.4863 -0.1234  0.6020
 5862TIP3    H139001   6.069   2.458   1.259 -1.1061 -0.2951  1.7158
 5862TIP3    H239002   6.129   2.581   1.323 -0.6509 -0.2670  1.2352
 5863TIP3   OH239003   0.321   6.308  10.803 -0.2628 -0.0966 -0.2377
 5863TIP3    H139004   0.334   6.370  10.731 -0.8007 -0.5640 -0.7382
 5863TIP3    H239005   0.275   6.234  10.764 -0.5092 -0.3831  0.5774
 5864TIP3   OH239006   2.375   5.286  17.165  0.1692 -0.1423  0.1601
 5864TIP3    H139007   2.284   5.300  17.191  0.4696  2.5335 -0.0355
 5864TIP3    H239008   2.423   5.280  17.248  0.0148 -0.1199  0.2524
 5865TIP3   OH239009   0.098   2.591  12.560 -0.3085 -0.2281  0.2675
 5865TIP3    H139010   0.030   2.659  12.555  2.4981  2.7947 -4.4805
 5865TIP3    H239011   0.154   2.618  12.633 -2.3887 -1.0865  2.3048
 5866TIP3   OH239012   0.802   1.623   0.666  0.3058 -0.6959  0.0195
 5866TIP3    H139013   0.893   1.636   0.640  0.3424 -1.0431 -0.0360
 5866TIP3    H239014   0.758   1.704   0.640  0.5223 -0.6764 -0.2999
 5867TIP3   OH239015   5.855   2.599   2.558  0.2957  0.2434  0.2754
 5867TIP3    H139016   5.828   2.561   2.641  0.1547 -0.0062  0.1160
 5867TIP3    H239017   5.803   2.680   2.551  0.5125  0.4084  0.5590
 5868TIP3   OH239018   3.041   2.984   6.143 -0.3389  0.4313 -0.1602
 5868TIP3    H139019   3.001   3.065   6.112 -0.2921  1.3865  2.0785
 5868TIP3    H239020   3.130   3.009   6.168 -0.2139 -0.3716  0.2333
 5869TIP3   OH239021   0.526   0.348   1.113 -0.5022  0.0702 -0.5424
 5869TIP3    H139022   0.538   0.320   1.203 -1.5216 -1.7379 -0.9142
 5869TIP3    H239023   0.481   0.432   1.119  1.0256  0.8595  0.6141
 5870TIP3   OH239024   1.234   3.537  11.584  0.0824 -0.0368  0.2739
 5870TIP3    H139025   1.151   3.510  11.544  0.4287  0.7626 -1.0518
 5870TIP3    H239026   1.297   3.470  11.557 -0.4470 -1.7729  2.9246
 5871TIP3   OH239027   0.104   5.163   6.884  0.5806 -0.1421 -0.4459
 5871TIP3    H139028   0.154   5.230   6.839  1.3755 -0.6705 -0.3789
 5871TIP3    H239029   0.157   5.141   6.961 -0.6568  0.6105  0.6550
 5872TIP3   OH239030   0.710   5.816  11.280  0.0311 -0.1408  0.4283
 5872TIP3    H139031   0.711   5.912  11.276 -1.1533 -0.1300 -0.1421
 5872TIP3    H239032   0.724   5.789  11.189  0.7750 -0.5274  0.6523
 5873TIP3   OH239033   3.809   3.166   5.851  0.1488 -0.1829  0.1465
 5873TIP3    H139034   3.824   3.148   5.758 -1.8114  0.9358 -0.4345
 5873TIP3    H239035   3.888   3.133   5.895  0.7499 -1.4942 -1.8032
 5874TIP3   OH239036   6.531   5.805  13.845 -0.0646  0.1846  0.0249
 5874TIP3    H139037   6.514   5.898  13.828  1.0044  0.4123  0.1073
 5874TIP3    H239038   6.446   5.769  13.869 -0.4988  1.1397 -0.0297
 5875TIP3   OH239039   6.034   3.487  16.057 -0.0243  0.0809  0.7459
 5875TIP3    H139040   6.027   3.556  16.123 -1.2419  0.5322  0.1739
 5875TIP3    H239041   6.056   3.533  15.976  0.0342 -0.3034  0.5401
 5876TIP3   OH239042   2.410   0.039  13.369 -0.1176  0.1630  0.5814
 5876TIP3    H139043   2.366   0.033  13.454  1.7862 -0.7024  1.5769
 5876TIP3    H239044   2.500   0.012  13.387  0.3975  0.1629 -1.6876
 5877TIP3   OH239045   2.030   0.064  15.730 -0.1581 -0.1186  0.0324
 5877TIP3    H139046   2.074  -0.016  15.761  1.4877  0.5200 -0.5347
 5877TIP3    H239047   2.026   0.120  15.807 -1.9936 -0.9773  0.6223
 5878TIP3   OH239048   3.750   0.309  15.114 -0.2166 -0.1960 -0.0634
 5878TIP3    H139049   3.790   0.284  15.197 -1.3350 -1.1913  0.1972
 5878TIP3    H239050   3.684   0.374  15.137  1.5626  1.9431 -0.5641
 5879TIP3   OH239051   0.833   3.452  13.872  0.2731  0.6113 -0.1303
 5879TIP3    H139052   0.780   3.531  13.869  0.7276  1.1885  3.2467
 5879TIP3    H239053   0.888   3.457  13.794 -0.8856  2.7515 -0.8878
 5880TIP3   OH239054   3.021   0.433   5.079  0.7983 -0.1332 -0.2477
 5880TIP3    H139055   3.088   0.495   5.106  0.9491 -0.1869 -0.4946
 5880TIP3    H239056   3.018   0.440   4.983  1.5671 -1.2520 -0.3851
 5881TIP3   OH239057   0.651   5.969   5.173 -0.0806  0.0919  0.4880
 5881TIP3    H139058   0.666   6.048   5.225 -1.5009 -0.4180  1.7567
 5881TIP3    H239059   0.572   5.988   5.122 -0.6921 -0.6465  1.1380
 5882TIP3   OH239060   2.398   3.200   4.460 -0.4312 -0.3255 -0.1299
 5882TIP3    H139061   2.431   3.286   4.485 -1.4877  0.1746 -0.4100
 5882TIP3    H239062   2.390   3.152   4.543  0.3063 -0.2220  0.0101
 5883TIP3   OH239063   5.722   5.516   4.360  0.4558  0.4023 -0.0921
 5883TIP3    H139064   5.767   5.549   4.283  0.8735  1.2992  0.5186
 5883TIP3    H239065   5.691   5.429   4.335  0.0097  0.9365 -1.4857
 5884TIP3   OH239066   4.824   4.678   5.165  0.2360  0.7041 -0.5550
 5884TIP3    H139067   4.792   4.588   5.160  0.7292  0.4716  0.2385
 5884TIP3    H239068   4.919   4.669   5.175  0.2209  1.2825  0.2163
 5885TIP3   OH239069   2.787   1.849   1.879 -0.0559 -0.2544  0.6891
 5885TIP3    H139070   2.790   1.852   1.784  2.1115 -2.5237  0.5757
 5885TIP3    H239071   2.815   1.936   1.907 -0.5514  0.3832 -0.7391
 5886TIP3   OH239072   1.602   1.446  16.854 -0.5147  0.6073  0.0956
 5886TIP3    H139073   1.591   1.363  16.901  0.0649 -0.6122 -1.8017
 5886TIP3    H239074   1.696   1.450  16.835 -0.4620  1.9619  0.5961
 5887TIP3   OH239075   1.882   4.826  16.784  0.3478 -0.6136 -0.4517
 5887TIP3    H139076   1.809   4.865  16.833  1.6481  2.1210 -0.5214
 5887TIP3    H239077   1.861   4.843  16.692  0.5476 -0.8382 -0.5416
 5888TIP3   OH239078   4.719   0.775   0.357 -0.0043  0.2237  0.4009
 5888TIP3    H139079   4.763   0.795   0.440 -0.6594 -2.1099  1.3751
 5888TIP3    H239080   4.629   0.807   0.369 -0.2983 -0.7698  0.8869
 5889TIP3   OH239081   5.253   5.531   3.342  0.3004  0.3755 -0.4144
 5889TIP3    H139082   5.338   5.548   3.303  0.2007 -0.5124 -1.0754
 5889TIP3    H239083   5.224   5.449   3.301 -1.0648  0.8873 -0.5459
 5890TIP3   OH239084   5.306   3.307   0.335  0.0639 -0.1226 -0.2135
 5890TIP3    H139085   5.311   3.220   0.296 -0.8803 -1.3872  2.2163
 5890TIP3    H239086   5.369   3.304   0.408 -0.8326  0.7955  0.6292
 5891TIP3   OH239087   2.472   3.571   1.138 -0.3705 -0.3934 -0.0143
 5891TIP3    H139088   2.425   3.626   1.075 -1.6725  1.1605  2.1554
 5891TIP3    H239089   2.562   3.603   1.135 -0.9995  1.5900  0.8297
 5892TIP3   OH239090   1.313   1.763   3.078  0.1505 -0.2628 -0.1011
 5892TIP3    H139091   1.300   1.686   3.133  1.2573 -0.0031  0.5422
 5892TIP3    H239092   1.344   1.831   3.138  1.0767  0.1168 -0.9719
 5893TIP3   OH239093   6.155   0.031   5.564 -0.4297 -0.5159 -0.3214
 5893TIP3    H139094   6.151  -0.045   5.622 -2.3767 -0.4176 -0.2642
 5893TIP3    H239095   6.064   0.053   5.547  0.0936  0.1914 -2.4961
 5894TIP3   OH239096   1.524   0.153  11.997  0.4357  0.0768 -0.0703
 5894TIP3    H139097   1.573   0.074  11.974 -0.1455 -0.2924 -0.0633
 5894TIP3    H239098   1.569   0.186  12.075  0.3189 -0.5948  0.2964
 5895TIP3   OH239099   2.226   6.405   0.893 -0.1173 -0.4987  0.1316
 5895TIP3    H139100   2.132   6.415   0.879  0.0565 -1.1893 -1.7843
 5895TIP3    H239101   2.265   6.482   0.852  0.1505  0.2305  1.6701
 5896TIP3   OH239102   6.785   5.293   1.227 -0.0602  0.1715  0.0666
 5896TIP3    H139103   6.719   5.352   1.190 -0.0162  0.2563  0.1232
 5896TIP3    H239104   6.860   5.349   1.246 -0.0265  0.1026  0.1420
 5897TIP3   OH239105   2.625   1.287   4.563  0.6693 -0.4300  0.3715
 5897TIP3    H139106   2.592   1.360   4.510 -1.0752 -1.3804  0.0587
 5897TIP3    H239107   2.677   1.329   4.632 -1.7450  1.3104  1.2864
 5898TIP3   OH239108   5.843   1.998  10.971 -0.6374  0.1520  0.2193
 5898TIP3    H139109   5.873   2.053  11.043  0.5454 -0.3886  0.1715
 5898TIP3    H239110   5.921   1.985  10.917 -0.8021 -1.7617  0.3621
 5899TIP3   OH239111   3.111   2.725  13.267 -0.3810  0.0052 -0.1661
 5899TIP3    H139112   3.190   2.772  13.292 -0.7163  0.3630  0.2526
 5899TIP3    H239113   3.041   2.790  13.274 -0.5455  0.0209 -1.7264
 5900TIP3   OH239114   5.333   2.273  11.215  0.4226  0.0221  0.1115
 5900TIP3    H139115   5.238   2.276  11.207  0.2970  1.0346  1.5444
 5900TIP3    H239116   5.362   2.221  11.140 -1.0944  1.3780 -1.4895
 5901TIP3   OH239117   6.611   1.603   4.082  0.3199 -0.7471  0.5762
 5901TIP3    H139118   6.661   1.622   4.161 -1.0269  1.8947  0.9207
 5901TIP3    H239119   6.520   1.597   4.111 -0.4161  1.9045 -0.8481
 5902TIP3   OH239120   3.198   1.073   0.187 -0.0812 -0.0013  0.3750
 5902TIP3    H139121   3.175   0.986   0.218  0.4053 -0.7334 -1.2340
 5902TIP3    H239122   3.288   1.065   0.156 -0.1541  0.9718 -0.1512
 5903TIP3   OH239123   2.724   4.212   4.225 -0.3266 -0.5954  0.3903
 5903TIP3    H139124   2.742   4.172   4.140  0.5916  0.2592  0.1555
 5903TIP3    H239125   2.810   4.225   4.264 -0.6813 -0.0834  1.0247
 5904TIP3   OH239126   4.056   1.964  13.339 -0.0882  0.0058 -0.0664
 5904TIP3    H139127   4.070   1.993  13.249 -3.2405 -0.7452 -0.9134
 5904TIP3    H239128   4.073   1.870  13.337  0.7538  0.1419  0.3701
 5905TIP3   OH239129   2.912   2.810  13.857 -0.3811 -0.1187  0.4765
 5905TIP3    H139130   2.878   2.750  13.923 -0.9721  1.0259  1.2173
 5905TIP3    H239131   2.987   2.763  13.820 -0.8524 -1.3334  1.0054
 5906TIP3   OH239132   4.171   0.841   0.758  0.3807  0.1939  0.8447
 5906TIP3    H139133   4.128   0.901   0.697 -0.8044 -0.2949  1.1739
 5906TIP3    H239134   4.131   0.755   0.740  0.5328 -0.0927  1.8069
 5907TIP3   OH239135   5.602   0.393  16.006  0.0863 -0.0251  0.3773
 5907TIP3    H139136   5.535   0.458  16.026 -1.2492 -0.4696 -2.1528
 5907TIP3    H239137   5.581   0.318  16.062 -1.0867  0.1206  0.1518
 5908TIP3   OH239138   2.596   3.010  15.156  0.6977  0.2518 -0.4104
 5908TIP3    H139139   2.560   3.058  15.081  3.3131  1.2490 -1.1305
 5908TIP3    H239140   2.660   3.070  15.195  1.7342 -1.4548  0.6411
 5909TIP3   OH239141   2.736   1.501  16.200 -0.5838  0.3561  0.4871
 5909TIP3    H139142   2.692   1.524  16.118  1.2617  0.8011 -0.4262
 5909TIP3    H239143   2.691   1.422  16.230 -1.6942  0.5363 -0.6238
 5910TIP3   OH239144   3.310   0.668  10.477 -0.3627  0.4417 -0.0671
 5910TIP3    H139145   3.401   0.641  10.463 -0.0675  1.3097  0.1152
 5910TIP3    H239146   3.261   0.586  10.485  0.3767 -0.0298 -0.3444
 5911TIP3   OH239147   0.415   3.865  11.978  0.1207  0.1367 -0.3001
 5911TIP3    H139148   0.466   3.786  11.957 -0.4921 -0.3683  0.0903
 5911TIP3    H239149   0.338   3.859  11.921 -1.1702 -0.8456  1.4410
 5912TIP3   OH239150   5.817   1.819  11.627  0.0838  0.0774 -0.3095
 5912TIP3    H139151   5.896   1.786  11.671 -1.3587  0.2728  2.6628
 5912TIP3    H239152   5.823   1.914  11.634  0.6116  0.2213 -2.1456
 5913TIP3   OH239153   4.737   5.490  15.553  0.5578 -1.0730 -0.3026
 5913TIP3    H139154   4.829   5.471  15.571  0.5599  0.2632  1.3675
 5913TIP3    H239155   4.736   5.582  15.528 -0.2263 -1.3382 -1.3240
 5914TIP3   OH239156   3.769   5.199  13.756 -0.0239  0.1216  0.1171
 5914TIP3    H139157   3.798   5.158  13.675 -0.1253  1.0886 -0.4325
 5914TIP3    H239158   3.789   5.292  13.744 -0.2274  0.3058  1.1215
 5915TIP3   OH239159   5.304   2.524   3.204  0.1484  0.2363  0.3282
 5915TIP3    H139160   5.371   2.490   3.145 -0.2516  1.1023 -0.6499
 5915TIP3    H239161   5.323   2.618   3.210  1.0601 -0.0051  2.7379
 5916TIP3   OH239162   6.103   2.682  15.193  0.1914 -0.3619 -0.5125
 5916TIP3    H139163   6.029   2.670  15.253 -0.6360  1.9378 -0.9499
 5916TIP3    H239164   6.073   2.648  15.109 -0.9537  1.7384 -1.0172
 5917TIP3   OH239165   2.706   2.595   1.576 -0.0256  0.2643  0.1020
 5917TIP3    H139166   2.674   2.668   1.629  0.7186  0.9233 -0.3269
 5917TIP3    H239167   2.773   2.634   1.520 -0.9918 -0.3421 -1.5530
 5918TIP3   OH239168   4.970   6.681  13.732 -0.1604  0.0804 -0.0532
 5918TIP3    H139169   4.961   6.586  13.722  0.2424  0.0079  0.2567
 5918TIP3    H239170   4.925   6.700  13.814 -1.4237  0.3519 -0.7793
 5919TIP3   OH239171   4.718   0.356   3.701  0.0388 -0.1006 -0.4529
 5919TIP3    H139172   4.778   0.291   3.738  2.4551  1.4922 -1.2986
 5919TIP3    H239173   4.748   0.367   3.610 -1.4678  0.8974 -0.8767
 5920TIP3   OH239174   5.539   5.405   4.678  0.1157  0.6090 -0.0988
 5920TIP3    H139175   5.517   5.388   4.770  0.7140 -2.7093 -0.4641
 5920TIP3    H239176   5.461   5.378   4.630  1.0188 -0.9876 -0.7270
 5921TIP3   OH239177   0.043   6.679   0.468 -0.7726 -0.0440 -0.3861
 5921TIP3    H139178   0.110   6.659   0.402 -2.2620 -2.3580 -1.3334
 5921TIP3    H239179   0.092   6.711   0.543  1.3552 -1.0864 -1.2458
 5922TIP3   OH239180   0.567   0.073   5.459 -0.4545  0.1800  0.0187
 5922TIP3    H139181   0.632   0.004   5.454  0.9775  1.5175 -0.6404
 5922TIP3    H239182   0.617   0.153   5.476 -2.1905  0.8605  2.5427
 5923TIP3   OH239183   2.857   0.287  15.774 -0.1245  0.2549 -0.3528
 5923TIP3    H139184   2.906   0.315  15.852  2.2371  1.2697 -2.0823
 5923TIP3    H239185   2.793   0.357  15.760  1.7030  1.8670 -1.1724
 5924TIP3   OH239186   0.675   1.325  16.394  0.3378  0.2873 -0.6581
 5924TIP3    H139187   0.741   1.338  16.463 -1.3109 -1.3300  1.3317
 5924TIP3    H239188   0.620   1.403  16.399  2.0725  1.7489 -2.4670
 5925TIP3   OH239189   0.107   1.427  11.432  0.1671  0.1554  0.4831
 5925TIP3    H139190   0.063   1.465  11.356 -0.5432  0.7169  1.1598
 5925TIP3    H239191   0.054   1.454  11.507  2.0639  1.4840  1.4251
 5926TIP3   OH239192   0.100   4.480  12.916 -0.4476 -0.3888 -0.3180
 5926TIP3    H139193   0.190   4.463  12.945 -0.0502  1.0402 -0.6120
 5926TIP3    H239194   0.078   4.406  12.860  0.1701 -1.2576  0.5468
 5927TIP3   OH239195   0.201   1.470   4.318  0.2367  0.5127  0.0004
 5927TIP3    H139196   0.270   1.510   4.372  1.3329  0.4546 -1.3109
 5927TIP3    H239197   0.239   1.388   4.287 -1.1118 -0.4186  0.7159
 5928TIP3   OH239198   0.790   1.174   0.951  0.1389 -0.0367  0.6768
 5928TIP3    H139199   0.757   1.256   0.914  0.3442 -0.0072  0.5573
 5928TIP3    H239200   0.764   1.177   1.043  1.4811  0.8902  1.0619
 5929TIP3   OH239201   1.663   3.247  13.149 -0.3015 -0.3488 -0.3313
 5929TIP3    H139202   1.757   3.249  13.169  0.1368  0.5317 -2.2478
 5929TIP3    H239203   1.621   3.268  13.233  1.2298 -0.1047  0.4175
 5930TIP3   OH239204   6.034   1.945  17.094  0.7989  0.5610 -0.1535
 5930TIP3    H139205   6.076   1.907  17.016  0.9819  2.3245 -0.9535
 5930TIP3    H239206   5.955   1.988  17.060  0.2487  0.3479  0.8207
 5931TIP3   OH239207   3.133   1.483  16.735  0.2110  0.2451  0.4381
 5931TIP3    H139208   3.218   1.456  16.771  0.7890  1.2151 -0.1314
 5931TIP3    H239209   3.155   1.554  16.674 -1.0879  1.0422  0.8642
 5932TIP3   OH239210   1.778   1.437   4.777 -0.2055  0.2879  0.5130
 5932TIP3    H139211   1.827   1.489   4.713  1.5989  0.2071  1.7561
 5932TIP3    H239212   1.763   1.498   4.850  0.5733 -0.4868  1.3368
 5933TIP3   OH239213   3.075   5.930   3.675  0.1328 -0.8635 -0.1246
 5933TIP3    H139214   3.078   5.958   3.583  1.1278  0.1856  0.1971
 5933TIP3    H239215   3.163   5.900   3.694  0.1132 -0.4666  0.6557
 5934TIP3   OH239216   5.863   5.823   2.634 -0.0048 -0.2329 -0.1422
 5934TIP3    H139217   5.851   5.897   2.574  2.1719 -0.1990 -0.6399
 5934TIP3    H239218   5.914   5.859   2.706  2.0626 -1.4147 -0.9179
 5935TIP3   OH239219   5.943   2.092   4.928  0.2862 -0.3720 -0.0482
 5935TIP3    H139220   5.914   2.002   4.947  1.8330 -0.8925 -0.0304
 5935TIP3    H239221   6.032   2.096   4.962  0.0073  1.3994  0.5501
 5936TIP3   OH239222   0.168   5.506   1.157 -0.1784  0.3762  0.4182
 5936TIP3    H139223   0.212   5.575   1.207  2.4414 -1.6388  1.1506
 5936TIP3    H239224   0.102   5.552   1.106  0.6164  3.2377  1.7342
 5937TIP3   OH239225   3.342   5.640   5.785  0.1740 -0.2313 -0.4228
 5937TIP3    H139226   3.332   5.642   5.880  1.5945  1.5931 -0.2853
 5937TIP3    H239227   3.430   5.606   5.770  1.4444  2.9747 -0.8977
 5938TIP3   OH239228   5.262   5.676  16.507 -0.4127  0.1374  0.0825
 5938TIP3    H139229   5.336   5.733  16.529  2.0939 -2.6839 -0.3757
 5938TIP3    H239230   5.238   5.701  16.418 -1.4811  2.4774  0.9657
 5939TIP3   OH239231   4.424   2.025  14.851 -0.0115 -0.0730  0.1870
 5939TIP3    H139232   4.392   1.943  14.814 -0.1869  0.3119 -0.5427
 5939TIP3    H239233   4.397   2.092  14.787 -0.1698  0.5894  0.9336
 5940TIP3   OH239234   4.563   2.236  13.555  0.3490 -0.4341 -0.1488
 5940TIP3    H139235   4.515   2.158  13.527 -1.8698  1.1287 -1.0704
 5940TIP3    H239236   4.532   2.252  13.645  2.0674 -1.4771  0.6766
 5941TIP3   OH239237   4.319   1.540  14.685  0.2618  0.0195  0.4891
 5941TIP3    H139238   4.229   1.514  14.703  0.9242 -2.2381  0.8514
 5941TIP3    H239239   4.322   1.552  14.590 -0.2188 -0.7785  0.3645
 5942TIP3   OH239240   1.976   1.226   2.256 -0.3400 -0.4902  0.4777
 5942TIP3    H139241   1.896   1.273   2.234 -0.1264 -0.2240  0.2717
 5942TIP3    H239242   1.953   1.133   2.247 -0.9135 -0.4500  1.4011
 5943TIP3   OH239243   6.090   4.832   2.025 -0.4879 -0.3243  0.0541
 5943TIP3    H139244   6.111   4.902   2.086 -0.3588  0.6967 -1.1152
 5943TIP3    H239245   6.170   4.781   2.017  0.0856  0.6562 -0.6683
 5944TIP3   OH239246   4.462   0.593  14.615 -0.5455 -0.0816 -0.0098
 5944TIP3    H139247   4.509   0.632  14.541 -1.1586  0.8428  0.0773
 5944TIP3    H239248   4.520   0.605  14.690  0.5891 -2.0342 -0.5101
 5945TIP3   OH239249   2.001   3.634   4.548 -0.1191  0.6638 -0.2405
 5945TIP3    H139250   2.069   3.671   4.604  0.2173 -0.7127  0.3102
 5945TIP3    H239251   2.041   3.555   4.511 -1.4589 -0.2449  0.2004
 5946TIP3   OH239252   1.122   5.167   4.130 -0.1686 -0.3297 -0.3602
 5946TIP3    H139253   1.188   5.186   4.197  0.6897 -1.2622 -0.9267
 5946TIP3    H239254   1.159   5.201   4.049 -1.1445  0.6673 -0.4100
 5947TIP3   OH239255   4.036   2.375  13.806 -0.4164 -0.1382 -0.3978
 5947TIP3    H139256   4.063   2.401  13.718  0.7221 -0.9313 -0.3143
 5947TIP3    H239257   3.947   2.407  13.814 -0.0072  1.3207 -1.2557
 5948TIP3   OH239258   1.969   5.871   5.770  0.2280 -0.0220 -0.1808
 5948TIP3    H139259   2.015   5.796   5.807 -2.0767 -1.8903 -0.8470
 5948TIP3    H239260   1.999   5.875   5.679  0.8534  0.3227  0.0323
 5949TIP3   OH239261   0.293   2.763   3.777 -0.2419  0.1537  0.8293
 5949TIP3    H139262   0.311   2.850   3.811  0.1531  1.1748 -1.8022
 5949TIP3    H239263   0.324   2.765   3.686  0.6785 -3.0306  0.9444
 5950TIP3   OH239264   1.295   4.448   4.141 -0.6279 -0.0912  0.1305
 5950TIP3    H139265   1.293   4.539   4.111 -1.1734 -0.5267 -1.2482
 5950TIP3    H239266   1.248   4.400   4.073 -3.6411 -0.9225  2.6086
 5951TIP3   OH239267   1.839   3.151   5.602 -0.7529 -0.0061  0.1806
 5951TIP3    H139268   1.761   3.124   5.553  0.0010  0.0991 -1.1385
 5951TIP3    H239269   1.841   3.246   5.592 -0.3123 -0.0360 -0.0345
 5952TIP3   OH239270   6.545   0.875   3.499 -0.2036  0.4236  0.9850
 5952TIP3    H139271   6.627   0.917   3.523 -0.1934  1.0350 -0.0687
 5952TIP3    H239272   6.506   0.933   3.433 -1.3414 -0.0003  1.2577
 5953TIP3   OH239273   3.028   0.795  13.621 -0.1488  0.2360  0.0506
 5953TIP3    H139274   3.042   0.737  13.546 -1.7640 -0.7759  0.4882
 5953TIP3    H239275   2.994   0.737  13.690 -1.4712  1.6303  0.6161
 5954TIP3   OH239276   1.802   5.432   5.386 -0.1679  0.8139  0.9530
 5954TIP3    H139277   1.715   5.433   5.425 -0.4384  2.4650  0.3680
 5954TIP3    H239278   1.861   5.444   5.460 -0.4258 -0.1769  1.3343
 5955TIP3   OH239279   5.030   3.416   4.097 -0.5782  0.4373 -0.2615
 5955TIP3    H139280   5.025   3.320   4.099 -0.7946  0.4531  0.0206
 5955TIP3    H239281   5.018   3.443   4.188  0.2323  0.7058 -0.2244
 5956TIP3   OH239282   4.981   2.342   0.176 -0.0938  0.1060 -0.2137
 5956TIP3    H139283   5.021   2.424   0.204  1.5470 -1.3937  2.2487
 5956TIP3    H239284   5.016   2.327   0.088  0.6950  1.3464 -0.1388
 5957TIP3   OH239285   2.895   1.716  15.024  0.0366  0.6856  0.0708
 5957TIP3    H139286   2.934   1.653  15.085  0.5112 -0.0416 -0.9523
 5957TIP3    H239287   2.970   1.759  14.984  0.0479 -2.0695 -3.3467
 5958TIP3   OH239288   2.343   2.000   3.656  0.6127 -0.2407  0.4467
 5958TIP3    H139289   2.327   1.987   3.563  0.6853  0.8330  0.2651
 5958TIP3    H239290   2.331   1.914   3.695 -2.2275 -0.1897 -0.1315
 5959TIP3   OH239291   2.690   1.096  13.650  0.1702  0.0588  0.4033
 5959TIP3    H139292   2.675   1.002  13.662  1.2149 -0.1483  0.2412
 5959TIP3    H239293   2.762   1.116  13.710 -0.1093  0.7841  0.5050
 5960TIP3   OH239294   1.830   0.512  15.140 -0.9586 -0.2392 -0.0034
 5960TIP3    H139295   1.852   0.422  15.116  0.8350  0.5360 -1.5464
 5960TIP3    H239296   1.886   0.566  15.084 -3.3526  1.8845 -0.5152
 5961TIP3   OH239297   1.291   6.716   1.062  0.1109  0.1019  0.2355
 5961TIP3    H139298   1.277   6.810   1.055 -0.5988  0.0561  0.8043
 5961TIP3    H239299   1.364   6.697   1.004 -0.0858  0.9220 -0.2915
 5962TIP3   OH239300   4.179   1.701  13.672 -0.0736  0.1478 -0.0554
 5962TIP3    H139301   4.101   1.736  13.716  1.4882 -0.5715  3.6970
 5962TIP3    H239302   4.222   1.777  13.634 -1.6755  0.7945 -0.6471
 5963TIP3   OH239303   4.843   4.204  11.323  0.6518 -0.5696  0.1405
 5963TIP3    H139304   4.865   4.206  11.230 -0.1813  1.8121 -0.0586
 5963TIP3    H239305   4.792   4.123  11.333  2.0529 -1.6828 -1.1005
 5964TIP3   OH239306   5.554   4.392   5.857 -0.7337 -0.2652  0.1410
 5964TIP3    H139307   5.601   4.321   5.899 -0.7693  0.8680  2.1921
 5964TIP3    H239308   5.622   4.453   5.828 -0.8195  0.1575  0.8223
 5965TIP3   OH239309   0.664   5.554  11.893  0.4535 -0.0687  0.3141
 5965TIP3    H139310   0.579   5.573  11.852  0.5846 -0.4338 -0.1271
 5965TIP3    H239311   0.729   5.581  11.828  0.6890  0.4899  0.7690
 5966TIP3   OH239312   5.147   0.826   4.195 -0.4618 -0.2417  0.1912
 5966TIP3    H139313   5.115   0.744   4.159  1.0507 -0.6493 -0.3015
 5966TIP3    H239314   5.126   0.892   4.128 -3.3717  0.1907  1.3808
 5967TIP3   OH239315   6.295   5.964   0.224  0.2085  0.4560  0.1569
 5967TIP3    H139316   6.254   5.995   0.305 -0.9266 -1.0731  0.2113
 5967TIP3    H239317   6.221   5.933   0.170  1.1921 -1.5982 -0.1006
 5968TIP3   OH239318   4.889   6.707  17.172  0.3020  0.2962 -0.3514
 5968TIP3    H139319   4.861   6.778  17.229  0.5028  0.3368 -0.3041
 5968TIP3    H239320   4.932   6.751  17.099 -1.1722  0.3361 -1.2467
 5969TIP3   OH239321   5.829   4.919  13.446 -0.1724  0.4054 -0.4011
 5969TIP3    H139322   5.870   4.837  13.419 -2.8278 -0.6372 -1.5229
 5969TIP3    H239323   5.853   4.928  13.538  2.2934 -0.2316 -0.9004
 5970TIP3   OH239324   1.197   5.885   1.791  0.3502  0.2002  0.2422
 5970TIP3    H139325   1.265   5.921   1.734  0.4018 -0.2321  0.0258
 5970TIP3    H239326   1.196   5.792   1.770 -2.6131  0.6210 -2.2299
 5971TIP3   OH239327   0.661   4.731  11.268  0.4905 -0.1562  0.2632
 5971TIP3    H139328   0.575   4.761  11.238  0.2633 -1.3649 -0.3865
 5971TIP3    H239329   0.723   4.791  11.227  0.0155 -0.0563 -0.3329
 5972TIP3   OH239330   4.218   2.560  15.497 -0.6662  0.6317 -0.5053
 5972TIP3    H139331   4.290   2.502  15.475  0.1794  1.2803  0.4625
 5972TIP3    H239332   4.143   2.526  15.448  0.3021 -0.0270 -1.5635
 5973TIP3   OH239333   1.310   0.464   0.149  0.4199 -0.2838 -0.6531
 5973TIP3    H139334   1.215   0.463   0.134  0.3796  0.1358 -0.4518
 5973TIP3    H239335   1.326   0.387   0.203  0.0982 -0.0259 -0.1736
 5974TIP3   OH239336   6.382   3.097   1.686 -0.1517 -0.4593  0.2790
 5974TIP3    H139337   6.427   3.027   1.638  0.0456 -1.4683  1.8568
 5974TIP3    H239338   6.289   3.076   1.677 -0.1805 -0.0244 -0.5411
 5975TIP3   OH239339   4.927   6.688   1.728  0.1978  0.3491 -0.2466
 5975TIP3    H139340   4.960   6.615   1.779 -0.4445 -0.0050 -0.3288
 5975TIP3    H239341   4.936   6.764   1.787  1.0116  0.2362 -0.2232
 5976TIP3   OH239342   4.262   4.037  15.836 -0.4204 -0.5623 -0.7578
 5976TIP3    H139343   4.278   4.131  15.828 -1.0509 -0.3231  0.6009
 5976TIP3    H239344   4.269   4.004  15.746 -1.4172  0.9862 -1.4412
 5977TIP3   OH239345   0.207   6.241  11.845 -0.2176 -0.1537  0.1809
 5977TIP3    H139346   0.119   6.213  11.870  0.7630 -2.3468  1.5331
 5977TIP3    H239347   0.210   6.229  11.750 -0.6313 -2.5747  0.4029
 5978TIP3   OH239348   0.654   1.317   6.143 -0.6289  0.0531 -0.3638
 5978TIP3    H139349   0.737   1.297   6.101 -0.8072 -0.5198 -0.4504
 5978TIP3    H239350   0.677   1.341   6.233 -0.3368  0.2979 -0.5039
 5979TIP3   OH239351   4.676   3.094  15.087 -0.2677  0.3780 -0.0716
 5979TIP3    H139352   4.612   3.165  15.078 -2.4162 -0.9401  3.0436
 5979TIP3    H239353   4.725   3.116  15.166 -1.2091 -1.6781  1.1537
 5980TIP3   OH239354   5.010   5.963  12.861  0.0220 -0.3470  0.1311
 5980TIP3    H139355   5.028   6.049  12.899  2.0346 -0.9382  0.6113
 5980TIP3    H239356   4.919   5.969  12.831  0.1379  1.9804  0.0497
 5981TIP3   OH239357   1.300   0.692   2.748 -0.0431 -0.0238 -0.1732
 5981TIP3    H139358   1.316   0.621   2.686  0.4682 -0.5377  0.5312
 5981TIP3    H239359   1.250   0.651   2.819 -1.4369  0.7635 -0.6580
 5982TIP3   OH239360   2.101   3.225   0.569 -0.0074  0.2529  0.4890
 5982TIP3    H139361   2.195   3.231   0.588  0.4983  1.4378 -2.0135
 5982TIP3    H239362   2.074   3.314   0.548 -1.5632 -0.1782  0.5113
 5983TIP3   OH239363   4.525   1.698  15.361  0.5454 -0.0635 -0.1179
 5983TIP3    H139364   4.451   1.649  15.398 -0.8022  1.3876 -0.8248
 5983TIP3    H239365   4.594   1.632  15.352 -0.2446 -1.2230  1.6288
 5984TIP3   OH239366   5.017   6.518   4.595 -0.7694 -0.5341  0.3498
 5984TIP3    H139367   4.924   6.504   4.610 -1.0252  0.5896 -0.1390
 5984TIP3    H239368   5.055   6.521   4.683 -1.4387  0.6294  0.6110
 5985TIP3   OH239369   2.253   6.679  16.592  0.6207  0.3162  0.4416
 5985TIP3    H139370   2.324   6.712  16.647 -0.7493 -0.8359  3.0601
 5985TIP3    H239371   2.174   6.693  16.643 -0.9172  0.2864 -1.8101
 5986TIP3   OH239372   0.543   4.791  14.998 -0.1387 -0.3925 -0.3654
 5986TIP3    H139373   0.599   4.869  15.004 -1.1312  0.3215 -0.2403
 5986TIP3    H239374   0.573   4.735  15.069  1.2245 -0.5649 -1.0417
 5987TIP3   OH239375   5.844   6.314   2.706 -0.7043  0.1830  0.6545
 5987TIP3    H139376   5.847   6.407   2.683 -1.6879  0.0877  0.1173
 5987TIP3    H239377   5.752   6.297   2.727 -0.5582 -0.7060  0.6161
 5988TIP3   OH239378   1.098   5.440  12.032 -0.1964  0.0367 -0.0578
 5988TIP3    H139379   1.012   5.451  12.072 -0.0134 -0.2205  0.4175
 5988TIP3    H239380   1.133   5.360  12.071  0.5700  0.5459  0.3336
 5989TIP3   OH239381   3.922   3.515  12.844 -0.3569  0.3554 -0.6201
 5989TIP3    H139382   3.957   3.545  12.760  0.9310 -0.7645 -0.5074
 5989TIP3    H239383   3.921   3.420  12.838 -3.0964  0.3048 -0.4579
 5990TIP3   OH239384   2.222   2.365   1.083 -0.0788  0.2979  0.0784
 5990TIP3    H139385   2.222   2.339   0.991  0.2694  2.2638 -0.5328
 5990TIP3    H239386   2.132   2.349   1.112 -0.0705 -0.7853 -0.4566
 5991TIP3   OH239387   3.626   0.905  15.956 -0.0565 -0.5592 -0.1375
 5991TIP3    H139388   3.704   0.941  15.913  0.1781 -0.2855  0.5146
 5991TIP3    H239389   3.660   0.841  16.018 -0.2890  0.1205  0.7088
 5992TIP3   OH239390   3.563   0.468   3.104 -0.5890 -0.1407 -0.0037
 5992TIP3    H139391   3.516   0.391   3.135 -1.4772  0.3954  0.0273
 5992TIP3    H239392   3.502   0.541   3.119  0.5319  0.6906  0.7230
 5993TIP3   OH239393   6.390   3.257  16.446 -0.4797  0.4712 -0.0963
 5993TIP3    H139394   6.403   3.239  16.539  0.1263  0.7332 -0.1286
 5993TIP3    H239395   6.450   3.197  16.402 -1.8397 -0.7408 -0.4002
 5994TIP3   OH239396   0.297   2.152   0.863 -0.4455 -0.1112  0.7996
 5994TIP3    H139397   0.344   2.075   0.896  0.9069  0.6783  0.7757
 5994TIP3    H239398   0.325   2.224   0.920 -1.9602  0.3147  1.0367
 5995TIP3   OH239399   0.616   3.304  13.065 -0.5560  0.2664 -0.5442
 5995TIP3    H139400   0.686   3.365  13.041 -1.1159 -0.0154 -3.2437
 5995TIP3    H239401   0.657   3.218  13.061 -0.3605  0.2609  0.9127
 5996TIP3   OH239402   2.797   4.053   5.211  0.5748  0.6278 -0.1204
 5996TIP3    H139403   2.724   4.109   5.188  0.3399  0.3394 -0.0866
 5996TIP3    H239404   2.875   4.101   5.183  0.3705  0.9176 -0.1894
 5997TIP3   OH239405   0.713   1.625  13.939  0.3234 -0.1746 -0.2431
 5997TIP3    H139406   0.713   1.534  13.910  0.1926  0.0708 -1.0369
 5997TIP3    H239407   0.706   1.619  14.034  0.6538 -0.9970 -0.2574
 5998TIP3   OH239408   4.383   5.045  12.417 -0.2908 -0.4950 -0.3361
 5998TIP3    H139409   4.335   5.124  12.442  1.7437  0.9415 -0.7231
 5998TIP3    H239410   4.475   5.069  12.423  0.3945 -2.2391 -2.3252
 5999TIP3   OH239411   0.924   3.796  12.225  0.2025 -0.3117  0.2544
 5999TIP3    H139412   0.886   3.827  12.307  0.4816 -1.3882  0.7972
 5999TIP3    H239413   0.853   3.748  12.182 -0.0132  0.4379 -0.2597
 6000TIP3   OH239414   0.050   5.522  11.823 -0.3126  0.4692  0.3193
 6000TIP3    H139415   0.040   5.560  11.910 -1.1674 -0.5947  0.7075
 6000TIP3    H239416  -0.036   5.530  11.783  0.2428  1.6049 -0.7378
 6001TIP3   OH239417   2.919   0.021   3.249 -0.2673 -0.0583  0.3524
 6001TIP3    H139418   2.944  -0.005   3.161 -1.9374 -0.3990 -0.0573
 6001TIP3    H239419   2.832  -0.016   3.262  0.5652 -1.3948  2.7664
 6002TIP3   OH239420   2.026   5.272   3.511 -0.0717  0.0115 -0.7274
 6002TIP3    H139421   1.998   5.362   3.529 -0.4850 -0.1175 -0.7239
 6002TIP3    H239422   2.075   5.246   3.589  0.6813  0.4876 -1.0322
 6003TIP3   OH239423   1.080   4.743  10.981  0.1669  0.5314  0.2360
 6003TIP3    H139424   1.041   4.697  10.907  0.0877 -1.4998  1.4538
 6003TIP3    H239425   1.174   4.745  10.961  0.0974  0.3348 -0.1101
 6004TIP3   OH239426   5.071   0.158  14.958 -0.6347  0.2326  0.2193
 6004TIP3    H139427   5.064   0.150  15.053 -1.4976 -0.5148  0.1071
 6004TIP3    H239428   5.080   0.068  14.926  1.5340  0.5863 -0.3029
 6005TIP3   OH239429   0.190   4.839   4.548  0.4304  0.0684  0.0146
 6005TIP3    H139430   0.278   4.807   4.529  0.3527  0.9880 -2.1823
 6005TIP3    H239431   0.198   4.935   4.542 -0.7502  0.1514 -0.3990
 6006TIP3   OH239432   4.964   4.743  11.416 -0.1670 -0.2072 -0.4372
 6006TIP3    H139433   4.920   4.823  11.442 -0.1468 -0.4028  0.2171
 6006TIP3    H239434   4.983   4.698  11.498  1.8365  0.1744 -0.6427
 6007TIP3   OH239435   5.262   5.522   2.688 -0.0092  0.1926 -0.0674
 6007TIP3    H139436   5.257   5.590   2.621  0.6429 -0.2547 -0.5804
 6007TIP3    H239437   5.186   5.539   2.744 -1.1257  0.0195 -1.4491
 6008TIP3   OH239438   2.484   0.121  12.026 -0.0963 -0.0977  0.4829
 6008TIP3    H139439   2.425   0.094  11.955 -0.4308 -0.5859  0.9387
 6008TIP3    H239440   2.439   0.195  12.068 -1.2743 -1.5703  1.9461
 6009TIP3   OH239441   1.910   3.352  11.518 -0.1908 -0.4029 -0.3795
 6009TIP3    H139442   1.938   3.275  11.569  1.5609  0.3542 -0.1431
 6009TIP3    H239443   1.982   3.368  11.458  0.4126  2.2209  0.9045
 6010TIP3   OH239444   1.641   4.849   6.058 -0.2615  0.0018  0.0047
 6010TIP3    H139445   1.596   4.824   6.139 -0.7932 -0.3782 -0.4064
 6010TIP3    H239446   1.699   4.921   6.084 -0.6590  0.0910  0.6575
 6011TIP3   OH239447   0.247   1.690   5.132 -0.2027  0.0215  0.0890
 6011TIP3    H139448   0.174   1.634   5.106 -2.1666  2.2276  0.5154
 6011TIP3    H239449   0.280   1.650   5.213 -0.4103 -1.4357 -0.5142
 6012TIP3   OH239450   2.351   2.226  16.928  0.1871  0.1065 -0.5503
 6012TIP3    H139451   2.257   2.226  16.911  0.3755 -0.4458 -1.6800
 6012TIP3    H239452   2.361   2.280  17.007 -0.9307  1.2587 -1.1647
 6013TIP3   OH239453   3.219   3.034  14.763 -0.6171  0.5415 -0.4689
 6013TIP3    H139454   3.188   3.104  14.820  0.1652  0.3718  0.1776
 6013TIP3    H239455   3.162   2.959  14.783 -1.6763  1.0695 -1.4071
 6014TIP3   OH239456   5.601   5.379   5.459 -0.4782 -0.1160 -0.1045
 6014TIP3    H139457   5.606   5.474   5.449 -2.2981 -0.0650 -0.8264
 6014TIP3    H239458   5.689   5.353   5.488 -0.1816  1.8710  0.9298
 6015TIP3   OH239459   4.398   2.451   4.212  0.6732  0.1836  0.5260
 6015TIP3    H139460   4.420   2.512   4.282  2.3838  1.8861 -1.3640
 6015TIP3    H239461   4.318   2.407   4.242  1.1769  1.0222  3.3636
 6016TIP3   OH239462   5.116   2.254  12.582 -0.2082  0.6163  0.1198
 6016TIP3    H139463   5.098   2.275  12.490 -0.3365 -0.4134 -0.0945
 6016TIP3    H239464   5.126   2.340  12.624 -0.4129  1.1031 -0.7973
 6017TIP3   OH239465   4.128   0.158   5.568  0.5380 -0.4256 -0.1177
 6017TIP3    H139466   4.069   0.083   5.561  0.6464 -0.6554  1.2518
 6017TIP3    H239467   4.120   0.186   5.659  1.3188  0.5563 -0.3441
 6018TIP3   OH239468   6.401   5.243   6.670 -0.2000 -0.3550 -0.8680
 6018TIP3    H139469   6.327   5.234   6.730 -0.1034  2.8157 -0.0931
 6018TIP3    H239470   6.475   5.204   6.717 -0.2520  1.5362  0.9153
 6019TIP3   OH239471   3.836   3.648   4.190 -0.0597  0.0437  0.3981
 6019TIP3    H139472   3.894   3.584   4.149 -0.7519 -3.0236  3.7681
 6019TIP3    H239473   3.760   3.653   4.131 -0.0493 -2.4406  0.0644
 6020TIP3   OH239474   3.198   0.709  16.136 -0.7601 -0.0820  0.0102
 6020TIP3    H139475   3.221   0.638  16.195 -1.8344 -0.3476  0.1219
 6020TIP3    H239476   3.230   0.788  16.180 -1.1431 -0.3199  0.7240
 6021TIP3   OH239477   2.735   2.004   3.474 -0.3772 -0.1082  0.4109
 6021TIP3    H139478   2.720   1.970   3.386  2.1558 -1.2680  0.3400
 6021TIP3    H239479   2.804   2.069   3.462  0.3088 -0.6000  1.5691
 6022TIP3   OH239480   5.543   0.932  12.718  0.1233 -0.3047  0.3310
 6022TIP3    H139481   5.463   0.895  12.682 -0.8030  2.7562 -1.0246
 6022TIP3    H239482   5.587   0.973  12.643  0.9238  1.5109  1.7152
 6023TIP3   OH239483   2.994   1.147   2.290 -0.0582 -0.2730  0.1609
 6023TIP3    H139484   3.013   1.053   2.284  0.4323 -0.1980  0.4853
 6023TIP3    H239485   2.947   1.167   2.209 -0.6322 -0.9047  0.3249
 6024TIP3   OH239486   1.903   0.628  12.218 -0.5712  1.3403 -0.8135
 6024TIP3    H139487   1.979   0.679  12.191  2.2105 -1.2734  1.4304
 6024TIP3    H239488   1.891   0.648  12.310 -1.1577  0.0529 -0.5812
 6025TIP3   OH239489   4.737   3.706  14.787 -0.0309  0.5347  0.5698
 6025TIP3    H139490   4.729   3.786  14.838  0.0130  1.0689 -0.2451
 6025TIP3    H239491   4.746   3.736  14.697 -3.6580 -0.4442 -0.2588
 6026TIP3   OH239492   2.032   4.704   1.135 -0.1875 -0.0666 -0.2957
 6026TIP3    H139493   2.011   4.665   1.220 -1.8933  2.4984  0.5957
 6026TIP3    H239494   1.992   4.644   1.071 -0.7391 -0.9441  0.8304
 6027TIP3   OH239495   3.989   3.206   6.078  0.1438 -0.0361 -0.3270
 6027TIP3    H139496   3.906   3.247   6.101  0.0404  0.3752 -1.3653
 6027TIP3    H239497   4.023   3.172   6.160 -0.1872  1.3816  0.4267
 6028TIP3   OH239498   4.903   1.078   0.368 -0.3531  0.5336  0.7629
 6028TIP3    H139499   4.890   0.998   0.419 -2.3796  0.9311  0.9573
 6028TIP3    H239500   4.994   1.074   0.339 -0.5430 -2.1216  0.3017
 6029TIP3   OH239501   2.638   1.010   1.286 -0.0887  0.0790  0.8962
 6029TIP3    H139502   2.606   1.100   1.293  1.8229  0.7892  1.1660
 6029TIP3    H239503   2.560   0.956   1.298 -1.6048  1.6829 -0.9929
 6030TIP3   OH239504   0.550   0.962  11.786 -0.2385 -0.2271 -0.4219
 6030TIP3    H139505   0.526   0.960  11.693 -0.1597  0.2912 -0.4532
 6030TIP3    H239506   0.585   0.874  11.803  0.5988 -0.0353 -1.1092
 6031TIP3   OH239507   4.532   5.531  16.925  0.0638 -0.8130  0.5295
 6031TIP3    H139508   4.563   5.485  16.848  0.6005  0.5311 -0.0854
 6031TIP3    H239509   4.505   5.617  16.893 -2.8035 -1.3245  1.3020
 6032TIP3   OH239510   5.192   1.610   4.518  0.2722 -0.4260  0.0618
 6032TIP3    H139511   5.279   1.598   4.557  0.0893 -0.9171  0.3305
 6032TIP3    H239512   5.207   1.602   4.424  0.7462  0.9480  0.0057
 6033TIP3   OH239513   5.380   5.274   3.010 -0.0184 -0.3307 -0.4549
 6033TIP3    H139514   5.446   5.205   3.002 -0.9642 -1.3065 -0.0772
 6033TIP3    H239515   5.320   5.258   2.937 -1.1827 -0.9812  0.6012
 6034TIP3   OH239516   3.333   2.320   3.697 -0.2069  0.0069 -0.8225
 6034TIP3    H139517   3.276   2.247   3.723 -1.9891  2.0744  1.6236
 6034TIP3    H239518   3.417   2.301   3.740 -0.5782 -0.6995 -0.3864
 6035TIP3   OH239519   4.816   4.490  16.767 -0.1299  0.0701  0.5712
 6035TIP3    H139520   4.907   4.468  16.748  0.1145  0.1634  1.5289
 6035TIP3    H239521   4.794   4.559  16.705  0.2953 -0.2915  0.0169
 6036TIP3   OH239522   2.554   3.984   0.059  0.4251 -0.4163 -0.2025
 6036TIP3    H139523   2.583   4.027  -0.021 -2.0680  2.3479  0.2185
 6036TIP3    H239524   2.507   3.906   0.028 -0.3162  0.4913 -1.4594
 6037TIP3   OH239525   6.639   2.117   2.978  0.0307 -0.1639 -0.0574
 6037TIP3    H139526   6.555   2.073   2.968 -0.1145  0.2637 -0.8234
 6037TIP3    H239527   6.648   2.131   3.072  0.6794 -2.9452  0.3834
 6038TIP3   OH239528   1.997   0.225  13.836  0.3353 -0.1309  0.8166
 6038TIP3    H139529   1.992   0.131  13.851 -1.4232 -0.3681 -0.8773
 6038TIP3    H239530   1.934   0.262  13.897 -0.0497 -0.2093  0.4725
 6039TIP3   OH239531   6.732   3.385   3.110 -0.0859 -0.4266 -0.4081
 6039TIP3    H139532   6.682   3.406   3.032 -0.9252  2.7799  0.8329
 6039TIP3    H239533   6.817   3.355   3.078 -1.1015 -1.2723 -2.4866
 6040TIP3   OH239534   0.338   6.353   0.535 -0.4503  0.4218 -0.4975
 6040TIP3    H139535   0.335   6.449   0.526 -1.1914  0.4882  0.3301
 6040TIP3    H239536   0.247   6.326   0.528 -0.2604 -0.2076 -0.5309
 6041TIP3   OH239537   2.757   4.335  13.984  0.8383 -0.0645 -0.0718
 6041TIP3    H139538   2.765   4.256  14.038  1.0295  0.9220  1.3858
 6041TIP3    H239539   2.684   4.316  13.925 -0.5857 -0.5208  1.7392
 6042TIP3   OH239540   4.012   2.938  11.861 -0.0602  0.0971 -0.0182
 6042TIP3    H139541   4.059   2.941  11.778  0.5066 -0.2696  0.2852
 6042TIP3    H239542   4.046   2.861  11.905  1.1129  1.3564  1.4048
 6043TIP3   OH239543   3.902   3.267   5.228  0.0950  0.5427 -0.5836
 6043TIP3    H139544   3.838   3.297   5.164 -0.5692  1.0251  0.2833
 6043TIP3    H239545   3.928   3.346   5.275 -0.1745  0.0565  0.4014
 6044TIP3   OH239546   0.553   6.777   3.298  0.4636  0.0608 -0.1265
 6044TIP3    H139547   0.471   6.825   3.309 -0.2874 -1.3112  0.5208
 6044TIP3    H239548   0.581   6.798   3.209 -1.3068 -0.4857 -0.8715
 6045TIP3   OH239549   1.349   4.499  16.798  0.2748  0.3470 -0.1546
 6045TIP3    H139550   1.380   4.448  16.873  1.4314  1.0627 -0.1301
 6045TIP3    H239551   1.259   4.468  16.785  0.4549 -0.6547  0.7594
 6046TIP3   OH239552   5.887   6.230   5.608 -0.0017 -0.1229 -0.2395
 6046TIP3    H139553   5.941   6.188   5.676 -0.5414 -1.4744 -0.6099
 6046TIP3    H239554   5.894   6.323   5.627  0.8717 -0.3888  0.9178
 6047TIP3   OH239555   5.018   5.108   4.198 -0.5429 -0.4819 -0.3213
 6047TIP3    H139556   4.995   5.058   4.277 -0.5622 -0.6398 -0.4266
 6047TIP3    H239557   5.076   5.051   4.149 -0.3484 -0.2929 -0.3139
 6048TIP3   OH239558   0.557   5.605  16.065 -0.2704 -0.4835  0.2883
 6048TIP3    H139559   0.605   5.537  16.019 -0.2934 -0.5220  0.3202
 6048TIP3    H239560   0.579   5.592  16.157 -0.7478 -0.8330  0.3583
 6049TIP3   OH239561   5.464   3.214   1.211  0.0759  0.2597 -0.5493
 6049TIP3    H139562   5.370   3.232   1.216  0.0808  0.5823 -1.4807
 6049TIP3    H239563   5.469   3.118   1.202 -0.1071  0.1305  0.5793
 6050TIP3   OH239564   1.952   5.190   1.331 -0.6060 -0.2450  0.1789
 6050TIP3    H139565   1.914   5.272   1.299 -0.6476  0.1157  1.1170
 6050TIP3    H239566   2.043   5.193   1.303 -0.7330 -0.1113 -0.2213
 6051TIP3   OH239567   5.502   3.650  17.049  0.1472 -0.1105  0.2426
 6051TIP3    H139568   5.450   3.602  16.984  0.1618  0.7606 -0.4209
 6051TIP3    H239569   5.508   3.590  17.124 -2.9441  0.2394  0.8951
 6052TIP3   OH239570   2.888   4.744   1.435 -0.6053  0.7063 -0.2302
 6052TIP3    H139571   2.865   4.690   1.511  2.4967 -0.4044  0.0936
 6052TIP3    H239572   2.836   4.708   1.363 -1.9407  0.3076  0.8867
 6053TIP3   OH239573   3.491   5.446  13.654 -0.1290  0.3661  0.3225
 6053TIP3    H139574   3.450   5.480  13.574  2.4253  1.5920 -0.5852
 6053TIP3    H239575   3.471   5.353  13.654 -1.0748  0.5319 -1.1815
 6054TIP3   OH239576   0.578   6.222   3.886  0.3790  0.3463  0.4408
 6054TIP3    H139577   0.522   6.281   3.835  0.4390  1.0817  1.1952
 6054TIP3    H239578   0.517   6.176   3.944  0.4194  0.2918  0.4396
 6055TIP3   OH239579   1.307   6.731   3.083 -0.0161  1.0162  0.0862
 6055TIP3    H139580   1.234   6.671   3.074 -1.5315  2.6899  0.5948
 6055TIP3    H239581   1.363   6.712   3.008 -1.3900  0.2367 -0.7766
 6056TIP3   OH239582   5.946   5.547   3.727 -0.2355  0.6545  0.4619
 6056TIP3    H139583   6.001   5.495   3.669  1.7791  2.6220  0.4742
 6056TIP3    H239584   5.873   5.577   3.671  0.7769  1.1439 -0.6476
 6057TIP3   OH239585   6.615   5.293   4.505 -0.0351  0.4913 -0.1561
 6057TIP3    H139586   6.564   5.218   4.536 -2.9698  1.3876 -2.3913
 6057TIP3    H239587   6.648   5.266   4.420  0.6446  1.0455 -0.0736
 6058TIP3   OH239588   4.901   6.412  13.790 -0.3170 -0.5181  0.1325
 6058TIP3    H139589   4.898   6.359  13.711  1.1370 -1.3586  0.5966
 6058TIP3    H239590   4.979   6.382  13.836 -1.0753  0.0087  1.8503
 6059TIP3   OH239591   3.894   2.107  11.901  0.1378 -0.0408  0.6673
 6059TIP3    H139592   3.827   2.153  11.952 -0.3954  0.3397 -0.3440
 6059TIP3    H239593   3.968   2.168  11.897 -0.8787  1.1658 -1.3918
 6060TIP3   OH239594   1.775   5.474  14.112  0.0785  0.0418 -0.2819
 6060TIP3    H139595   1.816   5.502  14.030  1.5907 -1.1567  0.0197
 6060TIP3    H239596   1.794   5.545  14.174 -2.3422  1.6697 -1.2503
 6061TIP3   OH239597   4.673   4.891   0.900 -0.2230  0.1440  0.4121
 6061TIP3    H139598   4.640   4.859   0.816  0.0216 -0.3028  0.4824
 6061TIP3    H239599   4.599   4.883   0.960 -0.3414  0.2773  0.2821
 6062TIP3   OH239600   3.693   2.288   3.050 -0.1828 -0.2525 -0.5257
 6062TIP3    H139601   3.625   2.274   2.984  0.0068 -2.3088 -0.3631
 6062TIP3    H239602   3.770   2.245   3.014  0.3346 -0.1140  0.3878
 6063TIP3   OH239603   1.553   6.130   1.466 -0.1150 -0.1000  0.5783
 6063TIP3    H139604   1.644   6.152   1.448 -0.6952  0.4373 -2.2209
 6063TIP3    H239605   1.523   6.200   1.525  1.1127  0.0033  1.1111
 6064TIP3   OH239606   5.904   2.450   1.697 -0.0404  0.2893 -0.8953
 6064TIP3    H139607   5.981   2.495   1.733 -0.6292  1.2823 -0.8258
 6064TIP3    H239608   5.912   2.360   1.729  1.1102  0.3584 -0.9287
 6065TIP3   OH239609   3.508   1.945   0.910  0.2159  0.1955  0.6562
 6065TIP3    H139610   3.542   1.948   1.000 -0.9405  2.6364  1.0802
 6065TIP3    H239611   3.587   1.946   0.855  0.9703 -2.1224  1.5727
 6066TIP3   OH239612   3.101   3.667   0.154  0.0638  0.4446  0.2848
 6066TIP3    H139613   3.180   3.682   0.206  0.0355 -0.8831  0.7449
 6066TIP3    H239614   3.033   3.718   0.199  0.5340  1.1781  0.1799
 6067TIP3   OH239615   2.809   6.344  15.622 -0.2177  0.3655 -0.0613
 6067TIP3    H139616   2.875   6.309  15.563  0.8293  0.3972  1.0635
 6067TIP3    H239617   2.847   6.334  15.710 -1.3766  1.0954  0.5476
 6068TIP3   OH239618   6.148   2.919  12.194  0.1002 -0.5370  0.2931
 6068TIP3    H139619   6.166   3.010  12.169  0.2262 -1.4442 -3.5061
 6068TIP3    H239620   6.052   2.913  12.192 -0.0460 -0.0830  2.6659
 6069TIP3   OH239621   0.932   4.745   4.273 -0.0901  0.3675 -0.0971
 6069TIP3    H139622   0.979   4.683   4.329  0.5490  1.3669  0.4910
 6069TIP3    H239623   0.860   4.693   4.236 -1.9768  0.1430  3.3989
 6070TIP3   OH239624   5.288   3.355  14.579 -0.6530 -0.3185  0.5159
 6070TIP3    H139625   5.289   3.282  14.642 -0.4488 -0.1352  0.7234
 6070TIP3    H239626   5.219   3.331  14.517  0.0381 -1.1480  0.0417
 6071TIP3   OH239627   5.054   3.115  13.926  0.1370 -0.3837 -0.9884
 6071TIP3    H139628   5.020   3.067  13.850 -1.0672 -3.3524  1.2272
 6071TIP3    H239629   5.119   3.056  13.964  1.5721  1.5450 -0.2885
 6072TIP3   OH239630   3.801   3.255   4.145 -0.3467  0.2336  0.3494
 6072TIP3    H139631   3.715   3.296   4.135  0.7329  3.2320  2.0160
 6072TIP3    H239632   3.796   3.210   4.230 -0.4185 -0.0102  0.2160
 6073TIP3   OH239633   3.721   4.468  11.335  0.0294 -0.3864 -0.3215
 6073TIP3    H139634   3.720   4.551  11.382  0.8699 -1.0416  0.9136
 6073TIP3    H239635   3.809   4.464  11.296 -0.0224 -0.6743 -0.4118
 6074TIP3   OH239636   2.452   5.198   0.303 -0.0095 -0.3665  0.5632
 6074TIP3    H139637   2.454   5.116   0.253 -0.1459 -0.9697  1.5353
 6074TIP3    H239638   2.523   5.251   0.265 -0.0979 -0.8121 -0.2527
 6075TIP3   OH239639   1.387   5.110  12.109  0.0561 -0.3613 -0.7568
 6075TIP3    H139640   1.428   5.044  12.165 -0.3326 -0.5080 -0.6429
 6075TIP3    H239641   1.331   5.060  12.050 -2.8858  0.0105  1.4949
 6076TIP3   OH239642   0.556   3.968  11.364 -0.5220 -0.1503  0.4387
 6076TIP3    H139643   0.563   4.062  11.378  2.4561 -0.4182  1.4848
 6076TIP3    H239644   0.593   3.954  11.276 -2.5051 -0.2453 -0.4321
 6077TIP3   OH239645   4.454   4.485  14.242  0.6217 -0.1718 -0.0661
 6077TIP3    H139646   4.515   4.504  14.313 -0.8526  1.8882  0.7366
 6077TIP3    H239647   4.464   4.557  14.180 -2.5516  1.6482  1.2702
 6078TIP3   OH239648   4.371   3.171   3.699  1.0979 -0.1301 -0.0300
 6078TIP3    H139649   4.418   3.114   3.760  1.9692  0.0369 -0.5384
 6078TIP3    H239650   4.302   3.116   3.663  2.4005 -1.1240 -1.0923
 6079TIP3   OH239651   6.722   1.265   5.347  0.5440  0.4793 -1.2067
 6079TIP3    H139652   6.747   1.234   5.435  1.0069  0.2595 -1.4124
 6079TIP3    H239653   6.761   1.202   5.287  0.5779  0.8579 -1.5894
 6080TIP3   OH239654   6.458   3.900   1.974  0.5526 -0.6449 -0.7804
 6080TIP3    H139655   6.468   3.942   2.060  1.4133  0.6120 -1.4635
 6080TIP3    H239656   6.533   3.839   1.969 -1.1260 -2.9964  0.5387
 6081TIP3   OH239657   1.651   0.747   6.310  0.1616 -0.0191  0.0518
 6081TIP3    H139658   1.680   0.775   6.397 -1.6236  1.7512  0.1636
 6081TIP3    H239659   1.604   0.666   6.326  0.6985 -0.2454  0.5700
 6082TIP3   OH239660   2.897   4.469  13.764 -0.2026 -0.1105  0.1239
 6082TIP3    H139661   2.869   4.426  13.845 -2.9132 -0.0166 -0.6802
 6082TIP3    H239662   2.992   4.475  13.773 -0.0617 -2.8837  1.9126
 6083TIP3   OH239663   5.905   6.731   0.370  0.0028 -0.0095 -0.3437
 6083TIP3    H139664   5.841   6.795   0.337  0.0797 -0.3755 -1.2574
 6083TIP3    H239665   5.861   6.690   0.445 -0.7657 -0.1095 -0.8268
 6084TIP3   OH239666   6.060   2.215   3.563 -0.7148 -0.2934  0.1402
 6084TIP3    H139667   6.058   2.127   3.527 -1.4668 -0.8440  1.4420
 6084TIP3    H239668   6.153   2.236   3.572 -0.5366 -0.7194 -0.7106
 6085TIP3   OH239669   1.219   4.316  12.870  0.0086  0.0448 -0.3282
 6085TIP3    H139670   1.214   4.388  12.807  0.4415  1.1024  0.7871
 6085TIP3    H239671   1.146   4.332  12.930 -0.1791 -0.7366 -0.3344
 6086TIP3   OH239672   1.756   0.347   1.890  0.0707  0.3972  0.2819
 6086TIP3    H139673   1.701   0.323   1.815 -1.4930  1.0751  1.1707
 6086TIP3    H239674   1.779   0.264   1.932  0.0646  0.0875 -0.3143
 6087TIP3   OH239675   1.543   0.956   1.381  0.0383 -0.2547 -0.0516
 6087TIP3    H139676   1.612   1.016   1.407 -0.7325  1.2713 -1.3180
 6087TIP3    H239677   1.579   0.909   1.305 -0.2722  0.5369 -0.7087
 6088TIP3   OH239678   2.232   5.624  12.557  0.2738 -0.0425  0.0709
 6088TIP3    H139679   2.230   5.640  12.462  0.1912  0.7546  0.2012
 6088TIP3    H239680   2.234   5.711  12.596  1.8482 -0.3493  0.7737
 6089TIP3   OH239681   3.640   3.341   2.196  0.5149  0.3627 -0.3136
 6089TIP3    H139682   3.697   3.337   2.273 -1.9736  0.0086  1.6334
 6089TIP3    H239683   3.659   3.426   2.156  3.4864 -0.3728 -0.7373
 6090TIP3   OH239684   2.641   1.026   2.918 -0.5239  0.1997  0.1129
 6090TIP3    H139685   2.670   1.097   2.975 -0.3711  0.1998  0.0348
 6090TIP3    H239686   2.547   1.039   2.910 -0.4386  0.6244 -0.2185
 6091TIP3   OH239687   4.500   5.589   2.068  0.5500 -0.0530  0.7735
 6091TIP3    H139688   4.481   5.649   1.996  2.4713  1.3188  1.3312
 6091TIP3    H239689   4.449   5.623   2.142 -0.9168 -1.0850  0.2815
 6092TIP3   OH239690   3.410   6.466   2.103 -0.2737  0.2232 -0.1215
 6092TIP3    H139691   3.392   6.381   2.062 -0.7243  0.4089 -0.3216
 6092TIP3    H239692   3.385   6.454   2.195 -1.4901  0.4785 -0.3937
 6093TIP3   OH239693   2.114   0.114   2.370  0.1680 -0.0772 -0.2084
 6093TIP3    H139694   2.135   0.137   2.279 -4.6184 -2.0428 -2.1447
 6093TIP3    H239695   2.165   0.035   2.387 -0.7675 -1.1798 -2.2374
 6094TIP3   OH239696   0.056   6.526  11.603 -0.0548 -0.5639 -0.0917
 6094TIP3    H139697   0.008   6.601  11.570 -1.9525 -1.0746  1.3133
 6094TIP3    H239698   0.111   6.561  11.674 -1.4830 -0.5611  1.0522
 6095TIP3   OH239699   0.770   0.034   4.548  0.3989  0.0170 -0.1702
 6095TIP3    H139700   0.720  -0.008   4.478  0.0872  0.4418 -0.2124
 6095TIP3    H239701   0.861   0.025   4.521  0.3280 -0.5472 -0.2181
 6096TIP3   OH239702   6.159   2.778   5.111  0.1007  0.1227 -0.0893
 6096TIP3    H139703   6.197   2.698   5.146  0.2377  0.0789 -0.3288
 6096TIP3    H239704   6.208   2.849   5.153 -1.3580  0.1485  1.6425
 6097TIP3   OH239705   1.136   3.546   0.275 -0.2142 -0.1272 -0.0731
 6097TIP3    H139706   1.091   3.592   0.346  0.7254  0.0249  0.4354
 6097TIP3    H239707   1.152   3.458   0.309  1.0857  0.2253  0.2967
 6098TIP3   OH239708   6.604   3.874  15.612 -0.5608  0.0487 -0.0296
 6098TIP3    H139709   6.577   3.855  15.523 -2.6446  0.2675  0.4975
 6098TIP3    H239710   6.561   3.807  15.665  0.9463 -0.3101  0.8072
 6099TIP3   OH239711   3.138   0.849   5.432 -0.6232 -0.5087  0.2940
 6099TIP3    H139712   3.198   0.920   5.453 -1.8746  0.4966  0.5812
 6099TIP3    H239713   3.130   0.800   5.514 -1.8892  0.6770  0.9227
 6100TIP3   OH239714   4.400   4.597  13.120  0.0735  0.0218  0.5363
 6100TIP3    H139715   4.384   4.504  13.104 -1.7824  0.2250  1.0217
 6100TIP3    H239716   4.422   4.633  13.034 -1.8581 -0.3860 -0.1598
 6101TIP3   OH239717   6.671   0.095  14.186 -0.1231 -0.5353 -0.0156
 6101TIP3    H139718   6.586   0.116  14.224  0.3809  0.2664  0.7074
 6101TIP3    H239719   6.717   0.049  14.256  1.3309  2.1738  0.9743
 6102TIP3   OH239720   6.311   5.410  14.418 -0.2208  0.5908  0.0265
 6102TIP3    H139721   6.291   5.474  14.350 -1.6089 -0.1131 -0.2747
 6102TIP3    H239722   6.226   5.369  14.437  0.4882 -0.5748  0.7966
 6103TIP3   OH239723   6.558   2.549   5.041  0.0674  0.0643  0.2514
 6103TIP3    H139724   6.477   2.504   5.065  0.1331  0.9898  2.4617
 6103TIP3    H239725   6.626   2.482   5.047 -0.2546 -0.2558  0.3590
 6104TIP3   OH239726   2.968   3.668   3.316  0.0071 -0.2068  0.3480
 6104TIP3    H139727   2.992   3.667   3.409  1.5062 -3.5148  0.0751
 6104TIP3    H239728   3.034   3.723   3.274 -0.1152  0.5286  1.1023
 6105TIP3   OH239729   4.515   5.208   4.706 -0.1218 -0.0685  0.3291
 6105TIP3    H139730   4.590   5.239   4.655  1.4609  1.7244  3.4427
 6105TIP3    H239731   4.552   5.142   4.765 -1.1120  0.4139  1.5143
 6106TIP3   OH239732   5.805   2.302   3.950  0.0535  0.0281  0.1534
 6106TIP3    H139733   5.768   2.224   3.908 -0.5275 -1.1940  2.7232
 6106TIP3    H239734   5.890   2.272   3.983 -0.2538  0.3812  1.3196
 6107TIP3   OH239735   5.526   2.523  16.826  0.4004  0.6416 -0.0508
 6107TIP3    H139736   5.431   2.517  16.816  0.0237 -1.0703  3.3295
 6107TIP3    H239737   5.539   2.575  16.905  2.2663  0.2663 -0.0577
 6108TIP3   OH239738   0.752   6.121   0.932  0.4715  0.7794 -0.1884
 6108TIP3    H139739   0.804   6.044   0.908 -1.1256 -1.3009  2.4308
 6108TIP3    H239740   0.816   6.184   0.965  1.6005 -0.8601  0.9125
 6109TIP3   OH239741   1.915   0.595  12.535  0.2450 -0.6200  0.0094
 6109TIP3    H139742   1.969   0.674  12.527  1.0717 -1.1410  0.4144
 6109TIP3    H239743   1.941   0.555  12.617  0.3980 -1.7390 -0.5592
 6110TIP3   OH239744   5.517   4.993   3.927  0.1774  0.1882 -0.2354
 6110TIP3    H139745   5.542   4.910   3.887  0.6726 -0.3563  1.1363
 6110TIP3    H239746   5.577   5.003   4.001 -1.6430  0.3891  1.2810
 6111TIP3   OH239747   1.742   5.344   6.346  0.6399  0.1530 -0.0132
 6111TIP3    H139748   1.771   5.253   6.348  0.3720  0.0732  1.3334
 6111TIP3    H239749   1.658   5.342   6.301  1.4858  0.0315 -1.6791
 6112TIP3   OH239750   6.453   5.777  10.815 -0.0994 -0.0276 -0.5122
 6112TIP3    H139751   6.403   5.776  10.734  1.2214 -2.6019 -1.3846
 6112TIP3    H239752   6.529   5.722  10.798  1.6864  1.5731  1.6159
 6113TIP3   OH239753   0.041   3.751   1.609  0.2924 -0.4884  0.3923
 6113TIP3    H139754   0.101   3.825   1.607  0.2888 -0.4910 -0.0014
 6113TIP3    H239755   0.088   3.683   1.658  0.6491 -0.5189  0.0214
 6114TIP3   OH239756   5.048   4.227   5.171 -0.0515  0.2461 -0.0724
 6114TIP3    H139757   5.034   4.133   5.166  1.9871 -0.0648 -0.9290
 6114TIP3    H239758   5.113   4.245   5.103 -0.6085  2.3287 -0.1284
 6115TIP3   OH239759   6.072   5.725  13.042  0.3535  0.0603 -0.0537
 6115TIP3    H139760   6.133   5.723  13.116  1.1203 -1.1960 -0.6799
 6115TIP3    H239761   6.010   5.654  13.060  1.8189 -1.7182 -1.5958
 6116TIP3   OH239762   4.047   5.826  16.398 -0.0316 -0.5092 -0.5940
 6116TIP3    H139763   4.100   5.816  16.319 -1.1998 -2.6180 -1.1902
 6116TIP3    H239764   3.958   5.840  16.366 -0.3538 -0.2240  0.3672
 6117TIP3   OH239765   0.778   1.736   1.416 -0.2097  0.0821 -0.4090
 6117TIP3    H139766   0.727   1.813   1.391  0.0392  0.7076  0.9317
 6117TIP3    H239767   0.768   1.730   1.511  0.6845 -0.8905 -0.3565
 6118TIP3   OH239768   2.983   2.416  14.530  0.1741 -0.1169  0.3874
 6118TIP3    H139769   2.968   2.471  14.607 -0.0572 -0.4394  0.5785
 6118TIP3    H239770   3.078   2.406  14.525  0.1961 -0.0025  0.5623
 6119TIP3   OH239771   0.876   6.195  12.676  0.4630  0.2856 -0.4110
 6119TIP3    H139772   0.790   6.209  12.636  1.1955 -0.3597 -2.3265
 6119TIP3    H239773   0.861   6.130  12.745 -0.4223 -0.6320 -1.4387
 6120TIP3   OH239774   3.296   6.744   3.959  0.0238 -0.0164  0.2072
 6120TIP3    H139775   3.361   6.778   4.020 -0.4109 -0.4967  0.9571
 6120TIP3    H239776   3.253   6.673   4.006 -1.1582  0.3940 -0.1937
 6121TIP3   OH239777   3.902   3.715   2.583 -0.5846  0.2918  0.3898
 6121TIP3    H139778   3.948   3.774   2.523 -2.5032  1.6694  0.1836
 6121TIP3    H239779   3.847   3.660   2.526 -0.7085  0.0342  0.7509
 6122TIP3   OH239780   2.049   6.681  14.214  0.1212 -0.3317 -0.6008
 6122TIP3    H139781   2.082   6.686  14.304  0.2832 -3.2257 -0.4121
 6122TIP3    H239782   1.962   6.642  14.222  0.2475 -0.8939 -1.7139
 6123TIP3   OH239783   3.904   1.974  13.569 -0.1849  0.1270 -0.3985
 6123TIP3    H139784   3.872   2.060  13.543 -4.7993 -1.5864 -1.3285
 6123TIP3    H239785   3.972   1.954  13.505  0.5692  2.7434 -0.5280
 6124TIP3   OH239786   5.324   4.061  13.998 -0.1232 -0.0111  0.0319
 6124TIP3    H139787   5.268   3.983  13.993 -0.8154  0.5297 -0.9971
 6124TIP3    H239788   5.269   4.132  13.968  1.0893  0.5629 -0.9121
 6125TIP3   OH239789   0.291   2.909  11.234 -0.4494 -0.2525  0.3068
 6125TIP3    H139790   0.281   2.998  11.268  0.4240 -0.5321  1.3427
 6125TIP3    H239791   0.204   2.886  11.201 -1.0919  0.3979  1.4895
 6126TIP3   OH239792   1.417   3.524  13.879  0.1361  0.7259 -0.5746
 6126TIP3    H139793   1.437   3.523  13.786  1.3876 -1.4207 -0.3478
 6126TIP3    H239794   1.322   3.536  13.883 -0.2756 -1.4102 -2.2602
 6127TIP3   OH239795   2.071   5.182  14.275 -0.2715 -0.2021  0.9050
 6127TIP3    H139796   2.045   5.196  14.184  1.9391  2.5415  0.5446
 6127TIP3    H239797   1.988   5.166  14.321 -1.7382  0.7904 -1.2005
 6128TIP3   OH239798   3.437   1.499   1.475  0.1299  0.6438 -0.4310
 6128TIP3    H139799   3.444   1.453   1.559  0.7350 -2.0244 -1.8320
 6128TIP3    H239800   3.354   1.469   1.438  1.1926 -0.5279 -2.0010
 6129TIP3   OH239801   3.252   5.957   4.843 -0.4343  0.2742  0.1121
 6129TIP3    H139802   3.180   5.916   4.891  1.4562  0.6926  3.6139
 6129TIP3    H239803   3.216   6.040   4.811 -2.0921 -0.5237 -0.1773
 6130TIP3   OH239804   3.406   5.974   2.454 -0.0261 -0.0542  0.0702
 6130TIP3    H139805   3.453   6.056   2.470 -1.5628  0.2511  4.0729
 6130TIP3    H239806   3.317   6.000   2.432 -0.1198 -0.6654 -0.3064
 6131TIP3   OH239807   1.591   0.951   2.414  0.6902 -0.0523  0.3384
 6131TIP3    H139808   1.532   0.950   2.339  1.9602 -1.2503 -0.7243
 6131TIP3    H239809   1.589   1.041   2.446  0.4281  0.6031 -1.4114
 6132TIP3   OH239810   3.050   0.736  15.652  0.4011 -0.0014 -0.0517
 6132TIP3    H139811   3.120   0.742  15.588 -0.5670 -0.7297 -1.2287
 6132TIP3    H239812   3.086   0.684  15.724  1.4470  0.6961 -0.0525
 6133TIP3   OH239813   3.584   6.441   4.434  0.1724  0.2241  0.6153
 6133TIP3    H139814   3.659   6.407   4.483  0.3683 -1.1923 -0.5879
 6133TIP3    H239815   3.574   6.380   4.361 -1.1543  1.3145 -0.1555
 6134TIP3   OH239816   2.246   4.863   5.330 -0.3561  0.2301 -0.5085
 6134TIP3    H139817   2.300   4.939   5.353 -0.7490 -0.1767  2.0899
 6134TIP3    H239818   2.308   4.790   5.325 -0.3329  0.2028  0.0593
 6135TIP3   OH239819   0.510   6.312  14.860  0.9356  0.2164 -0.0862
 6135TIP3    H139820   0.587   6.266  14.827  0.2316 -1.2056  0.1713
 6135TIP3    H239821   0.544   6.394  14.895  2.1140  0.3370 -1.4048
 6136TIP3   OH239822   0.196   5.783  14.567  0.2694  0.1875  0.1347
 6136TIP3    H139823   0.271   5.827  14.608  0.5026 -1.6032  1.7974
 6136TIP3    H239824   0.231   5.700  14.535 -0.9057 -0.5321  0.6434
 6137TIP3   OH239825   3.831   1.718  15.048  0.2138  0.2435  0.4293
 6137TIP3    H139826   3.747   1.743  15.009  0.7616  0.1231 -0.8907
 6137TIP3    H239827   3.810   1.696  15.139 -1.3796 -0.9172 -0.1712
 6138TIP3   OH239828   5.759   6.104  15.913  0.3515 -0.2523 -0.6724
 6138TIP3    H139829   5.775   6.010  15.918  0.3331 -0.1958  0.6110
 6138TIP3    H239830   5.803   6.140  15.989 -1.6000  0.5025  0.1587
 6139TIP3   OH239831   4.783   6.469   1.926  0.7914 -0.0725 -0.0281
 6139TIP3    H139832   4.704   6.515   1.900  0.6781 -0.7937 -1.0033
 6139TIP3    H239833   4.837   6.537   1.967 -0.0059  0.5878 -0.0365
 6140TIP3   OH239834   3.483   4.789  12.624 -0.6089  0.2788  0.7159
 6140TIP3    H139835   3.506   4.729  12.695  3.2121  1.4686  0.7325
 6140TIP3    H239836   3.498   4.739  12.544 -1.3059  0.0493  0.7249
 6141TIP3   OH239837   5.216   5.433   1.152 -0.6232  0.4031 -0.5129
 6141TIP3    H139838   5.124   5.419   1.127 -0.1519 -2.1968 -1.0646
 6141TIP3    H239839   5.263   5.436   1.069 -0.0607  0.5588 -0.1901
 6142TIP3   OH239840   0.145   4.291   3.503  0.3512  0.6609  0.3298
 6142TIP3    H139841   0.235   4.265   3.523  0.5948  0.4651 -0.9108
 6142TIP3    H239842   0.153   4.380   3.468  0.2955  0.0249 -1.3937
 6143TIP3   OH239843   6.420   6.666   4.719 -0.3901 -0.3078  0.0209
 6143TIP3    H139844   6.408   6.657   4.624  0.2178 -1.0965  0.0168
 6143TIP3    H239845   6.350   6.727   4.745 -1.4171 -1.1244 -0.7256
 6144TIP3   OH239846   2.378   0.868  14.482  0.4972 -0.1587 -0.0589
 6144TIP3    H139847   2.324   0.793  14.460  0.4526 -0.1085 -0.1208
 6144TIP3    H239848   2.441   0.875  14.411  1.1437 -0.7385  0.4364
 6145TIP3   OH239849   4.526   6.557  16.228  0.2867  0.2693  0.0246
 6145TIP3    H139850   4.567   6.624  16.283 -0.1718  0.5435  0.0408
 6145TIP3    H239851   4.465   6.512  16.287  0.7671 -0.3254  0.0731
 6146TIP3   OH239852   5.165   3.564  16.043 -0.5558  0.0269 -0.7086
 6146TIP3    H139853   5.227   3.497  16.016 -0.4099 -0.1201 -0.0236
 6146TIP3    H239854   5.120   3.527  16.119 -0.8187  0.5057 -0.6214
 6147TIP3   OH239855   1.306   2.068   2.461  0.4515 -0.1614  0.0333
 6147TIP3    H139856   1.346   2.118   2.390  1.1991  0.9937  1.2114
 6147TIP3    H239857   1.221   2.109   2.475  1.7231  1.9579  2.0870
 6148TIP3   OH239858   3.193   1.028   5.158  0.8803 -0.2154 -0.5545
 6148TIP3    H139859   3.104   1.001   5.181  0.0371  2.2329 -0.7547
 6148TIP3    H239860   3.249   0.969   5.209 -0.8479 -0.8617  0.7037
 6149TIP3   OH239861   6.022   0.700   1.801 -0.6008  0.5473 -0.8870
 6149TIP3    H139862   5.956   0.685   1.733 -0.2500 -0.4845 -0.9997
 6149TIP3    H239863   6.080   0.767   1.763 -1.6399  1.5794 -0.7313
 6150TIP3   OH239864   4.142   4.618  16.335  0.2794 -0.2006 -0.2069
 6150TIP3    H139865   4.210   4.679  16.306 -0.2349  0.0028 -1.0315
 6150TIP3    H239866   4.128   4.560  16.259 -1.1674  0.3935 -0.4254
 6151TIP3   OH239867   5.062   6.648   0.229  0.3314  0.4483 -0.0090
 6151TIP3    H139868   4.969   6.629   0.213  0.1190  1.7831 -0.4696
 6151TIP3    H239869   5.068   6.743   0.222  1.9980  0.2712 -1.4166
 6152TIP3   OH239870   5.579   1.412   2.096  0.3120 -0.0130  0.1393
 6152TIP3    H139871   5.514   1.424   2.166  0.8213 -2.3351  1.0951
 6152TIP3    H239872   5.529   1.422   2.015 -0.8951 -0.1578  0.8437
 6153TIP3   OH239873   4.458   6.620   0.938 -0.0687  0.1607  0.0154
 6153TIP3    H139874   4.364   6.624   0.951 -0.4247 -2.1183 -1.2467
 6153TIP3    H239875   4.496   6.632   1.025 -1.5097  0.9203  0.5610
 6154TIP3   OH239876   3.162   2.986  13.157  0.2461  0.4287 -0.2249
 6154TIP3    H139877   3.077   2.993  13.113  0.1301  2.5154  0.1846
 6154TIP3    H239878   3.224   2.967  13.087 -0.1315  2.2516 -1.1233
 6155TIP3   OH239879   1.154   4.070   4.451 -0.6919  0.3979 -0.0614
 6155TIP3    H139880   1.205   4.145   4.421 -0.5491  0.1125 -0.5299
 6155TIP3    H239881   1.218   4.013   4.494 -0.7951  0.5251  0.2659
 6156TIP3   OH239882   1.355   3.818   3.272 -0.0569 -0.4206  0.3223
 6156TIP3    H139883   1.301   3.782   3.343  1.3279 -2.8535  0.2483
 6156TIP3    H239884   1.427   3.862   3.316 -0.0773 -0.4802  0.4147
 6157TIP3   OH239885   1.031   1.323   0.082  0.1102 -0.8449  0.8785
 6157TIP3    H139886   1.069   1.241   0.049 -0.2221 -0.0780 -1.6658
 6157TIP3    H239887   1.091   1.391   0.051 -0.3315 -0.0204  1.7762
 6158TIP3   OH239888   4.407   5.197   1.642  0.4324 -0.6354  0.2064
 6158TIP3    H139889   4.342   5.251   1.687  0.6397 -1.0976  1.0897
 6158TIP3    H239890   4.491   5.225   1.680  0.5480 -1.5331  0.6374
 6159TIP3   OH239891   0.298   3.647  16.145 -0.0868  0.0405  0.5510
 6159TIP3    H139892   0.387   3.651  16.181 -0.5243 -0.2591  1.7167
 6159TIP3    H239893   0.241   3.642  16.222 -1.1446  0.6214 -0.1636
 6160TIP3   OH239894   4.364   2.859  12.839 -0.1596  0.3965  0.0027
 6160TIP3    H139895   4.391   2.816  12.758 -0.4058 -0.0321  0.1396
 6160TIP3    H239896   4.446   2.884  12.882  0.0196 -0.4407  0.1809
 6161TIP3   OH239897   1.156   6.756   3.304 -0.0288 -0.1974  0.6720
 6161TIP3    H139898   1.230   6.730   3.359  0.4803 -1.2880 -0.4732
 6161TIP3    H239899   1.193   6.768   3.217 -0.8763  1.1945  0.4763
 6162TIP3   OH239900   4.735   2.173   1.656 -0.8010  0.6368 -0.2106
 6162TIP3    H139901   4.676   2.112   1.701 -0.0480  0.2916  0.3409
 6162TIP3    H239902   4.678   2.243   1.625 -1.3089  1.1878  1.7983
 6163TIP3   OH239903   5.660   4.692   0.241 -0.2733  0.0251  0.0730
 6163TIP3    H139904   5.700   4.741   0.170 -2.0840 -1.3908 -2.0848
 6163TIP3    H239905   5.727   4.630   0.268 -0.6053 -1.9986 -3.1356
 6164TIP3   OH239906   2.771   1.285  14.591 -0.5658  0.3980 -0.1924
 6164TIP3    H139907   2.762   1.310  14.683 -0.4014 -1.7947  0.4552
 6164TIP3    H239908   2.701   1.221  14.576  1.0964 -1.3734 -0.7807
 6165TIP3   OH239909   1.017   4.172  14.981  0.7069 -0.2582 -1.0806
 6165TIP3    H139910   1.060   4.253  14.951  1.1195 -0.2123 -0.3894
 6165TIP3    H239911   0.926   4.182  14.954  0.9813 -0.0564 -1.9838
 6166TIP3   OH239912   2.476   4.440  13.435  0.1367  0.3423  0.3407
 6166TIP3    H139913   2.492   4.393  13.517  0.3991  1.6837  1.0842
 6166TIP3    H239914   2.381   4.450  13.431  0.1494  0.5845  0.6574
 6167TIP3   OH239915   4.779   1.416   1.655  0.0090 -0.1782 -0.1855
 6167TIP3    H139916   4.697   1.374   1.683 -0.1464  0.0888 -0.2303
 6167TIP3    H239917   4.801   1.374   1.572 -0.0878 -0.2462 -0.1769
 6168TIP3   OH239918   3.979   3.499  13.263 -0.2517  0.9567  0.1072
 6168TIP3    H139919   3.947   3.416  13.298  0.4414  0.3110 -0.7367
 6168TIP3    H239920   3.905   3.534  13.213  0.2518 -0.4434 -1.6990
 6169TIP3   OH239921   0.129   6.171   6.356 -0.4452 -0.6993 -0.7613
 6169TIP3    H139922   0.075   6.177   6.434 -0.1284  3.6441 -0.6381
 6169TIP3    H239923   0.217   6.192   6.386 -0.3809  1.4622 -2.2129
 6170TIP3   OH239924   0.890   1.515  10.856 -0.1575 -0.2806  0.0241
 6170TIP3    H139925   0.796   1.506  10.874 -1.1707  1.9602 -3.1898
 6170TIP3    H239926   0.895   1.589  10.795  3.3725 -2.2301 -2.3902
 6171TIP3   OH239927   6.677   3.634  10.982  0.4451  0.7843  0.1835
 6171TIP3    H139928   6.665   3.729  10.983 -0.7661  0.6561 -0.2008
 6171TIP3    H239929   6.597   3.600  10.942  1.4026 -0.3280 -0.9103
 6172TIP3   OH239930   5.765   6.677  12.821  0.6003 -0.1126 -0.2590
 6172TIP3    H139931   5.724   6.615  12.761  0.7014  0.3919 -0.8607
 6172TIP3    H239932   5.692   6.714  12.871  0.3469  0.5322 -1.0875
 6173TIP3   OH239933   6.148   0.287   4.224 -0.4308  0.4941 -0.0892
 6173TIP3    H139934   6.121   0.373   4.190 -1.0055  0.5796  0.5703
 6173TIP3    H239935   6.066   0.240   4.238 -0.1798  0.2984  0.7607
 6174TIP3   OH239936   1.726   0.352  16.055 -0.2804  0.4123 -0.3031
 6174TIP3    H139937   1.641   0.317  16.082 -0.4499  1.6281  0.8790
 6174TIP3    H239938   1.711   0.385  15.967 -1.1129  0.8029 -0.0311
 6175TIP3   OH239939   1.607   1.681  14.190  0.9143 -0.3075  0.3785
 6175TIP3    H139940   1.572   1.766  14.162  0.1727 -0.8504 -0.3916
 6175TIP3    H239941   1.620   1.691  14.284 -0.3953  0.2552  0.5241
 6176TIP3   OH239942   1.878   0.333   1.599  0.0900 -0.2288 -0.5376
 6176TIP3    H139943   1.802   0.298   1.646  1.2704 -0.1027  1.5954
 6176TIP3    H239944   1.953   0.291   1.641  1.3315  1.6658 -0.7461
 6177TIP3   OH239945   1.485   5.961  14.182 -0.0272 -0.5016 -0.6751
 6177TIP3    H139946   1.436   6.042  14.194 -2.3592 -1.8827 -0.2243
 6177TIP3    H239947   1.563   5.971  14.237 -1.0769  0.7644  0.6457
 6178TIP3   OH239948   0.366   4.686  12.212 -0.2987  0.2382 -0.0618
 6178TIP3    H139949   0.375   4.680  12.117  1.3902 -2.5729  0.1744
 6178TIP3    H239950   0.294   4.626  12.232 -0.4415  0.5894  0.4780
 6179TIP3   OH239951   6.724   1.920  15.836  0.3279  0.1215  0.0557
 6179TIP3    H139952   6.717   1.873  15.919  1.2099 -0.2257 -0.0526
 6179TIP3    H239953   6.657   1.988  15.840  1.7520  1.5092  1.9835
 6180TIP3   OH239954   6.424   1.951   2.874  0.5039  0.8069  0.2367
 6180TIP3    H139955   6.328   1.946   2.868  0.6187 -0.1395 -1.8077
 6180TIP3    H239956   6.444   1.917   2.961 -1.0070  0.5468  0.5139
 6181TIP3   OH239957   1.057   0.467  12.530  0.2321  0.3794 -0.0662
 6181TIP3    H139958   0.965   0.447  12.515  0.7753 -2.2210 -0.3946
 6181TIP3    H239959   1.096   0.384  12.555  2.2754  1.6791  1.3401
 6182TIP3   OH239960   3.125   1.469   5.394 -0.8322  0.2677  0.2093
 6182TIP3    H139961   3.113   1.500   5.484 -0.2809 -0.4089  0.5265
 6182TIP3    H239962   3.088   1.380   5.395  0.7164 -0.4072  0.2256
 6183TIP3   OH239963   3.093   6.117   1.509  0.6117 -0.1246 -0.4488
 6183TIP3    H139964   3.054   6.088   1.427  0.6008  2.3463 -1.3980
 6183TIP3    H239965   3.167   6.172   1.483  1.4631 -0.3813  1.2442
 6184TIP3   OH239966   2.516   6.582  13.608  0.3680  0.2513  0.0506
 6184TIP3    H139967   2.564   6.595  13.526  1.3120 -1.1170  0.3604
 6184TIP3    H239968   2.530   6.662  13.657  3.2182 -0.4430  0.5428
 6185TIP3   OH239969   1.740   2.820   5.542  0.5721  0.5028  0.1633
 6185TIP3    H139970   1.780   2.831   5.628 -0.7867  0.4718  0.8244
 6185TIP3    H239971   1.813   2.796   5.485  1.7022  1.6833  1.0385
 6186TIP3   OH239972   6.462   3.934   1.004  0.5840  0.1927 -0.2995
 6186TIP3    H139973   6.489   3.932   1.096 -0.3486  2.4072  0.0851
 6186TIP3    H239974   6.375   3.896   1.004  1.5798 -2.2959 -0.7609
 6187TIP3   OH239975   5.764   5.508   2.868  0.4184  0.6446  0.0078
 6187TIP3    H139976   5.785   5.414   2.860 -1.9657  0.1041 -0.5366
 6187TIP3    H239977   5.845   5.547   2.902  1.5998 -1.5401 -0.0835
 6188TIP3   OH239978   6.048   1.236  15.615  0.0052 -0.6661 -0.1126
 6188TIP3    H139979   6.045   1.329  15.589  0.4082 -0.2752  1.1659
 6188TIP3    H239980   6.060   1.238  15.710  0.9798 -2.0393 -0.1808
 6189TIP3   OH239981   2.018   1.650  13.969 -0.1157 -0.2975  0.3190
 6189TIP3    H139982   1.948   1.615  14.024  1.1247 -0.7176  1.6871
 6189TIP3    H239983   2.035   1.581  13.906 -0.0737 -0.7103  0.7796
 6190TIP3   OH239984   0.651   4.206  12.292 -0.2909  0.1445 -0.1213
 6190TIP3    H139985   0.617   4.213  12.381  1.4810 -2.2599  0.8575
 6190TIP3    H239986   0.622   4.119  12.262  0.8139  0.0838 -1.0901
 6191TIP3   OH239987   4.208   0.179   2.949  0.5239 -0.0448 -0.3341
 6191TIP3    H139988   4.131   0.225   2.914  0.9223  2.1103  1.3728
 6191TIP3    H239989   4.276   0.192   2.882 -0.6584 -2.5678 -2.1889
 6192TIP3   OH239990   6.456   0.575   2.851 -0.7690  0.7750  0.5315
 6192TIP3    H139991   6.389   0.636   2.881  0.3054  1.8443  0.8293
 6192TIP3    H239992   6.456   0.506   2.917 -2.7085 -0.1364 -0.3515
 6193TIP3   OH239993   2.660   1.531   4.370  0.3730  0.3238 -0.7805
 6193TIP3    H139994   2.725   1.585   4.325 -0.3249 -0.6735 -3.1580
 6193TIP3    H239995   2.596   1.594   4.403  1.7383  1.2063  0.3087
 6194TIP3   OH239996   0.186   6.046   0.924  0.6305  0.9478 -0.2751
 6194TIP3    H139997   0.144   6.048   1.010  0.5894  0.6766 -0.2885
 6194TIP3    H239998   0.280   6.046   0.944  0.6259 -0.3422 -0.1930
 6195TIP3   OH239999   3.961   1.180   0.954 -0.2945 -0.4391  0.3505
 6195TIP3    H140000   3.974   1.087   0.938  0.2762 -0.4201  0.6755
 6195TIP3    H240001   3.893   1.206   0.891  1.1033 -0.5942 -1.3213
 6196TIP3   OH240002   4.773   6.599   3.718  0.1428 -0.1147 -0.2034
 6196TIP3    H140003   4.785   6.691   3.696  0.9297  0.1769  1.2534
 6196TIP3    H240004   4.756   6.600   3.813 -1.5636 -1.3503 -0.4584
 6197TIP3   OH240005   4.654   2.572  11.703  0.5784  0.0130  0.0315
 6197TIP3    H140006   4.604   2.490  11.705 -0.0366  0.3957  0.7937
 6197TIP3    H240007   4.589   2.639  11.681  0.6694  0.5606  1.3323
 6198TIP3   OH240008   5.934   2.461  12.445 -0.2656  0.1149  0.2341
 6198TIP3    H140009   5.855   2.513  12.461  0.7049  1.4462  0.8656
 6198TIP3    H240010   5.901   2.377  12.413 -1.9001  0.9550 -0.4154
 6199TIP3   OH240011   4.655   1.290  14.170  0.1418 -0.3830  0.2690
 6199TIP3    H140012   4.706   1.259  14.245  0.9485  0.3572  0.0418
 6199TIP3    H240013   4.718   1.338  14.116 -0.3118 -1.3295 -1.1554
 6200TIP3   OH240014   2.203   1.061  11.980  0.6509  0.4624  0.4753
 6200TIP3    H140015   2.213   0.997  11.910  0.0293  1.8541 -0.9556
 6200TIP3    H240016   2.194   1.009  12.060  0.6084 -1.1986 -0.5754
 6201TIP3   OH240017   0.711   4.309   5.505  0.2708  0.8508  0.6449
 6201TIP3    H140018   0.645   4.253   5.546 -0.3943 -0.3650 -1.8447
 6201TIP3    H240019   0.668   4.394   5.495 -1.1667 -0.0095 -1.2331
 6202TIP3   OH240020   3.976   3.215  14.850  0.3714  0.5464 -0.0306
 6202TIP3    H140021   3.937   3.144  14.798  0.4638 -0.9465  1.8521
 6202TIP3    H240022   3.929   3.293  14.821 -0.9574 -0.5265 -0.9550
 6203TIP3   OH240023   3.654   4.320  16.112  0.0847 -0.0864  0.1936
 6203TIP3    H140024   3.657   4.340  16.019 -0.9571 -0.0314  0.1555
 6203TIP3    H240025   3.733   4.358  16.148  0.5833 -0.2602 -0.6982
 6204TIP3   OH240026   2.146   2.786  12.345 -0.0162  0.0006 -0.0981
 6204TIP3    H140027   2.143   2.882  12.343 -0.4712  0.0226  0.9692
 6204TIP3    H240028   2.069   2.759  12.294  0.6055  0.1774 -1.1598
 6205TIP3   OH240029   2.851   1.866   2.738  0.3470 -0.4397  0.2332
 6205TIP3    H140030   2.873   1.809   2.664 -1.0831 -0.4149 -0.2369
 6205TIP3    H240031   2.757   1.853   2.751  0.2574  0.8313  0.9614
 6206TIP3   OH240032   3.142   2.919  12.711  0.2799  0.0372 -0.2914
 6206TIP3    H140033   3.068   2.923  12.771 -0.1892  0.6084 -0.8899
 6206TIP3    H240034   3.130   2.838  12.663  2.5550 -2.3245  2.7224
 6207TIP3   OH240035   0.727   3.316  16.512 -0.2928  0.1825  1.0848
 6207TIP3    H140036   0.696   3.308  16.421  1.1313 -0.2723  0.6023
 6207TIP3    H240037   0.778   3.397  16.513 -0.5373  0.3331  1.5564
 6208TIP3   OH240038   1.556   3.606   1.467  0.1576  0.1146  0.0879
 6208TIP3    H140039   1.601   3.571   1.391  0.0972 -0.0838  0.1425
 6208TIP3    H240040   1.480   3.653   1.432  0.1448  0.0461  0.0251
 6209TIP3   OH240041   2.894   4.677   4.339  0.1309 -0.0684 -0.3088
 6209TIP3    H140042   2.815   4.723   4.368 -0.8602 -1.7731 -0.1626
 6209TIP3    H240043   2.862   4.612   4.276  1.5583 -0.1688 -0.9759
 6210TIP3   OH240044   5.082   4.195  16.689  0.0468  0.1288  0.2749
 6210TIP3    H140045   5.025   4.180  16.764  1.7908 -2.7372  1.1647
 6210TIP3    H240046   5.041   4.145  16.618 -0.2918  0.8293 -0.0339
 6211TIP3   OH240047   2.716   0.565  12.337  0.0198  0.1531 -0.0477
 6211TIP3    H140048   2.763   0.543  12.417  0.0950 -1.3788 -0.4869
 6211TIP3    H240049   2.703   0.660  12.342  1.2971  0.2938  1.0747
 6212TIP3   OH240050   4.850   2.999  12.817 -0.4413  0.4554  0.0515
 6212TIP3    H140051   4.808   3.081  12.843 -0.6842  0.8725 -1.5538
 6212TIP3    H240052   4.847   2.945  12.896 -0.2652  1.9783  1.1476
 6213TIP3   OH240053   6.499   5.694  11.906 -0.0847  0.3188 -0.2465
 6213TIP3    H140054   6.540   5.621  11.953 -0.2987  0.2738 -0.1317
 6213TIP3    H240055   6.541   5.693  11.820  0.1098  0.2303 -0.1509
 6214TIP3   OH240056   6.125   5.608   6.416 -0.2317 -0.0277  0.1209
 6214TIP3    H140057   6.139   5.568   6.502  1.7140 -0.8088 -0.4983
 6214TIP3    H240058   6.177   5.688   6.419 -0.5636  0.1973 -0.1601
 6215TIP3   OH240059   4.692   5.119  13.247 -0.0948 -0.2674 -0.3437
 6215TIP3    H140060   4.724   5.044  13.198 -1.3031 -0.8070 -0.3458
 6215TIP3    H240061   4.771   5.163  13.278  0.6406 -1.3542 -0.6096
 6216TIP3   OH240062   5.195   2.118   0.131 -0.3653 -0.3573  0.1715
 6216TIP3    H140063   5.286   2.102   0.154  0.1571  1.2175 -0.6322
 6216TIP3    H240064   5.150   2.131   0.215  0.1033 -1.2900  0.5756
 6217TIP3   OH240065   3.922   3.920  14.238  0.1561 -0.1654  0.6285
 6217TIP3    H140066   3.939   3.986  14.170 -0.3300  1.4992  2.0542
 6217TIP3    H240067   4.003   3.916  14.289  0.4897 -1.3512  0.0312
 6218TIP3   OH240068   6.549   0.456   3.639  0.0956  0.2745 -0.6247
 6218TIP3    H140069   6.454   0.443   3.640 -0.2881  2.3818 -1.7140
 6218TIP3    H240070   6.574   0.463   3.731 -1.0834  1.2041 -0.3533
 6219TIP3   OH240071   4.609   2.687   5.421 -0.2627 -0.4948  0.2651
 6219TIP3    H140072   4.527   2.705   5.375  0.4808 -1.9349 -1.7256
 6219TIP3    H240073   4.582   2.642   5.501 -1.4659 -0.0286  0.1459
 6220TIP3   OH240074   3.933   1.205   3.608 -0.5218 -0.1243  0.2050
 6220TIP3    H140075   3.913   1.297   3.627 -1.3898 -0.9048  4.0975
 6220TIP3    H240076   3.848   1.165   3.592 -0.1775 -0.3352 -1.1596
 6221TIP3   OH240077   5.547   2.932  10.591 -0.1501  0.7821 -0.2429
 6221TIP3    H140078   5.620   2.885  10.631  0.3634  0.1690 -1.8167
 6221TIP3    H240079   5.472   2.874  10.603  0.0240  0.5486 -0.2739
 6222TIP3   OH240080   0.488   4.264   5.221 -0.0212  0.2986 -0.6982
 6222TIP3    H140081   0.443   4.204   5.162  2.1224 -0.5434 -1.6051
 6222TIP3    H240082   0.561   4.298   5.169  0.8709  0.9400  0.9058
 6223TIP3   OH240083   1.309   6.327   6.313  0.3321  0.6075 -0.1830
 6223TIP3    H140084   1.378   6.273   6.275  0.7249  0.3530  0.8556
 6223TIP3    H240085   1.278   6.278   6.389  2.2936  2.7701  2.2201
 6224TIP3   OH240086   5.692   2.893   3.721  0.4660 -0.4687 -0.5309
 6224TIP3    H140087   5.739   2.920   3.800  1.8388 -0.9794 -1.1372
 6224TIP3    H240088   5.729   2.947   3.652  0.5701 -1.2704 -1.1182
 6225TIP3   OH240089   2.094   4.511   2.235  0.1194  0.3332 -0.0310
 6225TIP3    H140090   2.119   4.460   2.158  0.5343  0.4992 -0.0099
 6225TIP3    H240091   2.103   4.450   2.308 -1.3209 -0.1372 -0.2326
 6226TIP3   OH240092   1.792   3.478   2.962  0.3244  0.3737  0.6348
 6226TIP3    H140093   1.828   3.543   3.022 -0.3794 -0.2582  1.7645
 6226TIP3    H240094   1.766   3.405   3.018 -0.4777 -0.1730 -0.4186
 6227TIP3   OH240095   3.482   0.638  15.946 -0.1264 -0.1098  0.5030
 6227TIP3    H140096   3.509   0.688  15.869 -0.9882  1.1554  0.9706
 6227TIP3    H240097   3.389   0.621  15.931  0.2593 -2.0669  0.1286
 6228TIP3   OH240098   2.431   5.179  16.739 -0.1252  0.0988  0.4781
 6228TIP3    H140099   2.338   5.193  16.727 -0.4101 -2.0423 -0.2759
 6228TIP3    H240100   2.463   5.153  16.653  0.5432 -2.0565  1.3051
 6229TIP3   OH240101   2.777   2.192   0.392 -0.2955  0.3064  0.3859
 6229TIP3    H140102   2.748   2.123   0.333 -0.2265 -0.0838  0.7993
 6229TIP3    H240103   2.810   2.261   0.335 -0.2146 -0.0722 -0.0278
 6230TIP3   OH240104   1.401   1.621  11.861 -0.2831 -0.0305  0.4348
 6230TIP3    H140105   1.461   1.644  11.791 -3.3901  1.4356 -1.9901
 6230TIP3    H240106   1.441   1.657  11.940  2.5106 -0.2217 -0.7870
 6231TIP3   OH240107   1.641   4.477   1.914 -0.0953  0.4800 -0.2499
 6231TIP3    H140108   1.663   4.385   1.900 -0.8401  0.1505  0.6588
 6231TIP3    H240109   1.584   4.500   1.840  1.5596  0.7715 -1.5043
 6232TIP3   OH240110   5.274   1.547   4.260 -0.3826  0.3731  0.5192
 6232TIP3    H140111   5.362   1.518   4.236 -1.0348 -0.5803 -0.8039
 6232TIP3    H240112   5.249   1.608   4.190 -1.0861  0.0223  0.4604
 6233TIP3   OH240113   0.988   6.200  15.547 -0.0806 -0.1400  0.1532
 6233TIP3    H140114   0.935   6.166  15.474  0.2814  0.2717 -0.3144
 6233TIP3    H240115   0.928   6.202  15.621 -1.7937  3.3156 -1.0624
 6234TIP3   OH240116   0.246   4.650   0.642 -0.2138  0.1898  0.2988
 6234TIP3    H140117   0.276   4.626   0.730 -0.6484  0.9818  0.6723
 6234TIP3    H240118   0.159   4.688   0.656 -0.0567  0.8262 -0.4091
 6235TIP3   OH240119   3.343   1.260  16.139 -0.0860  0.4159  0.4930
 6235TIP3    H140120   3.254   1.281  16.109 -0.4551 -0.8856  0.5723
 6235TIP3    H240121   3.363   1.177  16.095  1.5153  1.1816 -0.3105
 6236TIP3   OH240122   0.170   1.619   3.751  0.2942 -0.2274 -0.7016
 6236TIP3    H140123   0.151   1.613   3.657  0.9286 -2.4480 -0.7564
 6236TIP3    H240124   0.263   1.640   3.755  0.7619 -2.0921 -0.6614
 6237TIP3   OH240125   2.291   0.808  11.194  0.1650 -0.4344 -0.2363
 6237TIP3    H140126   2.324   0.749  11.127 -0.5983 -0.2395 -0.7986
 6237TIP3    H240127   2.369   0.836  11.242  0.9138  0.5108 -1.9249
 6238TIP3   OH240128   6.003   3.361  11.296  0.0970 -0.3541  0.7632
 6238TIP3    H140129   6.050   3.433  11.256  0.4905 -1.4836 -0.8863
 6238TIP3    H240130   6.047   3.282  11.264  0.5114 -1.3533  3.5289
 6239TIP3   OH240131   5.891   5.224   1.361  0.0896  0.1032 -0.1170
 6239TIP3    H140132   5.868   5.235   1.453  0.7469 -1.6411  0.2891
 6239TIP3    H240133   5.820   5.172   1.324 -0.2980  1.0079 -0.6804
 6240TIP3   OH240134   4.315   1.262   0.072  0.3219 -0.0918 -0.1995
 6240TIP3    H140135   4.308   1.314   0.153 -0.2249 -0.7702  0.2007
 6240TIP3    H240136   4.229   1.271   0.031  0.1054 -0.9316  0.0415
 6241TIP3   OH240137   2.327   5.821  15.269 -0.2202  1.0698  0.4128
 6241TIP3    H140138   2.342   5.772  15.188  2.6862 -0.1037  1.5278
 6241TIP3    H240139   2.232   5.824  15.278 -0.5777 -2.1343 -1.0414
 6242TIP3   OH240140   4.024   6.025   1.987 -0.5105 -0.7830  0.6184
 6242TIP3    H140141   4.055   5.960   1.924  0.4289 -2.2342  2.4843
 6242TIP3    H240142   4.068   6.106   1.962  3.0360 -2.2042  1.6573
 6243TIP3   OH240143   4.500   0.847  12.945  0.1426 -0.2679  0.4903
 6243TIP3    H140144   4.521   0.936  12.971 -1.2982  0.6845 -1.3658
 6243TIP3    H240145   4.586   0.806  12.931  0.8217  0.8962  1.0847
 6244TIP3   OH240146   0.010   1.501   2.710 -0.0072 -0.0522  0.2203
 6244TIP3    H140147   0.060   1.420   2.718 -1.4642 -1.0352 -0.3229
 6244TIP3    H240148   0.033   1.534   2.623 -2.3196 -1.9741 -1.2302
 6245TIP3   OH240149   2.936   3.268  11.815  0.3542  0.0130  0.2620
 6245TIP3    H140150   2.866   3.205  11.799 -0.0563  0.0587  1.7207
 6245TIP3    H240151   3.016   3.222  11.789 -0.0544 -0.6934  0.2331
 6246TIP3   OH240152   6.450   5.929   3.248 -0.2085 -0.4152 -0.2197
 6246TIP3    H140153   6.522   5.957   3.191 -0.4539 -1.7513 -1.2541
 6246TIP3    H240154   6.394   6.006   3.255  1.6328  0.8811  1.1837
 6247TIP3   OH240155   2.795   3.842  11.959 -0.5775  1.1028  0.3635
 6247TIP3    H140156   2.763   3.800  12.040  0.7927  0.6964  0.7161
 6247TIP3    H240157   2.812   3.769  11.900 -0.1859  1.3062  0.2271
 6248TIP3   OH240158   3.073   2.216  12.231  0.3068  0.4862  0.3355
 6248TIP3    H140159   3.108   2.160  12.300 -0.4695  0.7119  0.9233
 6248TIP3    H240160   3.063   2.158  12.155  0.3366  0.0397  0.6711
 6249TIP3   OH240161   3.251   6.757  11.240 -0.0189 -0.9055 -0.4603
 6249TIP3    H140162   3.309   6.706  11.183 -0.4424 -0.9894 -0.8249
 6249TIP3    H240163   3.254   6.711  11.324  1.7107  0.0194  0.0298
 6250TIP3   OH240164   6.506   3.700   5.894 -0.5410 -0.2065 -0.5901
 6250TIP3    H140165   6.577   3.696   5.831 -1.5205  0.0894 -1.7448
 6250TIP3    H240166   6.549   3.701   5.979  0.8860  1.7061 -1.2891
 6251TIP3   OH240167   2.331   3.735  15.758  0.4748  0.0516 -0.0767
 6251TIP3    H140168   2.247   3.704  15.790  0.8614 -0.1538  0.7797
 6251TIP3    H240169   2.310   3.803  15.694 -0.3220  0.3932  0.5452
 6252TIP3   OH240170   4.944   1.770   0.316 -0.0865  0.3752  0.1737
 6252TIP3    H140171   5.037   1.750   0.327 -0.3794 -0.5074  1.2416
 6252TIP3    H240172   4.910   1.697   0.264 -0.3479  0.2396  0.5311
 6253TIP3   OH240173   1.030   3.338   4.606  0.1648  0.2954  0.2946
 6253TIP3    H140174   0.988   3.252   4.603 -2.3143  1.3978  0.8327
 6253TIP3    H240175   1.096   3.330   4.674  0.2361 -1.2791  0.0812
 6254TIP3   OH240176   5.535   3.493  15.934 -0.0795 -0.1098 -0.4777
 6254TIP3    H140177   5.615   3.482  15.882 -1.3138  0.6418 -2.6489
 6254TIP3    H240178   5.545   3.578  15.976  0.8823 -0.6779  0.5121
 6255TIP3   OH240179   6.493   2.725   3.065 -0.1503 -0.2928 -0.1716
 6255TIP3    H140180   6.496   2.795   3.131  1.5131 -1.2934  0.9100
 6255TIP3    H240181   6.408   2.734   3.023 -0.7517  1.1723  1.2682
 6256TIP3   OH240182   4.998   4.185   3.151 -0.6468  0.1559 -0.4351
 6256TIP3    H140183   4.930   4.118   3.160  0.1249 -0.4125  1.7314
 6256TIP3    H240184   4.962   4.262   3.194  0.4300 -0.4785  1.7219
 6257TIP3   OH240185   3.411   3.032   2.281  0.2380 -0.2289  0.0547
 6257TIP3    H140186   3.356   2.981   2.221  0.1477  0.7164 -0.6895
 6257TIP3    H240187   3.409   3.121   2.246 -0.0433  0.4220  1.6302
 6258TIP3   OH240188   4.358   2.439   5.887 -0.0529  0.4485  0.0147
 6258TIP3    H140189   4.290   2.393   5.936 -0.2266 -0.7484 -1.2912
 6258TIP3    H240190   4.359   2.397   5.801  2.4260  0.3308  0.0191
 6259TIP3   OH240191   2.364   6.614   6.473  0.0020  0.0632  0.1191
 6259TIP3    H140192   2.373   6.567   6.555  2.1736 -1.1340 -0.6984
 6259TIP3    H240193   2.290   6.573   6.429  0.9082 -1.6398  0.0917
 6260TIP3   OH240194   0.181   0.273  14.037 -0.4865 -0.4990 -0.6073
 6260TIP3    H140195   0.107   0.268  13.977 -1.2989 -0.8473  0.3924
 6260TIP3    H240196   0.248   0.322  13.989 -1.4596  0.0621 -1.4308
 6261TIP3   OH240197   6.480   1.665   5.557 -0.0895  0.0391  0.0116
 6261TIP3    H140198   6.426   1.640   5.482 -0.1739 -0.4993  0.2463
 6261TIP3    H240199   6.521   1.748   5.531  0.3400 -0.4296 -0.8658
 6262TIP3   OH240200   0.420   0.677   1.423 -0.4611  0.4265 -0.1791
 6262TIP3    H140201   0.404   0.766   1.390 -2.0899  0.3248  0.2617
 6262TIP3    H240202   0.500   0.685   1.475  0.4052  1.2439 -1.5635
 6263TIP3   OH240203   1.231   5.621   6.203 -0.1157  0.0106 -0.1346
 6263TIP3    H140204   1.297   5.620   6.134 -2.1238 -0.1830 -2.1665
 6263TIP3    H240205   1.217   5.714   6.221  1.5897  0.0326  1.2673
 6264TIP3   OH240206   6.060   4.176  15.499  0.0876 -0.3104 -0.3702
 6264TIP3    H140207   5.973   4.150  15.470 -0.0285 -0.1811 -0.1376
 6264TIP3    H240208   6.113   4.097  15.491 -0.7238 -1.2310  2.2599
 6265TIP3   OH240209   4.740   6.629   5.012 -0.0054  0.2970  0.2039
 6265TIP3    H140210   4.738   6.626   5.108  0.0793 -0.0878  0.1953
 6265TIP3    H240211   4.802   6.561   4.987  0.6279  0.9671 -0.0984
 6266TIP3   OH240212   4.235   1.411   1.398  0.2533 -0.2482 -0.2923
 6266TIP3    H140213   4.194   1.407   1.484  0.3312 -3.2519 -0.2885
 6266TIP3    H240214   4.162   1.414   1.336  0.1226 -0.5348 -0.1541
 6267TIP3   OH240215   1.968   2.445   2.657 -0.1311  0.1021  0.5532
 6267TIP3    H140216   1.931   2.533   2.644 -1.0092 -0.0592  1.8399
 6267TIP3    H240217   1.906   2.401   2.715  0.9478 -0.9512  0.9393
 6268TIP3   OH240218   4.091   0.676   1.319 -0.0932 -0.0996 -0.1106
 6268TIP3    H140219   4.057   0.634   1.239 -0.7791 -1.5966  0.9261
 6268TIP3    H240220   4.186   0.665   1.313 -0.1488 -0.3457 -0.6398
 6269TIP3   OH240221   1.944   1.524  12.011  0.1772 -0.2871  0.2293
 6269TIP3    H140222   1.881   1.466  12.053  0.3056 -0.8213 -0.2932
 6269TIP3    H240223   2.029   1.491  12.039  0.2940 -1.1576 -1.0492
 6270TIP3   OH240224   2.158   2.096  14.742 -0.1200  0.5871 -0.0682
 6270TIP3    H140225   2.077   2.146  14.756 -0.3079  0.0159  1.0068
 6270TIP3    H240226   2.152   2.066  14.652 -0.5017  1.6105 -0.3951
 6271TIP3   OH240227   2.243   4.239  14.084 -0.2482  0.3031  0.2807
 6271TIP3    H140228   2.229   4.273  13.996  1.3975 -1.1757 -0.6046
 6271TIP3    H240229   2.338   4.230  14.092 -0.2889  1.1806  2.5455
 6272TIP3   OH240230   0.881   1.741  16.829 -0.2659  0.2620 -0.1720
 6272TIP3    H140231   0.849   1.734  16.919 -0.0891  0.8525 -0.0551
 6272TIP3    H240232   0.807   1.780  16.781 -0.6160 -0.7063 -0.4381
 6273TIP3   OH240233   4.739   1.540  15.460  0.2182 -0.1895  0.6975
 6273TIP3    H140234   4.729   1.507  15.371  0.8487 -0.5251  0.7434
 6273TIP3    H240235   4.833   1.534  15.477  0.3183  1.3120  0.8328
 6274TIP3   OH240236   5.162   0.733   0.346  0.1141  0.2337  1.1716
 6274TIP3    H140237   5.208   0.731   0.262  1.2476  0.1482  1.7645
 6274TIP3    H240238   5.077   0.694   0.329 -0.3372  1.7292 -0.3127
 6275TIP3   OH240239   1.935   6.183   0.925 -0.8385  0.3537  0.5833
 6275TIP3    H140240   1.896   6.214   1.007  0.5791  0.7324  1.1403
 6275TIP3    H240241   1.929   6.257   0.865 -2.4791 -0.1294  0.0832
 6276TIP3   OH240242   5.253   1.044  16.005  0.1253  0.0505  0.0346
 6276TIP3    H140243   5.286   1.057  16.094 -0.7272 -0.7235  0.4795
 6276TIP3    H240244   5.209   1.126  15.983 -0.8380 -0.2218  0.8640
 6277TIP3   OH240245   6.442   0.153  12.327  0.0787 -0.1881 -0.5088
 6277TIP3    H140246   6.449   0.063  12.296 -1.1854 -0.8177  0.9347
 6277TIP3    H240247   6.352   0.179  12.306 -0.3570 -0.1436  1.2468
 6278TIP3   OH240248   0.463   0.320   5.970 -0.2635 -0.2814  0.3192
 6278TIP3    H140249   0.441   0.409   5.942 -0.8381 -0.5676 -0.1729
 6278TIP3    H240250   0.390   0.293   6.025  0.1143 -0.3004  0.8207
 6279TIP3   OH240251   1.854   5.805  13.421  0.8157 -0.3168  0.3559
 6279TIP3    H140252   1.943   5.835  13.399 -0.3108  1.8488 -1.7652
 6279TIP3    H240253   1.822   5.870  13.483  0.1995 -0.2023 -0.0787
 6280TIP3   OH240254   0.232   6.100  13.263 -0.1625  0.0213 -0.0232
 6280TIP3    H140255   0.154   6.066  13.219 -2.2253  2.7910  1.1686
 6280TIP3    H240256   0.233   6.055  13.348 -1.6276  1.2492  0.6941
 6281TIP3   OH240257   6.419   1.734   3.591 -0.3319  0.3330 -0.2533
 6281TIP3    H140258   6.435   1.675   3.665 -1.4628  0.8411  0.4147
 6281TIP3    H240259   6.416   1.676   3.515  0.6173 -0.2201  0.1039
 6282TIP3   OH240260   6.206   1.464  17.146  0.1343  0.0920  0.4145
 6282TIP3    H140261   6.117   1.435  17.126 -0.4369  0.6368  2.0299
 6282TIP3    H240262   6.251   1.387  17.179  0.7142 -0.5097 -1.5871
 6283TIP3   OH240263   1.761   6.138  15.000 -0.0024  0.1663 -0.5241
 6283TIP3    H140264   1.706   6.073  15.043 -1.1464  1.3211 -0.1572
 6283TIP3    H240265   1.776   6.103  14.912 -0.1523 -0.8243 -0.1626
 6284TIP3   OH240266   2.242   3.908  10.961 -0.0344  0.2895 -0.2951
 6284TIP3    H140267   2.301   3.983  10.965  1.2328 -0.4604 -2.8935
 6284TIP3    H240268   2.157   3.946  10.936 -0.0860  1.0982  1.0292
 6285TIP3   OH240269   2.188   5.822  15.567  0.1591 -0.1536  0.0534
 6285TIP3    H140270   2.221   5.897  15.617 -0.8027 -0.0065  0.4809
 6285TIP3    H240271   2.097   5.845  15.546  0.2870 -0.5815 -1.0425
 6286TIP3   OH240272   2.368   5.321  11.912 -0.3651 -0.5230 -0.2612
 6286TIP3    H140273   2.408   5.256  11.854 -0.9346 -1.6201  0.5530
 6286TIP3    H240274   2.346   5.273  11.991 -1.8389  0.4041 -0.0635
 6287TIP3   OH240275   5.911   6.407  12.638 -0.3283 -0.0969 -0.1449
 6287TIP3    H140276   5.955   6.439  12.559  0.5559  0.2220  0.4644
 6287TIP3    H240277   5.821   6.438  12.630  0.2170  1.5615 -0.1291
 6288TIP3   OH240278   3.874   6.222  11.631 -0.3192 -0.0299  0.3226
 6288TIP3    H140279   3.854   6.172  11.710 -1.1384 -0.7708 -0.3295
 6288TIP3    H240280   3.942   6.171  11.588 -1.6537 -1.0152 -0.7016
 6289TIP3   OH240281   5.811   3.083  16.661 -0.1687  0.0594 -0.1860
 6289TIP3    H140282   5.854   3.165  16.638 -2.1928  1.4260  0.6841
 6289TIP3    H240283   5.733   3.079  16.605 -0.0999 -1.3026 -0.2315
 6290TIP3   OH240284   6.525   1.914  14.448  0.3061 -0.6540 -0.0963
 6290TIP3    H140285   6.598   1.942  14.504 -1.0916 -0.1109  1.5392
 6290TIP3    H240286   6.478   1.849  14.500 -2.4418  1.6007  0.4716
 6291TIP3   OH240287   5.232   5.880  11.540 -0.1137 -0.4533  0.7127
 6291TIP3    H140288   5.209   5.908  11.629  0.5907  0.5108  0.6007
 6291TIP3    H240289   5.148   5.882  11.493 -0.2211  0.7524  0.9125
 6292TIP3   OH240290   2.643   1.622   2.216 -0.2371 -0.1187  0.1033
 6292TIP3    H140291   2.690   1.692   2.261  0.0921 -0.6430  0.5964
 6292TIP3    H240292   2.599   1.573   2.286  0.1216 -0.8298 -0.1506
 6293TIP3   OH240293   6.483   0.607  15.328  0.0821 -0.9878 -0.0472
 6293TIP3    H140294   6.455   0.698  15.339 -0.0770 -0.9451 -0.7623
 6293TIP3    H240295   6.531   0.606  15.245  2.3341 -1.0402  1.1803
 6294TIP3   OH240296   3.845   1.294  12.031  0.0631 -0.0171 -0.0691
 6294TIP3    H140297   3.921   1.265  12.082 -1.1230 -0.6363  1.4104
 6294TIP3    H240298   3.849   1.389  12.033  1.5470 -0.0151 -1.2106
 6295TIP3   OH240299   2.589   0.878  13.213 -0.1221  0.7540 -0.0642
 6295TIP3    H140300   2.508   0.918  13.242 -0.8577  1.3105 -2.6441
 6295TIP3    H240301   2.653   0.949  13.214  0.6157  0.1619  2.6504
 6296TIP3   OH240302   6.373   6.331  11.314  0.1733 -0.2803  0.2204
 6296TIP3    H140303   6.402   6.420  11.299 -0.3559 -0.0385  0.5965
 6296TIP3    H240304   6.340   6.332  11.404 -2.1526 -0.2356 -0.5936
 6297TIP3   OH240305   3.979   1.651  12.796  0.3351 -0.2255 -0.6289
 6297TIP3    H140306   4.033   1.589  12.844  0.0165 -0.5423 -0.6719
 6297TIP3    H240307   3.925   1.596  12.739 -0.4141  0.0489 -0.1946
 6298TIP3   OH240308   6.545   0.044  13.575 -0.3699  0.4471 -0.3257
 6298TIP3    H140309   6.526  -0.040  13.619  0.2901  0.7980  0.6449
 6298TIP3    H240310   6.638   0.040  13.554 -0.8181 -0.0237 -2.4120
 6299TIP3   OH240311   0.290   6.275  14.005 -0.6483 -0.4371  0.0780
 6299TIP3    H140312   0.320   6.282  14.095  0.0585 -0.9954 -0.1051
 6299TIP3    H240313   0.340   6.342  13.958 -1.1409 -0.0279  0.1191
 6300TIP3   OH240314   5.780   2.156  16.365 -0.6497 -0.0493  0.7011
 6300TIP3    H140315   5.687   2.140  16.378 -0.4644 -1.2103  0.6754
 6300TIP3    H240316   5.787   2.190  16.275 -0.9043 -1.4554  0.1218
 6301TIP3   OH240317   6.727   0.077  11.011 -0.0791 -0.2139 -0.6778
 6301TIP3    H140318   6.681   0.058  10.929 -0.6030  1.1774 -0.7400
 6301TIP3    H240319   6.662   0.123  11.064  1.5376  3.1085 -1.2966
 6302TIP3   OH240320   0.468   2.576  14.380 -0.5692  0.0307 -0.7547
 6302TIP3    H140321   0.561   2.555  14.379 -0.9412 -1.7987 -0.8009
 6302TIP3    H240322   0.462   2.659  14.427  1.0695  0.1496 -0.7137
 6303TIP3   OH240323   4.078   5.230  14.568 -0.3203 -0.3475 -0.5817
 6303TIP3    H140324   4.141   5.163  14.543  1.1924  1.2191 -1.1467
 6303TIP3    H240325   4.035   5.254  14.486 -0.5233 -0.2954 -0.4613
 6304TIP3   OH240326   4.600   2.224  13.937  0.6774  0.3593  0.0770
 6304TIP3    H140327   4.621   2.285  14.007  1.5713  1.4591 -1.1055
 6304TIP3    H240328   4.506   2.233  13.923  0.5784  0.4655  0.8128
 6305TIP3   OH240329   6.033   1.494  12.488 -0.1800 -0.2379  0.6907
 6305TIP3    H140330   6.078   1.545  12.421 -1.9030  0.5207  0.0267
 6305TIP3    H240331   5.951   1.468  12.446 -0.7304 -0.8530  2.0883
 6306TIP3   OH240332   1.506   5.137  11.069  0.7750 -0.8371  0.1221
 6306TIP3    H140333   1.424   5.183  11.048  0.7700 -1.0244 -0.2760
 6306TIP3    H240334   1.528   5.166  11.158  2.4527  2.4164 -1.2066
 6307TIP3   OH240335   1.329   6.265  16.461  0.5895 -0.3048 -0.2003
 6307TIP3    H140336   1.384   6.189  16.441 -0.1742 -1.3050  1.2357
 6307TIP3    H240337   1.240   6.236  16.441  0.4742  1.0297 -1.7897
 6308TIP3   OH240338   2.157   6.711  12.546  0.3838 -0.1251 -0.5190
 6308TIP3    H140339   2.222   6.698  12.615 -0.3324 -1.3890 -0.0574
 6308TIP3    H240340   2.130   6.623  12.521  0.5856  0.3063 -2.3999
 6309TIP3   OH240341   3.716   2.540   1.514 -0.2830 -0.3526  0.1101
 6309TIP3    H140342   3.800   2.494   1.503 -0.7184 -0.7549 -1.7725
 6309TIP3    H240343   3.658   2.500   1.449 -1.0842  1.9494 -0.6670
 6310TIP3   OH240344   5.800   3.359  14.813 -0.0251  0.3906 -0.4419
 6310TIP3    H140345   5.799   3.436  14.756 -1.8173  0.3891 -0.4546
 6310TIP3    H240346   5.714   3.359  14.855  1.2890  0.5911  2.5509
 6311TIP3   OH240347   0.390   3.378   1.128 -0.2114 -0.4769 -0.0950
 6311TIP3    H140348   0.440   3.458   1.112 -0.9220  0.0229  0.1201
 6311TIP3    H240349   0.456   3.312   1.151  0.3670  0.0850 -0.1231
 6312TIP3   OH240350   3.521   2.829   3.051  0.1950  0.1046 -0.0880
 6312TIP3    H140351   3.528   2.876   3.134  2.1787 -0.1769 -0.0538
 6312TIP3    H240352   3.599   2.773   3.048 -0.4164 -0.7405 -1.6293
 6313TIP3   OH240353   3.789   6.414  15.007 -0.3171  1.0400  0.0597
 6313TIP3    H140354   3.721   6.357  14.970  0.3733 -0.3750  0.8951
 6313TIP3    H240355   3.836   6.359  15.069  1.7177  1.9324 -0.6053
 6314TIP3   OH240356   5.782   2.004   3.163  0.4594 -0.0694  0.4135
 6314TIP3    H140357   5.835   2.056   3.103  1.9841 -0.4171  1.4183
 6314TIP3    H240358   5.694   2.042   3.155  0.4968 -0.3573 -2.2875
 6315TIP3   OH240359   1.554   2.849  11.738  0.4319  0.1266  0.1729
 6315TIP3    H140360   1.615   2.896  11.795 -0.1384 -0.6773  1.4840
 6315TIP3    H240361   1.521   2.778  11.792 -0.4369 -0.4267 -1.0504
 6316TIP3   OH240362   1.667   4.514  11.728 -0.0458  0.3454  0.1167
 6316TIP3    H140363   1.739   4.527  11.665 -1.4043 -0.7443 -1.7634
 6316TIP3    H240364   1.614   4.594  11.719 -0.4461  0.0262 -0.4509
 6317TIP3   OH240365   2.935   5.369   3.130  0.0101  0.6512  0.3705
 6317TIP3    H140366   2.860   5.362   3.071  2.7996 -0.6843 -3.4366
 6317TIP3    H240367   2.950   5.279   3.159  1.1876  0.5403 -0.4954
 6318TIP3   OH240368   0.853   2.626  17.187  0.7040  0.1036 -0.5106
 6318TIP3    H140369   0.764   2.591  17.189  0.2317  1.2111 -1.5430
 6318TIP3    H240370   0.904   2.559  17.142  0.5139 -0.7535  0.5117
 6319TIP3   OH240371   6.627   0.090   0.424  0.4270  0.4428  0.3905
 6319TIP3    H140372   6.673   0.006   0.426  1.1804  0.7844 -1.0226
 6319TIP3    H240373   6.620   0.111   0.330 -2.4747  0.5025  0.5504
 6320TIP3   OH240374   4.981   0.768   2.314  0.1903 -0.6563 -0.2680
 6320TIP3    H140375   4.939   0.683   2.330 -0.5649 -0.4553 -1.1227
 6320TIP3    H240376   5.073   0.753   2.337 -0.0271 -1.5594  0.0922
 6321TIP3   OH240377   4.896   5.117  15.480  0.4214  0.7865  0.1901
 6321TIP3    H140378   4.841   5.060  15.533 -1.5573  0.3683 -2.1572
 6321TIP3    H240379   4.980   5.071  15.472  0.3740  0.3516  1.9336
 6322TIP3   OH240380   3.529   6.096   4.072  0.7139 -0.5034 -0.0181
 6322TIP3    H140381   3.553   6.016   4.119 -0.1387 -0.8623 -0.1633
 6322TIP3    H240382   3.444   6.076   4.033 -0.4996  1.1086  1.5650
 6323TIP3   OH240383   1.711   5.235   2.290 -0.5537 -0.1261  0.1043
 6323TIP3    H140384   1.796   5.207   2.256 -0.8722 -1.4227  0.3499
 6323TIP3    H240385   1.655   5.158   2.282 -1.9251  0.9127 -0.7129
 6324TIP3   OH240386   4.625   5.304  15.881 -0.7275  0.1870  0.1413
 6324TIP3    H140387   4.644   5.396  15.861  3.5597 -0.2915  1.1671
 6324TIP3    H240388   4.666   5.289  15.966  1.3035 -3.3589 -1.2622
 6325TIP3   OH240389   1.863   1.455  12.550  0.5410 -0.4997 -0.2298
 6325TIP3    H140390   1.941   1.448  12.495  2.4321 -1.2266  2.3486
 6325TIP3    H240391   1.825   1.367  12.548  0.7677 -0.5998 -0.1371
 6326TIP3   OH240392   3.450   5.126  16.377  0.5486  0.4094 -0.0132
 6326TIP3    H140393   3.400   5.153  16.300 -0.6132  2.8365  1.4488
 6326TIP3    H240394   3.384   5.106  16.443  1.5268 -1.0205  0.5834
 6327TIP3   OH240395   2.655   4.031  12.450  0.2561 -0.2558 -0.1123
 6327TIP3    H140396   2.663   3.949  12.499 -1.2021 -1.6740 -2.1059
 6327TIP3    H240397   2.620   4.093  12.514  0.7244 -1.3589  1.2712
 6328TIP3   OH240398   4.289   3.392   6.659  0.2776 -0.1409  0.8648
 6328TIP3    H140399   4.376   3.378   6.696  0.8388  1.9718  0.4858
 6328TIP3    H240400   4.305   3.437   6.576 -1.1130 -1.7955 -0.3631
 6329TIP3   OH240401   4.458   3.971   1.497 -0.1094 -0.1433  0.5929
 6329TIP3    H140402   4.377   3.950   1.543  0.0124  0.1759  0.9548
 6329TIP3    H240403   4.498   3.887   1.480  0.3661 -0.2213  2.0132
 6330TIP3   OH240404   4.579   6.732  13.930  0.0713  0.2932  0.9107
 6330TIP3    H140405   4.653   6.693  13.978  1.2161  0.0550 -0.9488
 6330TIP3    H240406   4.608   6.735  13.839 -2.1624  0.4006  0.1386
 6331TIP3   OH240407   6.369   5.761  12.356 -0.0874 -0.2292 -0.7624
 6331TIP3    H140408   6.334   5.728  12.439  2.2070 -0.9577 -0.0186
 6331TIP3    H240409   6.331   5.848  12.347 -0.2806 -0.0807  1.1134
 6332TIP3   OH240410   3.118   2.256  11.684 -0.7919  0.1524  0.7959
 6332TIP3    H140411   3.118   2.171  11.641  0.0042  0.0956  0.9109
 6332TIP3    H240412   3.100   2.237  11.776 -0.4394  0.0977  0.8519
 6333TIP3   OH240413   0.122   2.958  14.801 -0.1163 -0.3311 -0.1430
 6333TIP3    H140414   0.114   2.871  14.764  1.0702 -0.9164  0.8958
 6333TIP3    H240415   0.061   3.012  14.750 -0.7693 -1.7224 -0.8788
 6334TIP3   OH240416   2.619   1.798   2.904 -0.1621 -0.4819 -0.0047
 6334TIP3    H140417   2.628   1.704   2.889  0.9477 -0.3430 -0.3324
 6334TIP3    H240418   2.652   1.810   2.993  1.9298 -0.1284 -0.7688
 6335TIP3   OH240419   1.511   5.852   5.785 -0.0388  0.3909 -0.2195
 6335TIP3    H140420   1.551   5.783   5.732  0.6305  1.5691 -1.2828
 6335TIP3    H240421   1.584   5.904   5.819 -0.3551 -0.8612  2.7517
 6336TIP3   OH240422   1.719   5.574  16.921 -0.1081 -0.2957  0.4027
 6336TIP3    H140423   1.662   5.528  16.983 -1.9543 -0.0627 -1.0249
 6336TIP3    H240424   1.738   5.658  16.963 -1.8790  0.1369  0.4308
 6337TIP3   OH240425   0.472   1.030  10.295  0.8658  0.8413 -0.2074
 6337TIP3    H140426   0.470   1.125  10.298  1.6264  0.8566 -0.0087
 6337TIP3    H240427   0.524   1.009  10.218  0.3943  0.5767 -0.4627
 6338TIP3   OH240428   0.986   2.658   6.481  0.1524 -0.4711 -0.0035
 6338TIP3    H140429   1.067   2.609   6.497  0.2668 -0.6844 -1.1325
 6338TIP3    H240430   0.948   2.671   6.568  1.3131 -0.5125  0.5336
 6339TIP3   OH240431   4.074   1.926  13.789  0.4450  0.1570 -0.2246
 6339TIP3    H140432   4.155   1.959  13.752  0.6578 -0.5678 -0.4235
 6339TIP3    H240433   4.008   1.940  13.720  0.2112  1.5306  0.2608
 6340TIP3   OH240434   5.566   3.576  12.659 -0.5874 -0.2402  0.1493
 6340TIP3    H140435   5.575   3.487  12.693  0.4224  0.1165  0.8773
 6340TIP3    H240436   5.548   3.629  12.736 -2.5376  0.0298 -0.4510
 6341TIP3   OH240437   0.734   1.890  11.220  0.0122 -0.1920 -0.0470
 6341TIP3    H140438   0.740   1.836  11.298  3.5994 -1.7330 -1.1970
 6341TIP3    H240439   0.707   1.829  11.151 -1.4517  0.7878 -0.3888
 6342TIP3   OH240440   6.109   1.992   3.915 -0.7312  0.2879 -0.5134
 6342TIP3    H140441   6.174   1.994   3.846 -2.5704 -0.1098 -2.3654
 6342TIP3    H240442   6.135   1.918   3.971 -0.2545 -0.6447 -1.9192
 6343TIP3   OH240443   4.404   5.011   1.415 -0.1287 -0.4641 -0.2849
 6343TIP3    H140444   4.312   4.999   1.392 -0.5473 -2.1528  1.9080
 6343TIP3    H240445   4.406   5.094   1.463 -0.9659 -1.4255  1.5090
 6344TIP3   OH240446   6.217   0.366   1.752  0.0733  0.0188 -0.5034
 6344TIP3    H140447   6.219   0.447   1.700  0.8707 -0.7527 -1.7084
 6344TIP3    H240448   6.212   0.296   1.687 -1.3471 -0.9011  0.5401
 6345TIP3   OH240449   2.575   0.626  12.953  0.3801  0.5615  0.0077
 6345TIP3    H140450   2.602   0.626  13.045 -1.1685 -0.2044  0.4959
 6345TIP3    H240451   2.525   0.707  12.942 -0.0713  0.2947  0.0557
 6346TIP3   OH240452   6.683   0.665  15.661 -0.1243  0.0279  0.2069
 6346TIP3    H140453   6.614   0.601  15.640  0.7831 -0.5221 -1.2850
 6346TIP3    H240454   6.678   0.676  15.756 -1.2298 -1.2031  0.3169
 6347TIP3   OH240455   5.989   4.320   5.868  0.2715 -0.4809 -0.0603
 6347TIP3    H140456   6.058   4.381   5.841  0.9056 -1.5492 -0.9260
 6347TIP3    H240457   5.929   4.317   5.793  0.4696 -1.2382 -0.1921
 6348TIP3   OH240458   5.183   5.075   0.633  0.1050 -0.4089 -0.3084
 6348TIP3    H140459   5.169   4.980   0.641  0.4078 -0.3848  0.5648
 6348TIP3    H240460   5.269   5.090   0.671 -0.2597  0.3211  0.2411
 6349TIP3   OH240461   0.926   4.642  12.832 -0.5051 -0.1377 -0.7259
 6349TIP3    H140462   0.929   4.646  12.927 -0.0012  1.2396 -0.7879
 6349TIP3    H240463   0.875   4.563  12.813 -0.5990 -0.4296  0.6742
 6350TIP3   OH240464   0.769   1.416  17.126 -0.8273 -0.8109 -0.1455
 6350TIP3    H140465   0.836   1.384  17.067 -0.5259 -2.1284  0.8507
 6350TIP3    H240466   0.795   1.506  17.147 -0.5402 -0.5907 -1.3917
 6351TIP3   OH240467   0.237   2.343  13.268  0.1173  0.5355 -0.6453
 6351TIP3    H140468   0.220   2.252  13.291  2.4681  0.0744 -0.4427
 6351TIP3    H240469   0.203   2.393  13.342 -1.1236 -0.1572 -0.7204
 6352TIP3   OH240470   3.585   6.210  17.131  0.0012 -0.0212  0.5298
 6352TIP3    H140471   3.611   6.237  17.219  1.2743 -0.3622  0.2650
 6352TIP3    H240472   3.667   6.197  17.083 -0.6596 -0.1890 -0.6116
 6353TIP3   OH240473   6.034   2.779  15.848 -0.0277 -0.0286 -0.5038
 6353TIP3    H140474   5.965   2.731  15.894  0.2192 -1.3453 -1.4426
 6353TIP3    H240475   6.055   2.853  15.906 -3.0749  1.1544 -0.7507
 6354TIP3   OH240476   0.540   0.081  10.751  0.6223 -0.2302 -0.1687
 6354TIP3    H140477   0.495   0.028  10.686  1.3987  0.3543 -1.2152
 6354TIP3    H240478   0.482   0.155  10.767 -0.0677 -0.9262  0.6474
 6355TIP3   OH240479   3.594   3.903  10.589  0.5280  0.2178 -0.1322
 6355TIP3    H140480   3.545   3.960  10.529  1.9462 -0.5925 -2.1816
 6355TIP3    H240481   3.539   3.899  10.668 -1.0589  1.9598 -1.0561
 6356TIP3   OH240482   5.011   6.438   1.062 -0.4889  0.1970 -0.4884
 6356TIP3    H140483   4.989   6.414   1.152  1.0181  2.9085  0.7361
 6356TIP3    H240484   4.947   6.506   1.040 -0.5853 -0.1596 -1.3261
 6357TIP3   OH240485   4.843   3.157  15.298 -0.2442  0.0209 -0.0385
 6357TIP3    H140486   4.800   3.199  15.372 -1.6411  0.9075 -1.2777
 6357TIP3    H240487   4.936   3.173  15.311 -0.3830 -0.4591  1.8625
 6358TIP3   OH240488   4.159   2.422   1.542  0.0600  0.2517  0.2198
 6358TIP3    H140489   4.065   2.413   1.558  0.1985  1.1929  1.7355
 6358TIP3    H240490   4.171   2.515   1.522  0.5270 -0.0879 -1.1809
 6359TIP3   OH240491   6.287   1.242  15.926 -0.2445  0.3992 -0.3202
 6359TIP3    H140492   6.305   1.302  15.999 -1.4685 -1.0945  1.2937
 6359TIP3    H240493   6.192   1.226  15.931 -0.2731 -0.0985 -1.9721
 6360TIP3   OH240494   4.198   4.125   2.355  0.2403  0.4541 -0.5717
 6360TIP3    H140495   4.256   4.196   2.330  1.1805 -0.5406 -1.3595
 6360TIP3    H240496   4.237   4.047   2.313 -1.6689 -0.2438 -1.1586
 6361TIP3   OH240497   5.057   3.501   3.200  0.7348  0.6532  0.7041
 6361TIP3    H140498   5.046   3.561   3.126 -0.8523  0.8808  1.0773
 6361TIP3    H240499   4.981   3.443   3.195  0.9888  0.2075  1.7267
 6362TIP3   OH240500   2.149   2.853  14.439 -0.0795  0.1201  0.0989
 6362TIP3    H140501   2.125   2.778  14.384  1.9880 -0.4504 -0.1148
 6362TIP3    H240502   2.099   2.841  14.519 -0.8350 -0.7137 -0.4672
 6363TIP3   OH240503   4.359   5.233   0.595 -0.0506  0.1988  0.7715
 6363TIP3    H140504   4.418   5.305   0.616 -2.0909  2.1138  0.3850
 6363TIP3    H240505   4.353   5.233   0.500  0.4303 -0.9561  0.7256
 6364TIP3   OH240506   0.629   5.082  16.072 -0.2437 -0.7860  0.1316
 6364TIP3    H140507   0.597   5.154  16.017  1.1142 -1.4387 -1.6039
 6364TIP3    H240508   0.555   5.021  16.076 -0.7103 -0.2454 -0.1069
 6365TIP3   OH240509   1.829   3.606   6.047 -0.1302  0.3516  0.0596
 6365TIP3    H140510   1.888   3.570   6.113  0.4848  1.1327 -0.0503
 6365TIP3    H240511   1.852   3.699   6.043 -1.6131  0.7517  0.2692
 6366TIP3   OH240512   4.463   4.297   0.198 -0.1412  0.1578  0.2907
 6366TIP3    H140513   4.537   4.355   0.213 -0.2849 -0.1758  2.6622
 6366TIP3    H240514   4.390   4.339   0.244 -1.8965  1.1832 -3.0638
 6367TIP3   OH240515   4.674   4.963   1.324  0.0694  0.3373 -0.1283
 6367TIP3    H140516   4.722   4.938   1.403  0.7133  0.1341 -0.5697
 6367TIP3    H240517   4.583   4.968   1.351  0.2761  0.2101  0.6109
 6368TIP3   OH240518   4.145   0.914   1.679 -0.1154  0.0258 -0.0663
 6368TIP3    H140519   4.198   0.936   1.755  1.6133  1.7172 -1.6370
 6368TIP3    H240520   4.176   0.828   1.652 -0.2808 -0.2916  0.7321
 6369TIP3   OH240521   4.470   2.824  14.615 -0.4214 -0.2085  0.1944
 6369TIP3    H140522   4.390   2.774  14.599 -0.4516  0.0870 -0.6106
 6369TIP3    H240523   4.441   2.915  14.618  0.1473  0.1172 -2.2665
 6370TIP3   OH240524   1.537   1.249   0.182 -0.4728  0.6596 -0.1999
 6370TIP3    H140525   1.605   1.202   0.231 -1.1843  0.0652  0.2509
 6370TIP3    H240526   1.485   1.179   0.142 -0.5359  1.1224 -0.9300
 6371TIP3   OH240527   2.359   5.211  14.545 -0.4455 -0.5800  0.0041
 6371TIP3    H140528   2.272   5.173  14.555  0.4398 -2.5512  0.7616
 6371TIP3    H240529   2.374   5.214  14.450 -0.4084 -2.5704 -0.0859
 6372TIP3   OH240530   0.578   0.038   2.793  0.6932 -0.3868 -0.5359
 6372TIP3    H140531   0.575   0.126   2.756  0.0523 -0.7411 -1.3817
 6372TIP3    H240532   0.503  -0.006   2.755 -0.0303 -0.7853  1.2593
 6373TIP3   OH240533   3.272   5.988   2.107 -0.4769 -0.3997 -0.2759
 6373TIP3    H140534   3.361   5.956   2.122  0.8679  2.7360 -0.6142
 6373TIP3    H240535   3.216   5.928   2.156  1.8738 -2.1921  0.3923
 6374TIP3   OH240536   2.035   5.229   0.873  0.0740 -0.0418  0.7074
 6374TIP3    H140537   2.043   5.235   0.777  0.9101 -1.5287  0.6497
 6374TIP3    H240538   2.122   5.199   0.902 -0.3718 -0.2572  1.8695
 6375TIP3   OH240539   6.667   3.142   6.239 -0.0211  0.1038  0.1512
 6375TIP3    H140540   6.748   3.124   6.286  1.8776 -2.2515 -3.6281
 6375TIP3    H240541   6.618   3.060   6.242 -1.6163  1.0119  0.9485
 6376TIP3   OH240542   5.290   6.019   1.195  0.2700 -0.2089 -0.4430
 6376TIP3    H140543   5.259   5.979   1.276  1.4023  0.7020  0.4733
 6376TIP3    H240544   5.268   5.955   1.127 -3.1865  0.1702  0.1352
 6377TIP3   OH240545   3.164   0.475  16.861 -0.0818  0.3814 -0.1720
 6377TIP3    H140546   3.086   0.473  16.806  0.1001  0.1819 -0.4239
 6377TIP3    H240547   3.175   0.385  16.892  0.5139  0.2256 -0.8043
 6378TIP3   OH240548   0.140   3.794   0.574  0.0413  0.7984  0.6329
 6378TIP3    H140549   0.201   3.852   0.619  0.4553  0.2782  0.7465
 6378TIP3    H240550   0.102   3.849   0.505 -0.2744  1.4705  1.3266
 6379TIP3   OH240551   0.722   2.785   5.034 -0.0510 -0.4829 -0.5492
 6379TIP3    H140552   0.776   2.736   5.096 -1.7713 -1.5625  0.1696
 6379TIP3    H240553   0.647   2.814   5.085 -0.2985  0.7514 -1.5793
 6380TIP3   OH240554   1.378   2.939  14.807 -0.2555 -0.3627  0.1410
 6380TIP3    H140555   1.304   2.898  14.852  0.6624 -0.3442  1.7437
 6380TIP3    H240556   1.452   2.883  14.827  0.4093  0.3271 -0.3495
 6381TIP3   OH240557   2.264   4.784  15.080 -0.3450  0.4273  0.6444
 6381TIP3    H140558   2.200   4.848  15.113 -0.2752  0.7240  0.2194
 6381TIP3    H240559   2.222   4.745  15.004  0.0491  0.7531  0.2557
 6382TIP3   OH240560   2.158   4.705   2.810 -0.4072 -0.3356 -0.2509
 6382TIP3    H140561   2.126   4.787   2.848 -1.8775 -1.2994  0.7073
 6382TIP3    H240562   2.253   4.712   2.814 -0.5189  1.1251  0.2480
 6383TIP3   OH240563   0.248   5.264   3.528 -0.3997  0.3604  0.6418
 6383TIP3    H140564   0.171   5.246   3.582 -0.6204 -0.5087  0.0563
 6383TIP3    H240565   0.236   5.209   3.450  1.6145 -1.0435  1.2519
 6384TIP3   OH240566   4.510   0.390   3.432 -0.0844  0.5226  0.0890
 6384TIP3    H140567   4.529   0.376   3.524  1.0441 -0.2551 -0.2424
 6384TIP3    H240568   4.566   0.463   3.407 -0.2942  0.6496 -0.0136
 6385TIP3   OH240569   6.693   0.348   0.823  0.2871 -0.9690  0.1639
 6385TIP3    H140570   6.623   0.376   0.882 -1.3084  0.3177 -2.1890
 6385TIP3    H240571   6.658   0.362   0.735  3.9047  0.9977 -1.2094
 6386TIP3   OH240572   5.577   5.001  15.828  0.3414 -0.2368 -0.8150
 6386TIP3    H140573   5.638   4.949  15.880 -0.7994 -0.4362  0.3910
 6386TIP3    H240574   5.551   4.943  15.756 -0.3642 -1.1077  0.1107
 6387TIP3   OH240575   1.337   0.261  15.632  0.4878 -0.0479 -0.3551
 6387TIP3    H140576   1.402   0.314  15.585 -0.3432  0.2611 -1.1800
 6387TIP3    H240577   1.319   0.188  15.574  1.8241 -1.4352  0.8969
 6388TIP3   OH240578   3.613   2.020   4.889 -0.1443  0.3906  0.1006
 6388TIP3    H140579   3.612   1.976   4.974  0.2546  0.5169  0.1766
 6388TIP3    H240580   3.687   2.081   4.896  0.2388  0.0088 -0.5330
 6389TIP3   OH240581   0.404   6.643  12.549  0.0863  0.0370  0.1412
 6389TIP3    H140582   0.440   6.555  12.542  0.0778  0.1474 -1.4387
 6389TIP3    H240583   0.481   6.699  12.565  0.4839  0.0959 -1.8173
 6390TIP3   OH240584   0.148   2.540   4.839  0.0432  0.1771 -0.3265
 6390TIP3    H140585   0.142   2.538   4.934 -0.2410 -2.1956 -0.3376
 6390TIP3    H240586   0.198   2.462   4.816 -0.5176  0.2985 -2.1526
 6391TIP3   OH240587   6.590   0.060   0.173 -0.5442 -0.1338  0.0166
 6391TIP3    H140588   6.529   0.106   0.115 -0.5214 -0.5119 -0.3094
 6391TIP3    H240589   6.650   0.015   0.113 -0.4187 -0.3907  0.3356
 6392TIP3   OH240590   6.139   6.712   5.314  0.5860 -0.9318  0.1479
 6392TIP3    H140591   6.082   6.652   5.362  0.1289  0.0567  0.8929
 6392TIP3    H240592   6.180   6.765   5.382  1.1269 -0.5216 -0.4835
 6393TIP3   OH240593   2.614   2.972  12.192  0.5989  0.0904  0.5260
 6393TIP3    H140594   2.633   2.918  12.269  1.0010  1.1366  1.1811
 6393TIP3    H240595   2.522   2.995  12.201  0.2925 -0.8661 -0.0142
 6394TIP3   OH240596   4.920   0.164  13.695  0.2848  0.4096  0.1250
 6394TIP3    H140597   4.990   0.101  13.708 -1.0746 -1.0000  0.8988
 6394TIP3    H240598   4.958   0.248  13.721  2.0580 -0.0800 -0.7141
 6395TIP3   OH240599   1.438   2.614  13.828 -0.2354 -0.0460  0.4159
 6395TIP3    H140600   1.423   2.568  13.745 -1.6611  1.3689 -0.1649
 6395TIP3    H240601   1.529   2.596  13.850 -0.6813 -3.1155  0.2341
 6396TIP3   OH240602   1.289   0.826  15.951  0.0784  0.1794 -0.1104
 6396TIP3    H140603   1.362   0.801  16.008 -0.3989 -0.2406  0.3184
 6396TIP3    H240604   1.295   0.766  15.877 -1.6637 -1.9949  1.3843
 6397TIP3   OH240605   5.858   3.032  16.274  0.0393 -0.0586 -0.1865
 6397TIP3    H140606   5.953   3.029  16.276  0.1406  2.1182  0.2505
 6397TIP3    H240607   5.836   3.125  16.280 -2.1249 -0.5472  0.5095
 6398TIP3   OH240608   5.560   0.595   5.533 -0.2876 -0.2306 -0.1703
 6398TIP3    H140609   5.541   0.671   5.478 -1.2081 -1.0755 -1.0474
 6398TIP3    H240610   5.592   0.633   5.615  0.8934  1.0490 -1.1807
 6399TIP3   OH240611   3.122   6.335  11.614 -0.1819  0.2594 -0.0484
 6399TIP3    H140612   3.214   6.362  11.611 -0.1385  0.1290  0.0738
 6399TIP3    H240613   3.105   6.318  11.707  0.2471 -1.6876 -0.2799
 6400TIP3   OH240614   6.597   0.534   3.900 -0.7716  0.4194  0.3741
 6400TIP3    H140615   6.520   0.590   3.910 -0.7023  0.3064  1.6848
 6400TIP3    H240616   6.609   0.494   3.986  1.0398  0.8149  0.3461
 6401TIP3   OH240617   1.862   3.104   5.295  0.0407 -0.0630 -0.3249
 6401TIP3    H140618   1.899   3.192   5.297  0.2368 -0.1312 -0.6741
 6401TIP3    H240619   1.786   3.107   5.352 -1.1522  0.8709 -1.8995
 6402TIP3   OH240620   4.470   3.111   4.217  0.0449  0.3210 -0.3989
 6402TIP3    H140621   4.556   3.153   4.217 -0.1381  0.7984  1.2404
 6402TIP3    H240622   4.408   3.183   4.230 -0.6573  0.0267 -1.8764
 6403TIP3   OH240623   0.750   6.550   3.741  0.0827  0.6696  0.0719
 6403TIP3    H140624   0.743   6.608   3.665 -0.9868  0.9283  0.3520
 6403TIP3    H240625   0.665   6.557   3.785 -0.9357 -2.6643 -1.0090
 6404TIP3   OH240626   2.724   1.603  17.128  0.4234  0.2073 -0.5022
 6404TIP3    H140627   2.779   1.528  17.108  0.1794  0.1083 -0.8247
 6404TIP3    H240628   2.748   1.629  17.217  0.6305 -0.1439 -0.4565
 6405TIP3   OH240629   2.353   6.563  11.610 -0.4392  0.1047 -0.0931
 6405TIP3    H140630   2.382   6.597  11.695 -1.5558 -2.5062  1.4845
 6405TIP3    H240631   2.260   6.587  11.605 -0.5053 -0.1899 -0.3112
 6406TIP3   OH240632   2.359   4.617  12.289 -0.3161 -0.3235 -0.9395
 6406TIP3    H140633   2.383   4.628  12.197  0.9862  2.4311 -0.3973
 6406TIP3    H240634   2.341   4.707  12.319 -0.9304 -1.1774  1.4319
 6407TIP3   OH240635   0.887   6.309  15.837 -0.3101 -0.2101 -0.2729
 6407TIP3    H140636   0.837   6.229  15.826 -1.9737  0.6580  0.7046
 6407TIP3    H240637   0.926   6.302  15.924  0.9676 -0.6679 -0.8427
 6408TIP3   OH240638   0.353   6.113  13.703  0.1096  0.2692 -0.3544
 6408TIP3    H140639   0.428   6.084  13.652 -0.6190 -0.5168 -0.9939
 6408TIP3    H240640   0.381   6.198  13.739  1.3624 -0.0941 -0.4205
 6409TIP3   OH240641   1.142   1.535   2.389  0.4905  0.8620 -0.3557
 6409TIP3    H140642   1.084   1.496   2.323  1.2398  0.5157 -0.8193
 6409TIP3    H240643   1.136   1.629   2.374  0.7335  0.7780 -0.9926
 6410TIP3   OH240644   0.483   2.078  12.172  0.3036  0.0690 -0.0339
 6410TIP3    H140645   0.497   2.019  12.246  1.1546 -0.1148 -0.3249
 6410TIP3    H240646   0.493   2.166  12.209  0.5500 -0.0172  0.1126
 6411TIP3   OH240647   6.492   2.810  12.620 -0.1765  0.3953 -0.0906
 6411TIP3    H140648   6.587   2.804  12.627 -0.3722 -2.6468  1.8559
 6411TIP3    H240649   6.465   2.723  12.589 -2.4174  0.4657  1.4403
 6412TIP3   OH240650   3.383   4.902   4.467 -0.2729  0.4858  0.7356
 6412TIP3    H140651   3.332   4.833   4.426  0.3810 -0.4772  1.5023
 6412TIP3    H240652   3.363   4.981   4.416  0.5576 -0.6550 -1.4572
 6413TIP3   OH240653   4.733   1.813   1.312  0.5069  0.0495  0.0599
 6413TIP3    H140654   4.800   1.760   1.269  0.0310 -1.8676  1.5415
 6413TIP3    H240655   4.654   1.798   1.259  0.6166  0.1570 -0.1374
 6414TIP3   OH240656   3.610   3.388  12.291  0.2146 -0.4543 -0.5476
 6414TIP3    H140657   3.621   3.477  12.324 -0.3359 -0.9723  1.1396
 6414TIP3    H240658   3.518   3.382  12.266 -0.2822 -1.1205  1.2863
 6415TIP3   OH240659   2.219   4.301   2.007 -0.2942 -0.4750 -0.6733
 6415TIP3    H140660   2.261   4.254   2.079  1.0044  0.5955 -0.6789
 6415TIP3    H240661   2.138   4.253   1.990  0.8286 -2.5295 -0.5143
 6416TIP3   OH240662   6.726   0.887  15.140  0.5933  0.2114  0.0203
 6416TIP3    H140663   6.822   0.891  15.140  0.6222 -0.4159 -0.7746
 6416TIP3    H240664   6.705   0.803  15.101 -0.3012  0.8149 -0.8422
 6417TIP3   OH240665   6.533   5.401   3.964 -0.1350  0.0447 -0.3396
 6417TIP3    H140666   6.463   5.394   4.029  1.1056 -0.5171  0.9909
 6417TIP3    H240667   6.613   5.379   4.012  0.8398 -0.3402 -2.0525
 6418TIP3   OH240668   1.808   2.118  15.429  0.2314  0.1898 -0.3322
 6418TIP3    H140669   1.901   2.142  15.427  0.1155  0.7101  0.4719
 6418TIP3    H240670   1.761   2.201  15.434 -0.2606 -0.0949 -0.1461
 6419TIP3   OH240671   3.607   4.717  14.660 -0.4110 -0.2259 -0.0649
 6419TIP3    H140672   3.612   4.704  14.755 -0.1999 -1.8205 -0.2656
 6419TIP3    H240673   3.690   4.684  14.627 -0.4356  0.4300 -0.8075
 6420TIP3   OH240674   3.596   0.097   0.674  0.1962  0.7949 -0.4425
 6420TIP3    H140675   3.551   0.040   0.736  1.0754  3.2017  2.6558
 6420TIP3    H240676   3.543   0.093   0.595  0.5531 -4.6698 -0.7767
 6421TIP3   OH240677   4.520   4.304  12.081 -0.4804 -0.2677  0.2653
 6421TIP3    H140678   4.559   4.392  12.071 -0.1739 -0.5563 -1.3439
 6421TIP3    H240679   4.470   4.291  12.001 -0.3622 -1.6457  0.3912
 6422TIP3   OH240680   0.204   4.256  16.059  0.0671 -0.4899 -0.2697
 6422TIP3    H140681   0.283   4.221  16.019  0.0824  0.2893 -0.9587
 6422TIP3    H240682   0.140   4.185  16.052  0.5516 -0.9450 -0.1613
 6423TIP3   OH240683   4.198   4.381   3.000  0.1990  0.3113 -0.1078
 6423TIP3    H140684   4.206   4.355   3.092 -1.2388  0.8176  0.1769
 6423TIP3    H240685   4.146   4.311   2.960 -0.8938  1.0909 -0.0726
 6424TIP3   OH240686   6.043   0.694  15.027  0.0965 -0.3359 -0.0444
 6424TIP3    H140687   6.032   0.697  15.122 -0.6996  0.0001 -0.1401
 6424TIP3    H240688   6.114   0.756  15.009 -1.3906  1.5160  0.1172
 6425TIP3   OH240689   5.950   2.726   0.082  0.5508  0.1513 -0.4155
 6425TIP3    H140690   5.973   2.649   0.029  0.0298 -1.3087  1.3616
 6425TIP3    H240691   5.921   2.689   0.165  1.6239  2.3518  1.0116
 6426TIP3   OH240692   5.058   4.788   1.740  0.5789  0.2724  0.4182
 6426TIP3    H140693   4.988   4.760   1.799 -0.3348  1.1598 -0.2050
 6426TIP3    H240694   5.108   4.709   1.722  0.8503 -0.0321  2.3335
 6427TIP3   OH240695   5.002   4.483   2.298 -0.1584 -0.2080  0.4082
 6427TIP3    H140696   5.084   4.468   2.250  0.0705  2.9156 -0.3711
 6427TIP3    H240697   4.934   4.482   2.231 -0.3839  0.0170  0.6294
 6428TIP3   OH240698   5.362   1.502   0.768  0.2226  0.0769 -0.6576
 6428TIP3    H140699   5.307   1.451   0.828  0.8116 -0.8767 -0.9125
 6428TIP3    H240700   5.321   1.589   0.766  0.4905  0.3317  1.5656
 6429TIP3   OH240701   3.349   4.072   5.056  0.3516 -0.2108 -0.6697
 6429TIP3    H140702   3.367   3.979   5.041  0.0749 -0.3534 -0.1636
 6429TIP3    H240703   3.393   4.091   5.139 -2.8152 -0.9201  1.3504
 6430TIP3   OH240704   4.762   6.389  16.351  0.3237 -0.1527  0.4446
 6430TIP3    H140705   4.678   6.364  16.313  0.1095  2.3844 -0.9415
 6430TIP3    H240706   4.753   6.371  16.445 -1.9927  0.5911  0.4107
 6431TIP3   OH240707   2.597   4.557   5.200  0.7041 -0.8492  0.2109
 6431TIP3    H140708   2.562   4.549   5.111  0.7472 -1.0114  0.2095
 6431TIP3    H240709   2.588   4.651   5.220 -0.9786 -1.0824  0.7188
 6432TIP3   OH240710   1.011   5.278   5.682 -0.6213 -0.0703 -0.6811
 6432TIP3    H140711   0.992   5.353   5.738 -0.0644 -0.8150  0.5587
 6432TIP3    H240712   0.926   5.255   5.643 -1.4222 -0.6120  1.2685
 6433TIP3   OH240713   0.568   2.495  15.887  0.1813 -0.3801 -0.0853
 6433TIP3    H140714   0.516   2.443  15.826 -0.2721 -0.7938  0.6347
 6433TIP3    H240715   0.523   2.485  15.971 -0.1598  1.5174 -0.0057
 6434TIP3   OH240716   1.279   4.007  15.221  0.0389 -0.4091  0.1655
 6434TIP3    H140717   1.327   4.012  15.304 -0.4749  0.4734  0.4116
 6434TIP3    H240718   1.336   4.050  15.158  0.7274 -1.6515 -0.0990
 6435TIP3   OH240719   1.376   5.904  10.406 -0.0741 -0.0178 -0.7486
 6435TIP3    H140720   1.369   5.980  10.464  0.6537 -0.2362 -0.3582
 6435TIP3    H240721   1.315   5.923  10.334 -0.2340  0.7233 -0.4312
 6436TIP3   OH240722   3.698   0.679   3.393  0.4486  0.1046  0.3376
 6436TIP3    H140723   3.607   0.700   3.376  1.3403  1.4563 -4.3117
 6436TIP3    H240724   3.697   0.586   3.418 -2.1906  0.3101  1.2779
 6437TIP3   OH240725   0.943   1.696  15.987  0.0772 -0.3015  0.0256
 6437TIP3    H140726   0.860   1.689  15.939 -0.6212  1.1307  0.9451
 6437TIP3    H240727   0.995   1.757  15.936  0.0932 -0.2824  0.0642
 6438TIP3   OH240728   0.714   0.158  17.121  0.2652  0.1321 -0.6397
 6438TIP3    H140729   0.671   0.107  17.189  0.3324  1.2848  0.3201
 6438TIP3    H240730   0.797   0.113  17.105 -0.2365 -0.7601 -0.7611
 6439TIP3   OH240731   1.675   4.776   0.101 -1.0814  0.4291  0.9363
 6439TIP3    H140732   1.638   4.843   0.044 -2.4424 -0.1995  1.0146
 6439TIP3    H240733   1.614   4.702   0.092  0.1118 -0.6194  1.2155
 6440TIP3   OH240734   5.639   3.129  15.208 -0.2120 -0.1736  0.2247
 6440TIP3    H140735   5.711   3.192  15.206 -1.2954  1.1282  0.4918
 6440TIP3    H240736   5.679   3.046  15.182  1.2811  0.5985 -0.0794
 6441TIP3   OH240737   5.275   5.526   0.338  0.0780 -0.3950 -0.0503
 6441TIP3    H140738   5.237   5.486   0.260 -1.4498  0.8583  0.0225
 6441TIP3    H240739   5.361   5.557   0.310  0.2123 -1.3859 -0.7882
 6442TIP3   OH240740   0.510   0.958   5.125  0.1141 -0.0943 -0.2546
 6442TIP3    H140741   0.587   1.013   5.113 -0.7532  1.0892 -0.6217
 6442TIP3    H240742   0.437   1.014   5.098 -1.1131 -0.3599  2.2189
 6443TIP3   OH240743   4.246   5.956   5.909  0.0360 -0.4343 -0.0911
 6443TIP3    H140744   4.181   5.906   5.959  1.4891 -0.0226  2.3463
 6443TIP3    H240745   4.330   5.934   5.949  1.0918  1.2712 -1.2510
 6444TIP3   OH240746   6.346   2.447  13.862  0.2614  0.0709 -0.1447
 6444TIP3    H140747   6.344   2.382  13.932 -0.6388  0.0577 -0.1712
 6444TIP3    H240748   6.343   2.396  13.781  2.9860 -0.0032 -0.2764
 6445TIP3   OH240749   3.848   3.121  13.141  0.4173 -0.5338  0.1120
 6445TIP3    H140750   3.938   3.145  13.161  0.0753  0.6766  0.2888
 6445TIP3    H240751   3.800   3.134  13.223 -0.2166  0.4803 -0.3898
 6446TIP3   OH240752   1.735   4.772  15.639  0.4140 -0.1237 -0.6395
 6446TIP3    H140753   1.705   4.711  15.572 -2.3971 -0.7155  1.0005
 6446TIP3    H240754   1.824   4.796  15.611  0.7396 -3.0707 -2.6369
 6447TIP3   OH240755   4.389   2.145   0.727 -0.5305  0.1375 -0.0751
 6447TIP3    H140756   4.409   2.161   0.819 -0.5789  1.7319 -0.3182
 6447TIP3    H240757   4.466   2.097   0.694 -1.0264 -1.4955  1.0351
 6448TIP3   OH240758   1.439   6.311  12.777 -0.2326 -0.2293  0.0154
 6448TIP3    H140759   1.453   6.398  12.742  0.6736 -0.4423 -0.1787
 6448TIP3    H240760   1.347   6.292  12.759  0.0771 -0.1566 -1.8580
 6449TIP3   OH240761   0.996   5.757  10.294 -0.3829 -0.6233  0.5424
 6449TIP3    H140762   0.998   5.745  10.389  0.2263 -0.2817  0.5765
 6449TIP3    H240763   1.049   5.834  10.278  0.9509 -1.6623 -0.2356
 6450TIP3   OH240764   3.793   2.880  13.051  0.5236 -0.1008 -0.3002
 6450TIP3    H140765   3.823   2.952  13.108  1.3618  0.6349 -1.6197
 6450TIP3    H240766   3.860   2.874  12.983  0.0457 -1.6187 -0.6794
 6451TIP3   OH240767   0.889   1.511   5.892 -0.4847 -0.3068 -0.2570
 6451TIP3    H140768   0.891   1.604   5.872  0.9136 -0.1480  0.5342
 6451TIP3    H240769   0.903   1.468   5.807 -0.1559  0.2233 -0.4748
 6452TIP3   OH240770   0.300   0.428  11.531  0.3400  0.6767  0.3681
 6452TIP3    H140771   0.241   0.356  11.506  0.0832  0.7675  0.7026
 6452TIP3    H240772   0.255   0.507  11.501  0.9095  0.6648 -0.5501
 6453TIP3   OH240773   6.470   0.678   4.682  0.2212 -0.5680 -0.1326
 6453TIP3    H140774   6.546   0.620   4.672 -0.4857 -1.9397  1.8632
 6453TIP3    H240775   6.426   0.674   4.597  1.9438 -0.3349 -1.0856
 6454TIP3   OH240776   0.546   6.681  14.486  0.4282  0.0966  0.6610
 6454TIP3    H140777   0.494   6.724  14.554  0.1652 -0.3670  0.7591
 6454TIP3    H240778   0.503   6.596  14.474  0.2038  0.3506 -0.4030
 6455TIP3   OH240779   1.830   3.419   5.854  0.4239 -0.0064  0.1937
 6455TIP3    H140780   1.824   3.324   5.866  0.4552 -0.3205 -1.9125
 6455TIP3    H240781   1.835   3.454   5.943 -1.3262 -1.8534  1.1089
 6456TIP3   OH240782   2.671   4.632   4.636 -0.8330  0.1386  0.0114
 6456TIP3    H140783   2.614   4.673   4.701 -0.4030  0.8010 -0.0226
 6456TIP3    H240784   2.721   4.704   4.598  1.4235 -0.6030  1.3864
 6457TIP3   OH240785   5.441   3.779   2.532 -0.2241 -0.3455 -0.0950
 6457TIP3    H140786   5.417   3.688   2.545  3.7042 -1.7932 -1.3761
 6457TIP3    H240787   5.481   3.805   2.615 -1.6658  0.3920  0.3938
 6458TIP3   OH240788   0.468   4.520   5.976  0.3712  0.3874 -0.1137
 6458TIP3    H140789   0.438   4.481   5.895  0.0007  0.1980  0.1096
 6458TIP3    H240790   0.543   4.574   5.951 -0.6545  1.5319 -0.8289
 6459TIP3   OH240791   6.485   6.692  12.729  0.0339 -0.4486  0.4249
 6459TIP3    H140792   6.449   6.608  12.703 -1.5773  0.3319 -0.0259
 6459TIP3    H240793   6.547   6.715  12.661 -1.4465 -0.1156 -0.8711
 6460TIP3   OH240794   5.760   0.176  16.053  0.0448  0.5956 -0.3360
 6460TIP3    H140795   5.728   0.266  16.051  0.8272  0.8820 -0.8774
 6460TIP3    H240796   5.705   0.129  15.991  0.1429  0.8937 -0.6546
 6461TIP3   OH240797   5.215   3.004   3.379 -0.4613  0.0830  0.5389
 6461TIP3    H140798   5.120   3.014   3.380 -0.3977  1.6121 -1.8708
 6461TIP3    H240799   5.249   3.093   3.379  0.9477 -0.4211  0.1252
 6462TIP3   OH240800   4.202   5.251   5.513  0.4219  0.2040 -0.2901
 6462TIP3    H140801   4.153   5.302   5.578  0.9254  0.3280 -0.0040
 6462TIP3    H240802   4.161   5.164   5.515 -0.9708  0.8014 -1.3615
 6463TIP3   OH240803   4.217   1.392  16.075 -0.2782 -0.0926  0.2414
 6463TIP3    H140804   4.159   1.323  16.106  0.4763 -0.1143  1.7023
 6463TIP3    H240805   4.206   1.393  15.980 -3.7947  0.9274  0.5508
 6464TIP3   OH240806   0.116   0.880  15.944 -0.1045  0.1842 -0.2707
 6464TIP3    H140807   0.077   0.941  16.007  0.8976  0.4636  0.0980
 6464TIP3    H240808   0.080   0.794  15.968 -0.2556  0.3892  0.2531
 6465TIP3   OH240809   1.323   4.735   0.448 -0.2158  0.0358 -0.0149
 6465TIP3    H140810   1.329   4.775   0.361 -0.5118 -0.9039 -0.4799
 6465TIP3    H240811   1.408   4.693   0.461  1.6185  3.8041  2.0544
 6466TIP3   OH240812   0.595   1.558   2.196 -0.2158  0.1307  0.1852
 6466TIP3    H140813   0.610   1.480   2.248 -0.2373 -0.2243 -0.3295
 6466TIP3    H240814   0.540   1.614   2.251 -0.6701 -0.4556  0.3420
 6467TIP3   OH240815   1.596   3.277   4.058 -0.0521  0.0379 -0.4453
 6467TIP3    H140816   1.594   3.367   4.091  0.9648  0.1597 -0.6900
 6467TIP3    H240817   1.666   3.277   3.993  0.7038 -1.1849  0.3355
 6468TIP3   OH240818   0.275   3.390   4.370 -0.5539  0.1150 -0.0772
 6468TIP3    H140819   0.204   3.326   4.381  1.1161 -1.8772 -0.2305
 6468TIP3    H240820   0.354   3.343   4.398  1.1144  1.3024 -2.4553
 6469TIP3   OH240821   2.777   5.271  12.166  0.2827 -0.1330 -0.3615
 6469TIP3    H140822   2.787   5.289  12.259 -0.3619  0.6507 -0.4402
 6469TIP3    H240823   2.741   5.182  12.163 -0.7862  0.2770  0.1745
 6470TIP3   OH240824   4.798   2.072   3.140  0.5201 -0.5924  0.3728
 6470TIP3    H140825   4.858   2.065   3.066  0.5723  0.5121  0.2873
 6470TIP3    H240826   4.715   2.100   3.102  0.3860 -0.5907  0.6614
 6471TIP3   OH240827   4.302   6.338  13.959 -0.4441  0.8349  0.1907
 6471TIP3    H140828   4.341   6.426  13.960  0.7110  0.3550 -0.0117
 6471TIP3    H240829   4.250   6.336  13.879 -0.6950  1.4224  0.3340
 6472TIP3   OH240830   3.031   1.290   3.096 -0.0551  0.3294 -0.3125
 6472TIP3    H140831   3.109   1.242   3.069  1.0851  1.4303  0.9109
 6472TIP3    H240832   3.064   1.376   3.123 -1.7923  1.1069 -0.5428
 6473TIP3   OH240833   4.986   5.379  15.359  0.0040 -0.3310 -0.2002
 6473TIP3    H140834   5.000   5.300  15.307  0.5624 -1.1294  1.1147
 6473TIP3    H240835   4.978   5.348  15.449 -0.2503  1.0724  0.2948
 6474TIP3   OH240836   1.825   5.992   3.393  0.5496  0.4480  0.0351
 6474TIP3    H140837   1.851   5.909   3.353  0.1899  0.2203  0.2765
 6474TIP3    H240838   1.824   6.054   3.320  0.8785  0.2591 -0.1343
 6475TIP3   OH240839   1.083   3.156   2.542  0.1328  0.4049 -0.3354
 6475TIP3    H140840   1.061   3.063   2.551  0.4696  0.5564  2.9880
 6475TIP3    H240841   1.162   3.157   2.488  0.2341 -1.2368 -0.2662
 6476TIP3   OH240842   0.141   5.544   2.547 -0.1127 -0.2197  0.7831
 6476TIP3    H140843   0.149   5.639   2.544 -0.3313 -0.2200 -0.3187
 6476TIP3    H240844   0.205   5.512   2.484 -1.8572 -0.6535 -0.8918
 6477TIP3   OH240845   0.385   5.756   4.007 -0.5187  0.2783  0.3324
 6477TIP3    H140846   0.445   5.704   3.954  0.7399  2.4861 -0.5385
 6477TIP3    H240847   0.330   5.803   3.944 -2.4826 -0.8394  1.0986
 6478TIP3   OH240848   1.037   6.445   4.281 -0.3765  0.1122 -0.0574
 6478TIP3    H140849   1.019   6.457   4.375 -0.5419 -0.1312 -0.0587
 6478TIP3    H240850   1.005   6.358   4.261  0.0673 -0.0115 -0.2440
 6479TIP3   OH240851   2.344   2.899   0.846 -0.3976  0.0644 -0.1813
 6479TIP3    H140852   2.274   2.882   0.783 -0.7530 -0.0670  0.2382
 6479TIP3    H240853   2.379   2.812   0.866 -0.4681  0.0768  0.0020
 6480TIP3   OH240854   4.070   1.506  15.835  0.4803  0.5556 -0.0368
 6480TIP3    H140855   4.021   1.428  15.862  0.8426  0.9729  1.9890
 6480TIP3    H240856   4.017   1.579  15.866  2.4337  1.0221  2.5308
 6481TIP3   OH240857   5.811   1.161  15.431 -0.9545 -0.4336  0.2203
 6481TIP3    H140858   5.808   1.239  15.486 -0.5231 -0.0380 -0.3159
 6481TIP3    H240859   5.904   1.147  15.414 -1.0055 -1.2548  0.5801
 6482TIP3   OH240860   2.506   3.192  14.147  0.6545  0.4520 -0.6264
 6482TIP3    H140861   2.498   3.132  14.073  0.2422  0.3012 -0.4626
 6482TIP3    H240862   2.431   3.171  14.203  0.1086  1.5986 -0.9061
 6483TIP3   OH240863   3.213   3.716  15.263 -0.2427  0.6919  0.7851
 6483TIP3    H140864   3.227   3.730  15.357 -1.1515 -2.0150  1.4047
 6483TIP3    H240865   3.122   3.744  15.248 -0.0295  1.3227  0.6593
 6484TIP3   OH240866   3.903   4.585  14.620 -0.2477 -0.6521 -0.2356
 6484TIP3    H140867   3.986   4.540  14.631  0.0277 -0.2919 -0.8121
 6484TIP3    H240868   3.905   4.618  14.530 -0.0654  1.2345  0.4177
 6485TIP3   OH240869   4.287   1.491   5.600  0.0252  0.2031 -0.2759
 6485TIP3    H140870   4.309   1.413   5.651  0.4251  0.2747 -0.3359
 6485TIP3    H240871   4.303   1.564   5.660 -2.7182  0.1758  0.6606
 6486TIP3   OH240872   2.093   1.735   4.635 -0.2116 -0.2060  0.3381
 6486TIP3    H140873   2.142   1.692   4.705  0.0978 -0.3292  0.0483
 6486TIP3    H240874   2.024   1.672   4.612  0.0820 -0.4419  0.0925
 6487TIP3   OH240875   0.656   5.507  14.778  0.2673  0.1941  0.0788
 6487TIP3    H140876   0.724   5.563  14.813 -1.7104  1.8950  1.4355
 6487TIP3    H240877   0.597   5.491  14.852  0.1649 -2.8662 -0.5083
 6488TIP3   OH240878   1.007   4.646  10.744  0.0794 -0.4031  1.0030
 6488TIP3    H140879   0.946   4.658  10.671  1.1631  1.7231  0.3617
 6488TIP3    H240880   1.089   4.621  10.702 -0.0318 -2.2115  1.7766
 6489TIP3   OH240881   0.053   4.294  12.130  0.1677  0.0087 -0.6881
 6489TIP3    H140882   0.049   4.383  12.165  0.0612 -0.4785  0.6152
 6489TIP3    H240883   0.146   4.279  12.115  0.4921 -0.5165  1.5240
 6490TIP3   OH240884   3.405   1.526  15.244 -0.2159 -0.0865  0.3626
 6490TIP3    H140885   3.352   1.602  15.218 -0.2211  0.1204  0.9574
 6490TIP3    H240886   3.384   1.513  15.336  2.5537  1.5348  1.3456
 6491TIP3   OH240887   5.610   5.272  11.418  0.2206  0.0851  0.3878
 6491TIP3    H140888   5.531   5.326  11.410 -0.4517 -1.0351 -1.0678
 6491TIP3    H240889   5.609   5.242  11.508 -0.2458  1.2189  0.7826
 6492TIP3   OH240890   3.923   1.860  14.733 -0.4113 -0.0009  0.4263
 6492TIP3    H140891   3.846   1.916  14.732 -1.5589 -1.5305 -0.4612
 6492TIP3    H240892   3.969   1.883  14.814 -2.1203  0.5037  1.2853
 6493TIP3   OH240893   5.219   1.168  16.745  0.1861 -0.0036  0.2358
 6493TIP3    H140894   5.288   1.130  16.692 -1.8418  0.3240 -2.9516
 6493TIP3    H240895   5.207   1.256  16.709 -0.9690  0.4494  1.6277
 6494TIP3   OH240896   5.443   4.447   5.417  0.8599  0.2461  0.0778
 6494TIP3    H140897   5.349   4.430   5.407  0.4953  1.7111  0.6508
 6494TIP3    H240898   5.481   4.362   5.440 -0.7039  0.0213  2.1546
 6495TIP3   OH240899   2.926   1.160   3.504 -0.4266 -0.2362  0.4610
 6495TIP3    H140900   2.934   1.212   3.584  1.1072  2.2674 -1.1965
 6495TIP3    H240901   2.835   1.171   3.477 -1.2511 -1.9372  2.2868
 6496TIP3   OH240902   5.795   4.543  14.715  0.2159  0.0957 -0.1253
 6496TIP3    H140903   5.788   4.614  14.652 -1.2339 -0.4005 -0.5541
 6496TIP3    H240904   5.748   4.575  14.793 -0.9787 -0.5920 -0.5355
 6497TIP3   OH240905   4.827   4.436   2.073 -0.2087 -0.1052  0.2817
 6497TIP3    H140906   4.740   4.434   2.114 -0.6058  0.1721 -0.5191
 6497TIP3    H240907   4.831   4.355   2.022 -0.3490  0.2968 -0.3741
 6498TIP3   OH240908   0.096   1.848  11.665 -0.0172 -0.0852 -0.3967
 6498TIP3    H140909   0.127   1.769  11.710 -1.9159  0.0782  1.3721
 6498TIP3    H240910   0.070   1.907  11.736 -2.0799  0.6691 -1.6859
 6499TIP3   OH240911   6.604   2.171   3.784  0.0071  0.0414  0.6156
 6499TIP3    H140912   6.530   2.164   3.844  1.1213  0.6424  2.1314
 6499TIP3    H240913   6.632   2.080   3.770 -0.0539 -0.0985  1.3292
 6500TIP3   OH240914   6.331   6.310  12.282  0.6622 -0.1735 -0.6752
 6500TIP3    H140915   6.293   6.393  12.255 -2.0639 -0.9028  0.5960
 6500TIP3    H240916   6.406   6.298  12.223  2.3952  4.0134  0.3104
 6501TIP3   OH240917   4.771   0.152   5.038  0.2911 -0.5386  0.6707
 6501TIP3    H140918   4.753   0.058   5.031 -1.4122 -0.2489  0.8342
 6501TIP3    H240919   4.810   0.163   5.124 -0.9828 -0.8938  1.3059
 6502TIP3   OH240920   2.941   3.408   3.227  0.3480  0.6277 -0.2983
 6502TIP3    H140921   2.869   3.412   3.164  0.4076  1.6313 -0.3194
 6502TIP3    H240922   2.985   3.492   3.218  1.1314  0.2768  0.1812
 6503TIP3   OH240923   5.144   2.540  11.020 -0.2364 -0.5678 -0.2733
 6503TIP3    H140924   5.150   2.474  10.951  1.5558 -1.5523  0.7605
 6503TIP3    H240925   5.094   2.498  11.090  0.7207 -0.7813  0.3000
 6504TIP3   OH240926   3.526   3.149   4.613  0.6207 -0.0809 -0.0463
 6504TIP3    H140927   3.452   3.160   4.554 -1.1489 -1.8128  1.6964
 6504TIP3    H240928   3.572   3.072   4.580 -1.1571 -1.8939  1.4586
 6505TIP3   OH240929   2.671   0.037  16.596 -0.0118  0.1786 -0.3631
 6505TIP3    H140930   2.595  -0.002  16.639  1.0629  0.1592  1.6139
 6505TIP3    H240931   2.746   0.005  16.645  1.2607  0.7423 -1.8476
 6506TIP3   OH240932   0.329   1.295  11.826  0.2814 -0.2188 -0.1495
 6506TIP3    H140933   0.395   1.326  11.764  0.0230 -0.0912 -0.3655
 6506TIP3    H240934   0.369   1.218  11.867  1.1084  0.6478  0.7274
 6507TIP3   OH240935   1.565   5.765   5.104 -0.5117  0.2618  0.2562
 6507TIP3    H140936   1.646   5.740   5.150 -0.5211  1.6941  1.1379
 6507TIP3    H240937   1.571   5.860   5.098 -1.6826  0.2945 -0.5732
 6508TIP3   OH240938   1.052   5.446  14.114 -0.4355 -0.0138  0.3653
 6508TIP3    H140939   1.106   5.519  14.084  1.1693 -0.7229  1.3767
 6508TIP3    H240940   0.985   5.487  14.168 -0.7338  0.8731 -0.6553
 6509TIP3   OH240941   0.990   4.963   5.084 -0.1177 -0.4053 -0.3901
 6509TIP3    H140942   0.915   4.919   5.044 -0.5291  0.2864 -0.4110
 6509TIP3    H240943   0.969   4.965   5.178  0.7327 -1.8132 -0.1462
 6510TIP3   OH240944   3.143   6.577   2.289 -0.0743 -0.0023 -0.4700
 6510TIP3    H140945   3.056   6.595   2.324 -0.2460 -1.1984 -0.2279
 6510TIP3    H240946   3.189   6.661   2.293 -0.0276 -0.0583  2.7943
 6511TIP3   OH240947   4.042   6.402  16.551  0.2944  0.1367  0.4880
 6511TIP3    H140948   4.129   6.421  16.586  0.1788 -0.8122  1.3422
 6511TIP3    H240949   4.009   6.331  16.606 -0.3878 -0.5993 -0.8077
 6512TIP3   OH240950   1.765   3.899   0.450  0.0067  0.2643 -0.6657
 6512TIP3    H140951   1.746   3.891   0.543 -1.2977  0.5581 -0.8764
 6512TIP3    H240952   1.727   3.984   0.426  1.1980  0.6415 -1.2632
 6513TIP3   OH240953   4.453   0.163   3.850 -0.1963  0.0589 -0.0608
 6513TIP3    H140954   4.401   0.084   3.834 -0.6437  0.2518  0.4279
 6513TIP3    H240955   4.400   0.234   3.815 -0.1015  0.2172  0.1152
 6514TIP3   OH240956   0.743   0.725  16.377  0.4311  0.6548  0.1661
 6514TIP3    H140957   0.699   0.810  16.378 -0.7104  0.0880  1.2929
 6514TIP3    H240958   0.687   0.669  16.322  0.7698  0.4256  0.0486
 6515TIP3   OH240959   3.501   0.001  13.958 -0.0551 -0.1529  0.5508
 6515TIP3    H140960   3.481   0.069  13.893 -1.2116 -1.2865 -0.3324
 6515TIP3    H240961   3.591   0.018  13.983 -0.0746  1.2504 -0.2171
 6516TIP3   OH240962   6.272   0.187  15.365  0.2873 -0.3773 -0.3195
 6516TIP3    H140963   6.225   0.168  15.447 -0.7419  0.0193 -0.8022
 6516TIP3    H240964   6.266   0.282  15.356 -0.2171 -0.4868 -1.2078
 6517TIP3   OH240965   6.244   1.734  15.969  0.4381  0.2712 -0.0863
 6517TIP3    H140966   6.314   1.681  15.931  1.2716 -0.0021  1.7017
 6517TIP3    H240967   6.235   1.809  15.910  1.7602 -0.0408 -0.7179
 6518TIP3   OH240968   3.715   3.914   1.705 -0.1462  0.6501  0.6538
 6518TIP3    H140969   3.656   3.890   1.633  0.6748 -0.1270  0.2148
 6518TIP3    H240970   3.715   3.837   1.762  1.9239 -0.2013 -0.3684
 6519TIP3   OH240971   3.138   4.455  11.805 -0.4623 -0.5452 -0.0369
 6519TIP3    H140972   3.221   4.427  11.767 -1.3661 -0.4584 -2.1877
 6519TIP3    H240973   3.160   4.534  11.855  0.7592 -0.5778 -0.4924
 6520TIP3   OH240974   4.973   0.704   0.147  0.4705 -0.1386  0.4959
 6520TIP3    H140975   4.925   0.642   0.201 -0.1315  0.4255  0.6290
 6520TIP3    H240976   4.905   0.761   0.111  1.1127  1.4798  1.7055
 6521TIP3   OH240977   4.426   0.304  11.198  0.0939 -0.3105 -0.2093
 6521TIP3    H140978   4.493   0.252  11.152  1.6469  1.6331 -0.2940
 6521TIP3    H240979   4.476   0.361  11.256 -1.6537 -0.1664  1.2271
 6522TIP3   OH240980   3.846   2.437  17.014 -0.1768 -0.4324 -0.0580
 6522TIP3    H140981   3.888   2.521  17.032 -0.0749 -0.6484  0.8051
 6522TIP3    H240982   3.919   2.374  17.016  0.0406 -0.3528 -2.5096
 6523TIP3   OH240983   5.370   2.921  12.054  0.7449 -0.2666  0.0339
 6523TIP3    H140984   5.315   2.912  12.132 -1.0994  2.4412 -0.8146
 6523TIP3    H240985   5.435   2.987  12.078  0.1883  0.5575 -0.6545
 6524TIP3   OH240986   2.665   0.371  11.100  0.0120 -0.0456  0.2330
 6524TIP3    H140987   2.636   0.354  11.011 -3.8020  4.5624  0.2080
 6524TIP3    H240988   2.740   0.430  11.089  1.6413 -1.9891  0.2703
 6525TIP3   OH240989   4.278   3.783   1.854 -0.1804 -0.3164  0.3063
 6525TIP3    H140990   4.352   3.750   1.803 -0.0578 -0.5532  0.6267
 6525TIP3    H240991   4.261   3.871   1.820  1.1571  0.3085  1.1516
 6526TIP3   OH240992   1.134   4.980   3.592  0.3931  0.1463 -0.0911
 6526TIP3    H140993   1.157   5.041   3.662 -0.5675  0.9285 -0.4409
 6526TIP3    H240994   1.145   5.030   3.512 -0.0877 -0.2446 -0.4029
 6527TIP3   OH240995   0.512   0.598  15.387  0.5385  0.1817  0.4196
 6527TIP3    H140996   0.535   0.687  15.415  2.4322 -0.0943 -0.1170
 6527TIP3    H240997   0.538   0.594  15.295 -1.5031 -0.2995 -0.1927
 6528TIP3   OH240998   5.238   6.430   0.924 -0.2143 -0.7198 -0.0622
 6528TIP3    H140999   5.198   6.455   0.841 -0.7770  1.0135  0.6811
 6528TIP3    H241000   5.163   6.407   0.980  0.0425 -0.5200  0.3712
 6529TIP3   OH241001   3.126   0.497   0.692 -0.1442  0.4763 -0.8305
 6529TIP3    H141002   3.214   0.461   0.686  0.1823  0.6042  1.7355
 6529TIP3    H241003   3.069   0.429   0.656  0.7729 -1.1404  0.6230
 6530TIP3   OH241004   2.691   5.791  15.392 -0.1786  0.0164 -0.1683
 6530TIP3    H141005   2.773   5.841  15.392  0.9079 -1.6705 -0.1413
 6530TIP3    H241006   2.672   5.777  15.299 -1.4270  1.8453 -0.2503
 6531TIP3   OH241007   0.989   6.022  11.522 -0.5118 -0.3928 -0.0222
 6531TIP3    H141008   1.081   5.993  11.522 -0.1303  0.7454  0.4548
 6531TIP3    H241009   0.939   5.943  11.541  0.4098 -0.9206  0.2885
 6532TIP3   OH241010   3.151   5.053  11.755 -0.1411 -0.1095  0.0449
 6532TIP3    H141011   3.114   4.971  11.721 -1.0912  0.3434 -0.0530
 6532TIP3    H241012   3.094   5.121  11.720  1.1344  0.6812 -0.5692
 6533TIP3   OH241013   6.064   1.149   3.354  0.0919 -0.0975 -0.3183
 6533TIP3    H141014   6.048   1.076   3.413 -1.6560  0.2378 -0.3409
 6533TIP3    H241015   6.035   1.118   3.269 -2.1945  1.1136 -0.0441
 6534TIP3   OH241016   3.456   4.169   1.251  0.0709  0.2070 -0.1034
 6534TIP3    H141017   3.519   4.186   1.181 -1.2909  1.0869 -1.1757
 6534TIP3    H241018   3.375   4.148   1.205 -0.4001 -1.0459  1.2442
 6535TIP3   OH241019   2.441   6.436  15.778  0.3261  0.3534  0.0919
 6535TIP3    H141020   2.439   6.373  15.850 -0.3535  0.3884  0.1103
 6535TIP3    H241021   2.447   6.521  15.821 -1.7454  0.4894  0.1928
 6536TIP3   OH241022   3.946   0.489   4.794 -0.2781  0.1668 -0.0121
 6536TIP3    H141023   3.915   0.422   4.854 -0.1978 -1.3557 -1.5803
 6536TIP3    H241024   3.868   0.541   4.773 -1.1838 -1.6599 -1.4734
 6537TIP3   OH241025   1.000   0.609  15.365 -0.1737  0.3661  0.0367
 6537TIP3    H141026   1.081   0.652  15.338  0.6413 -0.1726  1.4953
 6537TIP3    H241027   0.975   0.654  15.446  0.9303 -2.0447  1.8361
 6538TIP3   OH241028   6.468   4.585  14.117 -0.1185 -0.1622 -0.1524
 6538TIP3    H141029   6.561   4.564  14.107 -0.5457 -2.0851 -0.6140
 6538TIP3    H241030   6.451   4.574  14.210 -0.0106 -0.4670 -0.1669
 6539TIP3   OH241031   5.315   6.031  10.926  0.1711 -0.5947 -0.4890
 6539TIP3    H141032   5.304   5.958  10.987  1.5793 -0.8786 -0.5257
 6539TIP3    H241033   5.247   6.094  10.950  0.6195 -0.7401  1.3185
 6540TIP3   OH241034   1.573   5.572  11.373 -0.2766 -0.2156  0.6419
 6540TIP3    H141035   1.610   5.612  11.451 -0.5415 -2.4853  2.0233
 6540TIP3    H241036   1.483   5.603  11.370  0.2151  1.2624  0.1842
 6541TIP3   OH241037   0.086   2.351   4.043 -0.7210  0.2657  0.0071
 6541TIP3    H141038   0.141   2.273   4.035 -1.3506 -0.2396  0.4031
 6541TIP3    H241039   0.103   2.402   3.964  0.9974  0.5824  0.5525
 6542TIP3   OH241040   1.897   0.614  15.398 -0.1263 -0.4006  0.1804
 6542TIP3    H141041   1.874   0.583  15.310  0.6348 -0.1636 -0.1118
 6542TIP3    H241042   1.855   0.553  15.457 -3.0790  0.9970 -0.2578
 6543TIP3   OH241043   5.146   4.946   2.695  0.4345  0.3062 -0.2868
 6543TIP3    H141044   5.170   4.943   2.602  1.7040  0.1044  0.0394
 6543TIP3    H241045   5.051   4.933   2.695  0.4344  0.1966 -1.5515
 6544TIP3   OH241046   6.286   3.906  12.023 -0.1306 -0.1511 -0.2960
 6544TIP3    H141047   6.359   3.862  11.978 -0.2752  0.8664 -1.5689
 6544TIP3    H241048   6.296   3.880  12.115  1.5912 -0.3752 -0.5033
 6545TIP3   OH241049   1.076   1.669   3.599  0.0184  0.0886  1.2353
 6545TIP3    H141050   1.130   1.590   3.597  0.0082  0.1020  0.0543
 6545TIP3    H241051   1.019   1.657   3.674  0.7989 -0.5028  1.7540
 6546TIP3   OH241052   3.958   4.183   2.169  0.3832 -0.0520 -0.6431
 6546TIP3    H141053   3.871   4.199   2.206  0.7604 -0.1896  0.3320
 6546TIP3    H241054   3.981   4.095   2.198  1.8522  0.8796  1.2059
 6547TIP3   OH241055   3.660   0.077  17.171 -0.2619  0.1789 -0.6369
 6547TIP3    H141056   3.714   0.017  17.224 -0.7084  0.1005 -0.2676
 6547TIP3    H241057   3.676   0.163  17.210 -1.3278 -0.0060  0.2506
 6548TIP3   OH241058   2.175   0.543   2.846  0.2189  0.2642 -0.5569
 6548TIP3    H141059   2.204   0.527   2.936 -1.6086  0.5113  0.1189
 6548TIP3    H241060   2.248   0.514   2.792  1.1438 -0.4089  0.9871
 6549TIP3   OH241061   4.207   5.222  11.376 -0.3013  0.0626  0.2058
 6549TIP3    H141062   4.157   5.304  11.380  0.0162  0.2753 -0.0785
 6549TIP3    H241063   4.239   5.219  11.286 -1.6633 -1.1874 -0.2834
 6550TIP3   OH241064   1.335   5.744  15.428 -0.7742 -0.0493 -0.0603
 6550TIP3    H141065   1.411   5.759  15.485 -0.9434 -1.3234  0.5462
 6550TIP3    H241066   1.307   5.655  15.450 -0.6179 -0.7354 -2.4399
 6551TIP3   OH241067   4.454   1.676  12.904  0.2391 -0.3928  0.1883
 6551TIP3    H141068   4.372   1.695  12.859  0.3024  1.2479  0.6903
 6551TIP3    H241069   4.453   1.732  12.981  1.2788 -1.2784  0.8821
 6552TIP3   OH241070   2.203   4.254   4.574 -0.1574 -0.3351 -0.1760
 6552TIP3    H141071   2.206   4.172   4.524 -0.8443 -0.3815 -0.1490
 6552TIP3    H241072   2.288   4.258   4.617 -0.4734 -1.5357  0.6243
 6553TIP3   OH241073   3.345   2.348  13.001  0.7076 -0.2938 -0.0293
 6553TIP3    H141074   3.256   2.379  13.019 -0.6279 -3.0510 -1.2824
 6553TIP3    H241075   3.399   2.389  13.069 -1.2480  2.4551  0.0337
 6554TIP3   OH241076   1.135   5.000   5.437  0.9564  0.0604 -0.5048
 6554TIP3    H141077   1.222   5.001   5.399  0.1533 -0.2272 -2.4890
 6554TIP3    H241078   1.094   5.081   5.406  0.4858  0.1396  0.3019
 6555TIP3   OH241079   3.679   1.282  15.445  0.3960  0.0788  0.4648
 6555TIP3    H141080   3.763   1.266  15.487  0.4761 -2.0112 -0.4048
 6555TIP3    H241081   3.698   1.351  15.380  0.7531  1.6796  2.1714
 6556TIP3   OH241082   3.433   0.305  16.834  0.3153  0.3229  0.2996
 6556TIP3    H141083   3.414   0.227  16.886  0.5471 -0.3358 -0.5820
 6556TIP3    H241084   3.515   0.339  16.870  1.2051 -0.9124 -0.4935
 6557TIP3   OH241085   2.007   4.537  11.758 -0.3818  0.2476  0.2278
 6557TIP3    H141086   2.013   4.555  11.852  1.1045 -1.9451  0.6451
 6557TIP3    H241087   2.097   4.549  11.726 -0.7567  0.4063 -0.8057
 6558TIP3   OH241088   5.585   0.341   3.459 -0.2000  0.2505 -0.2887
 6558TIP3    H141089   5.523   0.399   3.415 -0.4380 -0.4317 -0.8732
 6558TIP3    H241090   5.563   0.254   3.426  1.6720  0.0868 -1.2462
 6559TIP3   OH241091   1.086   5.318  15.792 -0.6973  0.2287 -0.1733
 6559TIP3    H141092   1.113   5.379  15.860  1.7494 -0.5088 -0.3881
 6559TIP3    H241093   1.055   5.241  15.840  1.2624 -0.3926  0.1876
 6560TIP3   OH241094   3.921   0.632   1.825  0.7756 -0.3765 -0.2167
 6560TIP3    H141095   3.872   0.561   1.866  0.1671  0.2544  0.1754
 6560TIP3    H241096   3.988   0.655   1.890  0.0756  0.3440  0.2668
 6561TIP3   OH241097   1.259   5.028   0.614  0.0562 -0.2843 -0.0444
 6561TIP3    H141098   1.309   5.037   0.696  0.2821 -0.2510 -0.1842
 6561TIP3    H241099   1.270   4.936   0.589 -0.6156 -0.4757  0.3435
 6562TIP3   OH241100   0.301   0.837  12.332  0.3393  0.1349 -0.0478
 6562TIP3    H141101   0.223   0.856  12.384  0.2185 -1.0538  0.2314
 6562TIP3    H241102   0.345   0.922  12.322  0.1618  0.4540  1.6555
 6563TIP3   OH241103   0.396   0.676  16.976  0.4331 -0.4230  0.7235
 6563TIP3    H141104   0.309   0.663  16.938  1.1364 -2.3318 -0.4093
 6563TIP3    H241105   0.445   0.722  16.908  0.2520  0.9755  1.4987
 6564TIP3   OH241106   0.340   5.035  16.587  0.0885 -0.1062  0.8146
 6564TIP3    H141107   0.258   5.065  16.625  0.2535  0.4301  0.7575
 6564TIP3    H241108   0.398   5.111  16.593  0.0490  0.0726 -0.7337
 6565TIP3   OH241109   3.203   0.076   5.721  0.0159  0.1872 -0.9747
 6565TIP3    H141110   3.234   0.017   5.789 -0.8029 -0.7053 -1.3591
 6565TIP3    H241111   3.176   0.155   5.767 -2.8887 -1.2833  0.1134
 6566TIP3   OH241112   1.657   4.214  11.688 -0.2453 -0.2566  0.0252
 6566TIP3    H141113   1.570   4.180  11.705 -0.9553  1.4675  0.0463
 6566TIP3    H241114   1.662   4.294  11.740  1.1607 -0.0625 -0.3697
 6567TIP3   OH241115   5.078   5.663  16.243 -0.5145  0.1109 -0.4431
 6567TIP3    H141116   5.059   5.583  16.194 -2.1361  0.8901 -1.1484
 6567TIP3    H241117   5.131   5.715  16.184 -2.0322  0.8258 -1.2364
 6568TIP3   OH241118   4.591   0.509  12.744 -0.5938 -0.5997  0.4061
 6568TIP3    H141119   4.657   0.553  12.798  1.0869 -0.6304 -1.5002
 6568TIP3    H241120   4.537   0.581  12.710 -0.6786 -0.4416  0.8685
 6569TIP3   OH241121   4.164   6.289  15.987  0.4360 -0.0599  0.7776
 6569TIP3    H141122   4.248   6.323  15.956 -1.1988  1.0539 -2.9982
 6569TIP3    H241123   4.108   6.366  15.996 -0.6429 -0.9076  1.7310
 6570TIP3   OH241124   2.656   6.046  16.368  0.0204 -0.7783 -0.1326
 6570TIP3    H141125   2.638   5.963  16.410 -0.7380  0.3161  1.8329
 6570TIP3    H241126   2.705   6.096  16.433 -1.0365  0.9183 -0.5715
 6571TIP3   OH241127   3.222   2.093   5.092  0.3850  0.0758 -0.9555
 6571TIP3    H141128   3.282   2.045   5.035 -0.1521 -0.6969 -0.8808
 6571TIP3    H241129   3.151   2.121   5.035 -0.4593 -1.2169 -0.5914
 6572TIP3   OH241130   0.948   0.955   1.979  0.4405  0.1471 -0.2170
 6572TIP3    H141131   0.896   1.007   2.040 -0.0871  0.7840 -1.1838
 6572TIP3    H241132   1.030   0.940   2.025  0.0524  0.6040  0.6532
 6573TIP3   OH241133   2.322   3.671   0.161 -0.0811 -0.0510 -0.1193
 6573TIP3    H141134   2.415   3.650   0.157 -0.1152 -1.0517  2.5510
 6573TIP3    H241135   2.318   3.766   0.146  1.1206 -0.2643 -2.0852
 6574TIP3   OH241136   5.405   1.252  15.057  0.0024  0.2042  0.3412
 6574TIP3    H141137   5.370   1.261  15.145 -0.2738 -0.4029  0.3014
 6574TIP3    H241138   5.484   1.199  15.067 -0.9928 -1.4337  0.0428
 6575TIP3   OH241139   6.600   6.475   6.723 -0.0317 -0.6149  0.4503
 6575TIP3    H141140   6.655   6.530   6.667  1.2083  0.2702  2.4346
 6575TIP3    H241141   6.517   6.522   6.727  0.5086  0.3546  0.8645
 6576TIP3   OH241142   5.345   6.374   1.785 -0.5101 -0.0779  0.6759
 6576TIP3    H141143   5.394   6.357   1.705 -1.4430 -0.6899  0.2261
 6576TIP3    H241144   5.270   6.427   1.758 -0.3187  0.5444  1.3040
 6577TIP3   OH241145   6.425   6.664  11.838 -0.1242 -0.5766  0.0853
 6577TIP3    H141146   6.424   6.747  11.886 -1.6458 -0.0155 -0.8745
 6577TIP3    H241147   6.465   6.602  11.900  2.1826  1.0660  0.4007
 6578TIP3   OH241148   1.963   5.903  16.192 -0.1575  0.0417  0.2383
 6578TIP3    H141149   1.950   5.903  16.098 -3.3889 -0.5343  0.5757
 6578TIP3    H241150   2.039   5.845  16.206  0.2472 -0.0272 -1.9532
 6579TIP3   OH241151   4.076   2.177  15.724 -0.2566 -0.5023 -0.0916
 6579TIP3    H141152   4.027   2.099  15.750 -0.6564 -0.5097 -0.8637
 6579TIP3    H241153   4.127   2.150  15.648 -1.6821  0.4316 -1.4238
 6580TIP3   OH241154   6.392   1.930   2.202 -0.4720 -0.4980 -0.0086
 6580TIP3    H141155   6.423   1.927   2.292 -2.0041  0.4142  0.5933
 6580TIP3    H241156   6.426   2.013   2.167  0.4001 -1.0056 -0.4065
 6581TIP3   OH241157   3.581   3.971  13.015  0.8807  0.1801 -0.5825
 6581TIP3    H141158   3.627   4.054  13.022  1.4830 -0.1901 -0.0393
 6581TIP3    H241159   3.634   3.919  12.955 -0.0680  0.5497 -1.7839
 6582TIP3   OH241160   4.929   4.465  14.458  0.0475 -0.6073 -0.6464
 6582TIP3    H141161   4.920   4.465  14.363 -0.2919  1.3081 -0.6599
 6582TIP3    H241162   4.839   4.458  14.490  0.2158 -2.0631 -0.4217
 6583TIP3   OH241163   6.680   1.830  11.255 -0.2534 -0.2731 -0.5176
 6583TIP3    H141164   6.746   1.798  11.317 -0.4514 -0.3615 -0.3474
 6583TIP3    H241165   6.612   1.762  11.257 -0.3502 -0.1804 -0.6847
 6584TIP3   OH241166   2.777   1.630  14.514 -0.0236 -0.0194 -0.0832
 6584TIP3    H141167   2.705   1.566  14.515 -1.1217  1.1357  1.6866
 6584TIP3    H241168   2.815   1.624  14.602  0.9265  0.6313 -0.4361
 6585TIP3   OH241169   5.109   4.753   5.516  0.2284 -0.0979 -0.4883
 6585TIP3    H141170   5.101   4.811   5.592  0.3526 -0.9170  0.1692
 6585TIP3    H241171   5.079   4.667   5.548  0.2948 -0.4556 -1.3581
 6586TIP3   OH241172   4.212   6.518  11.486 -0.6012 -0.2823  0.4008
 6586TIP3    H141173   4.278   6.462  11.527 -1.0933 -0.4437  1.0013
 6586TIP3    H241174   4.247   6.539  11.400  0.2741 -0.2831  0.7537
 6587TIP3   OH241175   6.626   1.423  16.276 -0.2606  0.6103 -0.2569
 6587TIP3    H141176   6.684   1.352  16.303 -0.2336 -0.2010 -2.2895
 6587TIP3    H241177   6.685   1.494  16.250 -0.2150  0.3964 -0.7421
 6588TIP3   OH241178   1.532   1.331  16.168  0.5795  0.4637  0.4090
 6588TIP3    H141179   1.609   1.387  16.158  0.6219  0.5851  1.3781
 6588TIP3    H241180   1.521   1.290  16.082  0.4012  2.1256 -0.3857
 6589TIP3   OH241181   4.411   2.858  13.332 -0.6995  0.9709 -0.2115
 6589TIP3    H141182   4.500   2.877  13.302 -0.4625 -1.6872 -1.4636
 6589TIP3    H241183   4.422   2.810  13.414 -0.8382 -0.7787 -1.1713
 6590TIP3   OH241184   4.621   1.442  16.239 -0.2301  0.0933 -0.3297
 6590TIP3    H141185   4.603   1.505  16.169 -0.7872  0.7978  0.4280
 6590TIP3    H241186   4.548   1.380  16.234 -1.4523  1.3194  0.8983
 6591TIP3   OH241187   5.604   3.268  16.599 -0.3122  0.9256  0.5439
 6591TIP3    H141188   5.550   3.239  16.526  0.4818  1.7877 -0.4127
 6591TIP3    H241189   5.556   3.342  16.637 -0.6332  0.5966  0.7802
 6592TIP3   OH241190   2.112   5.737  13.816 -0.0852  0.1036 -0.0069
 6592TIP3    H141191   2.082   5.655  13.856  0.0378  0.3135  0.5323
 6592TIP3    H241192   2.152   5.710  13.734 -0.0771 -0.3777  0.1507
 6593TIP3   OH241193   5.351   6.376   3.369  0.8178 -0.3817  0.0240
 6593TIP3    H141194   5.419   6.328   3.323 -0.3704 -0.6185 -1.5679
 6593TIP3    H241195   5.277   6.376   3.309 -0.4382  0.2731  1.5000
 6594TIP3   OH241196   2.767   2.128  12.976 -0.3705 -0.6253 -0.1316
 6594TIP3    H141197   2.716   2.089  13.047 -2.2238 -0.1553 -1.1331
 6594TIP3    H241198   2.706   2.188  12.933  1.7422  1.7930  0.0277
 6595TIP3   OH241199   1.962   3.298   6.427 -0.8526 -0.3112 -0.1740
 6595TIP3    H141200   1.943   3.206   6.446 -2.1687 -0.0458 -0.0723
 6595TIP3    H241201   1.876   3.337   6.411 -0.1111  0.2743 -3.2551
 6596TIP3   OH241202   4.783   2.367  12.554 -0.0557 -0.2212  0.2717
 6596TIP3    H141203   4.758   2.306  12.624 -1.1016 -0.0318  0.0717
 6596TIP3    H241204   4.708   2.370  12.496  0.4869  0.2679 -0.4276
 6597TIP3   OH241205   4.395   6.202   4.875 -0.4093  0.1296  0.2490
 6597TIP3    H141206   4.350   6.284   4.855  1.7093  1.0772 -1.0230
 6597TIP3    H241207   4.438   6.218   4.959 -0.5975  0.0541  0.3594
 6598TIP3   OH241208   5.620   4.803   4.519  0.3636  0.1277 -0.2143
 6598TIP3    H141209   5.614   4.863   4.445  2.7230 -0.3370 -0.8827
 6598TIP3    H241210   5.566   4.728   4.494  1.5334 -0.2541 -1.7727
 6599TIP3   OH241211   4.242   4.796  15.512 -0.4076  0.7665 -0.7672
 6599TIP3    H141212   4.295   4.719  15.534 -2.5344 -1.0049 -1.5219
 6599TIP3    H241213   4.304   4.856  15.470  1.4719 -0.1895  0.4810
 6600TIP3   OH241214   1.364   6.700   2.523  0.1740 -0.1041 -0.1523
 6600TIP3    H141215   1.459   6.709   2.508  0.0335  0.6268 -0.6743
 6600TIP3    H241216   1.335   6.640   2.455  0.1145  0.4251 -0.6021
 6601TIP3   OH241217   6.701   0.345   3.455 -0.3843 -0.5113 -0.3775
 6601TIP3    H141218   6.622   0.296   3.432 -1.6251  1.1046  0.1652
 6601TIP3    H241219   6.674   0.398   3.531  0.8761  0.9034 -0.8663
 6602TIP3   OH241220   2.266   6.326  11.948 -0.2648  0.5741  0.0154
 6602TIP3    H141221   2.267   6.245  11.998  0.5633  0.8555  0.4563
 6602TIP3    H241222   2.221   6.303  11.866  0.9466 -0.6143 -0.3367
 6603TIP3   OH241223   6.628   5.166   2.376 -0.1146 -0.0332  0.0571
 6603TIP3    H141224   6.533   5.169   2.362 -0.5317  1.5754  2.6061
 6603TIP3    H241225   6.660   5.249   2.342  0.5405 -0.8826 -1.4775
 6604TIP3   OH241226   1.461   3.340   4.581  0.0011 -0.4983 -0.3679
 6604TIP3    H141227   1.498   3.423   4.551 -1.1328 -0.0828 -0.6890
 6604TIP3    H241228   1.494   3.330   4.670 -0.1313  0.4843 -0.1930
 6605TIP3   OH241229   6.254   1.335  12.493 -0.3067 -0.6954  0.0130
 6605TIP3    H141230   6.165   1.370  12.497 -0.4069 -0.8704 -0.5360
 6605TIP3    H241231   6.310   1.412  12.490 -0.5074 -0.5621 -0.8149
 6606TIP3   OH241232   2.855   6.709  13.796  0.5096  0.0350  0.4134
 6606TIP3    H141233   2.907   6.742  13.723 -0.3441 -1.4661 -0.9301
 6606TIP3    H241234   2.765   6.736  13.776  0.4085  0.5754  1.5112
 6607TIP3   OH241235   6.389   1.610  16.345 -0.0493  0.3626 -0.4154
 6607TIP3    H141236   6.436   1.536  16.383  1.5938  0.5320 -1.9867
 6607TIP3    H241237   6.319   1.628  16.407  0.6135 -1.3408  0.9088
 6608TIP3   OH241238   4.291   4.707  11.680  0.5423  0.1838 -0.0907
 6608TIP3    H141239   4.212   4.654  11.680  0.1331  0.7535 -1.2133
 6608TIP3    H241240   4.308   4.725  11.588  0.7272  1.8741  0.2262
 6609TIP3   OH241241   2.047   3.532   0.537 -0.0463  0.3455  0.1856
 6609TIP3    H141242   2.009   3.523   0.449  1.9605 -0.8884 -0.6231
 6609TIP3    H241243   2.140   3.549   0.521  0.4592 -0.4710  2.0682
 6610TIP3   OH241244   5.154   0.187   1.434 -0.3381 -0.8339  0.1244
 6610TIP3    H141245   5.236   0.172   1.387 -1.4501 -0.3954 -2.0901
 6610TIP3    H241246   5.167   0.269   1.480  0.1451 -0.2189 -1.0635
 6611TIP3   OH241247   3.046   1.877   2.925  0.3436 -0.6206  0.1048
 6611TIP3    H141248   2.973   1.879   2.863 -0.6390 -0.7902  1.2442
 6611TIP3    H241249   3.110   1.819   2.884  0.5893  0.8252 -1.6996
 6612TIP3   OH241250   1.319   6.012   0.982 -0.3818 -0.1534 -0.0774
 6612TIP3    H141251   1.389   6.035   1.042 -1.2789 -0.5667  1.1637
 6612TIP3    H241252   1.275   5.938   1.023 -1.2178 -0.2586 -1.0964
 6613TIP3   OH241253   2.724   0.547   4.206  0.4482 -0.4102  0.0515
 6613TIP3    H141254   2.658   0.604   4.246  1.4562  0.9192 -0.1109
 6613TIP3    H241255   2.788   0.607   4.168  0.0662 -1.5746 -2.7411
 6614TIP3   OH241256   0.913   2.209  10.191  0.0968 -0.8322  0.0299
 6614TIP3    H141257   0.832   2.260  10.183  0.2558 -0.5164  0.4051
 6614TIP3    H241258   0.908   2.169  10.278  0.3403 -0.8137  0.0532
 6615TIP3   OH241259   1.385   4.367  13.942 -0.0554 -0.3385 -0.3331
 6615TIP3    H141260   1.296   4.402  13.941  0.5460  1.4131  1.5043
 6615TIP3    H241261   1.431   4.415  13.873 -0.2821 -0.5336 -0.6200
 6616TIP3   OH241262   0.573   6.541  17.110  0.2534  0.0513  0.2717
 6616TIP3    H141263   0.617   6.576  17.188 -0.5206 -0.6647  1.0613
 6616TIP3    H241264   0.621   6.460  17.091  0.4253  0.2126  0.0103
 6617TIP3   OH241265   0.574   1.297   3.521  0.3604  0.0709 -0.0874
 6617TIP3    H141266   0.588   1.321   3.613 -1.1542 -0.8924  0.4314
 6617TIP3    H241267   0.491   1.251   3.521  0.6039 -0.4349 -1.8804
 6618TIP3   OH241268   1.841   2.628  15.832 -0.0874  0.1265 -0.4523
 6618TIP3    H141269   1.917   2.599  15.882 -0.7612  0.6910  0.9218
 6618TIP3    H241270   1.854   2.589  15.745  1.4048 -0.3587 -0.0393
 6619TIP3   OH241271   1.259   0.930  14.005  0.2775  0.1715 -0.5477
 6619TIP3    H141272   1.170   0.955  13.980 -0.0221  2.0113  2.0385
 6619TIP3    H241273   1.248   0.871  14.079  1.1779  1.4385  0.6446
 6620TIP3   OH241274   2.818   2.403   2.717  0.0471  0.0815  0.1751
 6620TIP3    H141275   2.724   2.388   2.731  0.0658  0.2707  0.5197
 6620TIP3    H241276   2.839   2.353   2.639  0.0003 -1.2540  0.9983
 6621TIP3   OH241277   1.594   3.251   5.793  0.2336 -0.1641 -0.3968
 6621TIP3    H141278   1.590   3.318   5.861  0.8012  1.1257 -1.5983
 6621TIP3    H241279   1.666   3.194   5.820  0.8596  0.6937 -0.2341
 6622TIP3   OH241280   2.079   3.289  16.660 -0.2608 -0.1768 -0.1265
 6622TIP3    H141281   2.098   3.214  16.717  1.3465  0.4257  0.1933
 6622TIP3    H241282   2.153   3.291  16.599  0.7339  2.2067  1.0330
 6623TIP3   OH241283   5.156   1.512   5.981 -0.1492 -0.4123 -0.1121
 6623TIP3    H141284   5.179   1.577   6.047 -0.8851 -0.0639 -0.1913
 6623TIP3    H241285   5.236   1.499   5.930 -0.0379  0.5180 -0.1767
 6624TIP3   OH241286   5.222   2.393   5.867 -0.0885  0.3188  0.3612
 6624TIP3    H141287   5.276   2.379   5.945  0.2219 -0.2430  0.0523
 6624TIP3    H241288   5.191   2.305   5.843 -2.6969  0.8019  1.6039
 6625TIP3   OH241289   6.695   1.285   3.248 -0.0313  0.4432  0.1471
 6625TIP3    H141290   6.730   1.374   3.248 -1.2708  0.9734  1.5442
 6625TIP3    H241291   6.757   1.234   3.300 -0.1324  0.8664  0.6926
 6626TIP3   OH241292   5.599   2.624   3.826  0.2118 -0.0754  0.2614
 6626TIP3    H141293   5.546   2.703   3.833  0.7484  0.2510  0.7074
 6626TIP3    H241294   5.537   2.552   3.835 -0.4664  0.2648 -1.3960
 6627TIP3   OH241295   3.000   1.530  14.093 -0.3184 -0.2308  0.6187
 6627TIP3    H141296   3.083   1.486  14.076 -0.3718 -0.1141  0.0482
 6627TIP3    H241297   2.948   1.466  14.141 -0.3203 -0.7180 -0.0151
 6628TIP3   OH241298   6.028   0.238  12.822  0.0475  0.0011  0.0882
 6628TIP3    H141299   5.979   0.169  12.776 -2.2089  0.9619  0.9338
 6628TIP3    H241300   6.084   0.190  12.883  1.0347 -1.1679 -1.6221
 6629TIP3   OH241301   4.520   2.629   1.570  0.0573  0.5237  0.5656
 6629TIP3    H141302   4.431   2.648   1.540  0.7065  0.7989 -1.2545
 6629TIP3    H241303   4.508   2.563   1.639 -1.5170  0.2657  0.0815
 6630TIP3   OH241304   5.317   4.405  10.599  0.3093  0.2840 -0.4987
 6630TIP3    H141305   5.240   4.357  10.569 -0.6074  2.3417 -1.6937
 6630TIP3    H241306   5.342   4.459  10.523  1.7630  1.0586  0.4843
 6631TIP3   OH241307   5.445   6.669  16.400  0.8830  0.4352 -0.1293
 6631TIP3    H141308   5.388   6.630  16.334  0.0315  1.6625 -0.1697
 6631TIP3    H241309   5.393   6.666  16.481  1.4446  0.0239  0.2189
 6632TIP3   OH241310   6.030   5.991   4.801 -0.1845 -0.2444 -0.4091
 6632TIP3    H141311   6.123   5.988   4.782 -0.0104  1.4915 -0.0283
 6632TIP3    H241312   6.007   6.084   4.795 -2.2121 -0.7557 -1.9933
 6633TIP3   OH241313   5.355   0.346   3.964 -0.0966  0.2965 -0.1007
 6633TIP3    H141314   5.444   0.312   3.973 -0.8027 -1.5095  0.4992
 6633TIP3    H241315   5.323   0.305   3.884 -1.2857 -1.2949  1.1286
 6634TIP3   OH241316   6.670   2.969   0.496 -0.1009 -0.5551 -0.0979
 6634TIP3    H141317   6.726   2.993   0.422 -0.3946 -0.0121 -0.1526
 6634TIP3    H241318   6.590   2.936   0.455 -0.2014 -0.4066 -0.0193
 6635TIP3   OH241319   4.087   1.214  11.258 -0.1016 -0.1904 -0.3783
 6635TIP3    H141320   4.067   1.293  11.208  1.2857 -0.4840 -1.4659
 6635TIP3    H241321   4.113   1.246  11.344  1.1478  0.6197 -1.0235
 6636TIP3   OH241322   3.589   0.756  15.042  0.1431 -0.7019 -0.1830
 6636TIP3    H141323   3.660   0.707  15.084  1.6584 -0.1859 -2.0345
 6636TIP3    H241324   3.630   0.837  15.014 -1.2573 -0.2891 -1.0858
 6637TIP3   OH241325   1.418   5.992   4.850  0.5685  0.0691 -0.7605
 6637TIP3    H141326   1.511   6.001   4.871  0.3845  1.5403 -0.4720
 6637TIP3    H241327   1.376   5.982   4.935  0.2241  2.1001 -0.6309
 6638TIP3   OH241328   0.420   5.194   6.020  0.0963 -0.3427 -0.2363
 6638TIP3    H141329   0.415   5.281   6.060 -0.2506 -1.3391  2.0496
 6638TIP3    H241330   0.328   5.167   6.009  0.2041 -0.5416 -0.6857
 6639TIP3   OH241331   4.640   1.890   4.565  0.8788  0.1447 -0.1821
 6639TIP3    H141332   4.680   1.976   4.548  2.5885 -0.9554 -2.1962
 6639TIP3    H241333   4.562   1.889   4.510  0.7920  0.4696 -0.0643
 6640TIP3   OH241334   3.341   2.091   1.851 -0.1781 -0.2557  0.0924
 6640TIP3    H141335   3.312   2.015   1.901 -0.9248  0.1601  0.3097
 6640TIP3    H241336   3.406   2.133   1.907 -0.1161 -0.4604  0.1779
 6641TIP3   OH241337   2.237   0.881  15.999 -0.6739  0.7698  0.3587
 6641TIP3    H141338   2.270   0.970  15.988  0.4255  0.1483 -1.6821
 6641TIP3    H241339   2.307   0.825  15.967 -1.8579 -0.7937  0.4181
 6642TIP3   OH241340   2.781   4.111   5.627  0.1616 -0.1409 -0.3976
 6642TIP3    H141341   2.688   4.090   5.625  0.0186  0.5168 -1.1526
 6642TIP3    H241342   2.793   4.161   5.708  0.1647 -1.5339  0.4850
 6643TIP3   OH241343   2.963   3.049  12.480 -0.0317  0.2387  0.3909
 6643TIP3    H141344   3.031   3.029  12.545 -1.1307  0.9497  1.7883
 6643TIP3    H241345   2.881   3.047  12.529 -0.8859  0.9180 -0.9536
 6644TIP3   OH241346   4.002   0.300   3.551  0.2913  0.1429  0.0928
 6644TIP3    H141347   3.964   0.364   3.611 -0.1364  1.2506 -1.2949
 6644TIP3    H241348   3.982   0.215   3.590 -1.2520  0.7865  0.7770
 6645TIP3   OH241349   2.943   5.275  13.028  0.1548  0.3455  0.3978
 6645TIP3    H141350   2.859   5.318  13.015  0.0113 -0.0452 -0.0037
 6645TIP3    H241351   2.923   5.200  13.084  0.0922 -0.1814 -0.3082
 6646TIP3   OH241352   1.449   4.414  15.309 -1.2556 -0.3459  0.1093
 6646TIP3    H141353   1.491   4.329  15.302  0.8307  0.7064 -1.5029
 6646TIP3    H241354   1.387   4.417  15.236  1.1853  0.7003 -2.0688
 6647TIP3   OH241355   5.899   6.404  12.224 -0.2940  0.2787  0.6556
 6647TIP3    H141356   5.863   6.489  12.198 -0.0655  0.1233 -0.1955
 6647TIP3    H241357   5.841   6.339  12.185 -0.3440  0.0397  1.1207
 6648TIP3   OH241358   1.395   4.538   5.965  0.6153  0.1694 -0.1132
 6648TIP3    H141359   1.486   4.507   5.959 -0.0506 -2.1982  0.7541
 6648TIP3    H241360   1.351   4.471   6.017 -1.1288  2.4797  1.5500
 6649TIP3   OH241361   3.094   5.958  12.056 -0.6042 -0.3367  0.1400
 6649TIP3    H141362   3.076   5.914  11.973  0.7656  1.5970 -1.2929
 6649TIP3    H241363   3.073   6.050  12.039 -0.7849  0.0295  2.1297
 6650TIP3   OH241364   5.376   2.956   1.117  0.4593 -0.2955  0.3841
 6650TIP3    H141365   5.443   2.893   1.092  0.7088  0.3911 -0.7385
 6650TIP3    H241366   5.361   2.940   1.210  1.3664 -1.2036  0.3845
 6651TIP3   OH241367   1.055   3.396   3.483 -0.7674 -0.8416  0.6512
 6651TIP3    H141368   1.053   3.376   3.390 -0.8086 -0.1004  0.4863
 6651TIP3    H241369   1.065   3.311   3.526  0.2899 -1.0976 -0.0734
 6652TIP3   OH241370   1.817   1.305  14.993 -0.1930 -0.3863 -0.5678
 6652TIP3    H141371   1.776   1.383  15.030  2.5847  0.1056  1.8794
 6652TIP3    H241372   1.777   1.232  15.041 -1.1441 -0.2931 -1.2019
 6653TIP3   OH241373   3.820   1.452   5.450  0.1258 -0.3948 -0.6763
 6653TIP3    H141374   3.887   1.412   5.394  0.9315 -1.7821  1.1794
 6653TIP3    H241375   3.776   1.377   5.491 -1.0107  0.5667 -0.0844
 6654TIP3   OH241376   6.048   1.665   3.033  0.1513  0.9038  0.0827
 6654TIP3    H141377   6.090   1.742   2.995 -0.5330  0.3637 -1.8787
 6654TIP3    H241378   6.075   1.593   2.977 -1.2243  0.1193  0.3808
 6655TIP3   OH241379   3.240   1.995  15.232 -0.1686 -0.8462  0.0440
 6655TIP3    H141380   3.238   2.034  15.144 -1.8757 -2.4897 -0.7257
 6655TIP3    H241381   3.223   2.068  15.291  0.6439  0.2254 -1.0033
 6656TIP3   OH241382   2.312   1.258   1.731 -0.4099 -0.0292 -0.1864
 6656TIP3    H141383   2.370   1.276   1.657  1.3641  0.9966  1.3687
 6656TIP3    H241384   2.356   1.298   1.806 -2.4752 -0.4404  1.3238
 6657TIP3   OH241385   5.414   6.631   1.003 -0.5483  0.6165 -0.3715
 6657TIP3    H141386   5.342   6.685   1.037 -1.5350 -0.3890 -0.8106
 6657TIP3    H241387   5.372   6.565   0.948  0.5336 -1.0387  0.6701
 6658TIP3   OH241388   1.835   6.457  14.034 -0.0509 -0.0159  0.2584
 6658TIP3    H141389   1.843   6.550  14.012 -0.9339 -0.1742 -0.8188
 6658TIP3    H241390   1.865   6.451  14.125 -0.3082  1.3749  0.4516
 6659TIP3   OH241391   2.292   2.407   4.364 -0.3126 -0.1212 -0.0317
 6659TIP3    H141392   2.236   2.447   4.431 -0.6115 -0.8068  0.1393
 6659TIP3    H241393   2.296   2.473   4.294 -0.1486  0.5246  0.5709
 6660TIP3   OH241394   2.416   0.696   3.047  0.4714  0.1043  0.0497
 6660TIP3    H141395   2.425   0.704   3.142  2.7061 -0.9266 -0.0109
 6660TIP3    H241396   2.425   0.786   3.015  0.1936  0.4047  0.7792
 6661TIP3   OH241397   4.211   1.921   4.686 -0.4002 -0.4650 -0.3216
 6661TIP3    H141398   4.153   1.925   4.610  1.0812 -0.2357 -1.5096
 6661TIP3    H241399   4.275   1.853   4.664  1.6033  1.3470 -0.5039
 6662TIP3   OH241400   0.794   6.785   1.268  0.1010 -0.7471  0.1423
 6662TIP3    H141401   0.704   6.781   1.237  0.0163 -0.7930  0.3923
 6662TIP3    H241402   0.820   6.693   1.277  0.6785 -0.7640 -1.3732
 6663TIP3   OH241403   3.583   0.298  11.771  0.0294 -0.3199  0.3571
 6663TIP3    H141404   3.647   0.295  11.699 -0.4407  2.0297 -0.2505
 6663TIP3    H241405   3.635   0.289  11.850  0.6314 -2.3502 -0.2052
 6664TIP3   OH241406   5.415   1.241  13.466 -0.0514 -0.0936  0.4006
 6664TIP3    H141407   5.476   1.181  13.423  0.2079  0.6147 -0.2663
 6664TIP3    H241408   5.464   1.277  13.539  0.4927  0.7472 -0.3477
 6665TIP3   OH241409   5.509   6.332  11.985  0.2999 -0.1398 -0.0583
 6665TIP3    H141410   5.442   6.278  11.942  0.6735  2.6168 -4.8583
 6665TIP3    H241411   5.592   6.293  11.956  0.5994  0.8947 -0.6343
 6666TIP3   OH241412   3.198   2.285   2.127 -0.2096 -0.3391  0.1056
 6666TIP3    H141413   3.133   2.221   2.156 -1.3493 -0.0575 -1.6523
 6666TIP3    H241414   3.200   2.276   2.032 -1.4577  3.1176 -0.4052
 6667TIP3   OH241415   1.354   5.494  12.601  0.8309  0.1381  0.1806
 6667TIP3    H141416   1.376   5.446  12.681  0.8269 -0.7725 -0.3498
 6667TIP3    H241417   1.261   5.478  12.589  0.7428  0.6231  0.2199
 6668TIP3   OH241418   2.364   4.271   6.451  0.1549 -0.1154 -0.1057
 6668TIP3    H141419   2.349   4.351   6.501  2.2981 -0.9858  2.0943
 6668TIP3    H241420   2.421   4.298   6.379 -0.2290  0.5460 -0.1718
 6669TIP3   OH241421   4.286   3.502  16.523 -0.6744 -0.1170 -0.5665
 6669TIP3    H141422   4.299   3.596  16.535  0.9839 -0.4945  1.1070
 6669TIP3    H241423   4.223   3.495  16.452 -1.5705  2.2684 -0.0813
 6670TIP3   OH241424   6.075   5.800   4.141  0.2483 -0.0323 -0.2537
 6670TIP3    H141425   6.137   5.852   4.089  0.1624  0.0028 -0.3199
 6670TIP3    H241426   6.005   5.860   4.162 -0.2377 -0.3240 -0.9898
 6671TIP3   OH241427   6.152   0.497   5.950 -0.3581  0.6347  0.7414
 6671TIP3    H141428   6.157   0.446   6.031 -1.3980  0.8440  0.9553
 6671TIP3    H241429   6.069   0.544   5.957 -2.0195 -1.6396 -1.7767
 6672TIP3   OH241430   1.878   6.412   4.262 -0.1137 -0.1003  0.5581
 6672TIP3    H141431   1.786   6.432   4.245 -0.2466 -1.3422 -0.3336
 6672TIP3    H241432   1.878   6.321   4.290  0.7728  0.1229  1.3243
 6673TIP3   OH241433   5.039   3.212  13.535  0.2845  0.2880  0.0561
 6673TIP3    H141434   5.014   3.121  13.553 -0.4332  0.8260  1.9859
 6673TIP3    H241435   5.119   3.226  13.584  0.6456  0.5837 -0.6030
 6674TIP3   OH241436   1.168   0.047  11.596 -0.3931 -0.9388  0.9272
 6674TIP3    H141437   1.189   0.116  11.659 -0.7989  0.9441 -0.8964
 6674TIP3    H241438   1.253   0.008  11.573  0.4815  1.8748 -1.1453
 6675TIP3   OH241439   2.278   2.796   5.287 -0.4430  0.2025 -0.2122
 6675TIP3    H141440   2.289   2.864   5.221 -0.8125  0.3148 -0.1547
 6675TIP3    H241441   2.315   2.717   5.246 -0.6501  0.2777 -0.5425
 6676TIP3   OH241442   0.928   2.765  12.775  0.0679  0.0814 -0.0343
 6676TIP3    H141443   0.840   2.803  12.779  0.1593  0.4055 -0.9534
 6676TIP3    H241444   0.983   2.827  12.824 -0.3800 -0.6882  1.5261
 6677TIP3   OH241445   1.213   6.559   1.672 -0.2778 -0.2317  0.1997
 6677TIP3    H141446   1.169   6.609   1.604  1.1489 -1.0924 -1.4184
 6677TIP3    H241447   1.159   6.572   1.750 -1.1763  1.9354 -0.7148
 6678TIP3   OH241448   5.819   0.021   3.296  0.4907  0.1482  0.3856
 6678TIP3    H141449   5.842   0.058   3.210  0.6718 -0.5637  0.1186
 6678TIP3    H241450   5.887  -0.044   3.312  0.5421  0.3852  1.1467
 6679TIP3   OH241451   4.228   6.712   2.159 -0.0269  0.2539 -0.3216
 6679TIP3    H141452   4.168   6.752   2.096 -0.0430  1.8307  0.6307
 6679TIP3    H241453   4.262   6.786   2.209  0.1038 -0.9271  1.4151
 6680TIP3   OH241454   5.106   1.339   5.530 -0.1836 -0.0328 -0.1747
 6680TIP3    H141455   5.037   1.359   5.467 -1.3290  0.1976  1.0837
 6680TIP3    H241456   5.096   1.406   5.598  0.6903 -0.5493  0.4895
 6681TIP3   OH241457   5.310   0.149   3.777  0.1605  0.3136 -0.7198
 6681TIP3    H141458   5.231   0.096   3.763  0.3250 -0.1107 -0.1209
 6681TIP3    H241459   5.368   0.091   3.827  0.0814  1.2859  0.5426
 6682TIP3   OH241460   4.258   3.491  16.070 -0.1986 -0.1797 -0.0639
 6682TIP3    H141461   4.189   3.470  16.007 -1.2609  2.2540  0.1966
 6682TIP3    H241462   4.324   3.538  16.019  0.5890 -1.1526  0.0127
 6683TIP3   OH241463   5.594   5.984   3.611 -0.1192 -0.6225 -0.3101
 6683TIP3    H141464   5.616   5.980   3.518  1.2041  1.0990 -0.1245
 6683TIP3    H241465   5.500   6.001   3.613 -0.6602 -3.1354 -1.2404
 6684TIP3   OH241466   0.937   2.684   3.396 -0.3709 -0.6476 -0.0579
 6684TIP3    H141467   1.021   2.665   3.354 -0.5432  0.3056 -0.8777
 6684TIP3    H241468   0.929   2.617   3.464  1.7937  0.1465  1.0962
 6685TIP3   OH241469   5.970   4.399   3.274  0.1290 -0.2608  0.2365
 6685TIP3    H141470   5.896   4.453   3.244  1.8709  1.7848 -0.6112
 6685TIP3    H241471   5.992   4.344   3.200  1.2849  1.2700 -0.6166
 6686TIP3   OH241472   4.360   5.373   3.570 -0.0134  0.2309 -0.1148
 6686TIP3    H141473   4.369   5.468   3.576 -2.0123  0.3881  1.4153
 6686TIP3    H241474   4.450   5.339   3.571  0.6921  2.0393  0.2621
 6687TIP3   OH241475   1.017   5.137   0.544  0.0264  0.3170 -0.2155
 6687TIP3    H141476   1.102   5.101   0.570 -0.1560  0.8705  1.2506
 6687TIP3    H241477   0.953   5.089   0.597 -0.6880 -0.7614 -1.9959
 6688TIP3   OH241478   5.099   2.343   0.618  0.0388  0.3043  0.6043
 6688TIP3    H141479   5.182   2.352   0.664  0.3639  1.9176 -0.2298
 6688TIP3    H241480   5.041   2.408   0.658 -0.2640  0.4175  0.0038
 6689TIP3   OH241481   5.610   2.356   0.335  0.4601  0.2003 -0.3186
 6689TIP3    H141482   5.528   2.385   0.296  0.5500 -1.6527 -2.0672
 6689TIP3    H241483   5.678   2.389   0.276  0.6546 -1.9421 -1.3754
 6690TIP3   OH241484   0.115   0.757  11.881  0.0500 -0.9367  0.1770
 6690TIP3    H141485   0.172   0.769  11.957 -0.0648 -2.0159  0.4444
 6690TIP3    H241486   0.174   0.759  11.806  0.2195 -0.3313  0.3175
 6691TIP3   OH241487   2.497   6.085   1.126  0.2091 -0.2808  0.3730
 6691TIP3    H141488   2.497   6.108   1.219 -0.3866 -1.4781  0.6870
 6691TIP3    H241489   2.437   6.010   1.120  2.2508 -1.9113 -0.5457
 6692TIP3   OH241490   0.605   3.458  11.123 -0.3018  0.2832  0.2830
 6692TIP3    H141491   0.652   3.495  11.049  1.0036  1.4667  1.6395
 6692TIP3    H241492   0.549   3.529  11.155 -2.1653 -0.7318 -0.5410
 6693TIP3   OH241493   1.824   2.987   1.682 -0.2185  0.1800  0.1035
 6693TIP3    H141494   1.864   2.925   1.622  0.2942  1.8888 -1.4277
 6693TIP3    H241495   1.730   2.983   1.664 -0.1994 -0.2300  0.1052
 6694TIP3   OH241496   5.596   6.693  12.400  0.1448 -0.5306  0.1224
 6694TIP3    H141497   5.519   6.640  12.380  0.5228 -1.0412 -0.0043
 6694TIP3    H241498   5.563   6.765  12.454 -0.7238  0.2713 -1.4027
 6695TIP3   OH241499   3.508   1.945   1.697  0.5082  0.0012 -0.2602
 6695TIP3    H141500   3.507   1.861   1.742  2.0675 -0.2782 -0.6742
 6695TIP3    H241501   3.440   1.997   1.740 -0.3085 -1.3825  0.1537
 6696TIP3   OH241502   2.027   2.138  14.512 -0.3189 -0.1294  0.1300
 6696TIP3    H141503   2.005   2.087  14.435 -2.4442 -0.8538  1.1409
 6696TIP3    H241504   1.944   2.175  14.542  0.4731  0.3742  1.8834
 6697TIP3   OH241505   0.821   6.259   5.014 -0.3789 -0.1240 -0.0554
 6697TIP3    H141506   0.888   6.202   5.053  0.3390  0.9508  0.3555
 6697TIP3    H241507   0.750   6.258   5.078  0.0254  0.1756  0.4120
 6698TIP3   OH241508   0.891   2.013  14.240 -0.0719 -0.0754 -0.2421
 6698TIP3    H141509   0.880   1.995  14.146  1.1424 -0.5384 -0.3134
 6698TIP3    H241510   0.813   1.976  14.281  0.1741 -1.4051 -0.9062
 6699TIP3   OH241511   6.073   1.500   2.825  1.0643 -0.7315  0.0692
 6699TIP3    H141512   6.047   1.464   2.740  2.2702 -0.6414 -0.3650
 6699TIP3    H241513   6.135   1.435   2.860 -0.1355 -1.2411  1.3359
 6700TIP3   OH241514   6.072   1.732  15.354 -0.8599  0.1867  0.1306
 6700TIP3    H141515   6.014   1.745  15.278 -0.2268  1.9399 -0.1059
 6700TIP3    H241516   6.013   1.706  15.425 -1.4191 -1.8773 -1.0121
 6701TIP3   OH241517   6.755   3.936  11.740 -0.4772  0.1093  0.1817
 6701TIP3    H141518   6.667   3.973  11.741 -0.1040  1.0532 -0.4561
 6701TIP3    H241519   6.802   3.987  11.674  0.5504 -0.3749  0.5129
 6702TIP3   OH241520   5.428   6.279  16.780 -0.4276 -0.9400 -0.0568
 6702TIP3    H141521   5.452   6.371  16.773 -1.5397 -0.5186  1.3484
 6702TIP3    H241522   5.453   6.242  16.695 -1.5240  1.0146 -1.3019
 6703TIP3   OH241523   1.883   3.121   0.184  0.0848 -0.3495 -0.1205
 6703TIP3    H141524   1.836   3.185   0.236  1.1607 -1.1985  2.0459
 6703TIP3    H241525   1.828   3.107   0.107 -1.4058  1.2466  0.5843
 6704TIP3   OH241526   4.634   1.201  11.468 -0.6311 -0.0735 -0.6792
 6704TIP3    H141527   4.582   1.247  11.534 -0.8903  0.1038 -1.0038
 6704TIP3    H241528   4.569   1.167  11.406 -0.2843  1.3762 -1.8735
 6705TIP3   OH241529   5.791   4.298  14.958 -0.4368  0.5953  0.2513
 6705TIP3    H141530   5.842   4.242  14.900  1.9679  2.4995  0.3488
 6705TIP3    H241531   5.806   4.261  15.045 -0.5881  0.1832  0.1043
 6706TIP3   OH241532   6.027   0.148   2.117 -0.7512 -0.2994  0.0325
 6706TIP3    H141533   6.059   0.079   2.176  1.1558  0.5158  0.0130
 6706TIP3    H241534   6.036   0.229   2.167  0.0874  0.3040 -1.0622
 6707TIP3   OH241535   5.602   2.781  11.993 -0.0497  0.6547 -0.4112
 6707TIP3    H141536   5.517   2.817  12.020 -0.1538  0.4385 -0.4478
 6707TIP3    H241537   5.580   2.710  11.933  0.2047  1.9176 -2.0595
 6708TIP3   OH241538   1.164   6.292   1.859  0.1757 -0.0065 -0.0710
 6708TIP3    H141539   1.218   6.295   1.938 -1.4108  0.3194  1.0527
 6708TIP3    H241540   1.223   6.320   1.789  1.6847 -0.5005  0.9406
 6709TIP3   OH241541   4.935   4.961  12.216 -0.2053  0.0964 -0.6371
 6709TIP3    H141542   4.999   5.031  12.201 -0.5315  0.2934 -1.1633
 6709TIP3    H241543   4.908   4.935  12.128 -1.1888  0.3382 -0.4219
 6710TIP3   OH241544   5.325   4.024  11.397  0.4819 -0.2288 -0.3252
 6710TIP3    H141545   5.383   4.043  11.470  0.8855  2.9641 -1.3266
 6710TIP3    H241546   5.238   4.045  11.430  0.4725 -0.3230 -0.2901
 6711TIP3   OH241547   5.479   6.067  11.359 -0.4719 -0.0781 -0.5704
 6711TIP3    H141548   5.436   5.997  11.409 -2.2879  1.3001 -0.1079
 6711TIP3    H241549   5.501   6.025  11.276 -0.0546 -1.6216  0.2662
 6712TIP3   OH241550   2.032   0.980   4.095 -0.1693  0.1351  0.3457
 6712TIP3    H141551   2.063   1.040   4.163 -0.0023  1.5141 -0.9043
 6712TIP3    H241552   1.992   1.036   4.029 -2.3246 -1.3363  0.2832
 6713TIP3   OH241553   3.779   2.193  11.610  0.4046 -0.0132  0.0900
 6713TIP3    H141554   3.783   2.101  11.585 -2.5237 -0.6028  1.3973
 6713TIP3    H241555   3.839   2.200  11.684 -0.4022 -1.2459  0.8905
 6714TIP3   OH241556   1.440   0.473   0.816  0.1003 -0.4885  0.0165
 6714TIP3    H141557   1.516   0.504   0.866 -0.1864 -1.2251  0.9445
 6714TIP3    H241558   1.365   0.517   0.856  0.0138  0.1433 -0.8188
 6715TIP3   OH241559   2.819   5.049  13.144  0.8245 -0.5240  0.5283
 6715TIP3    H141560   2.756   5.046  13.072  0.7795  0.6862  0.4900
 6715TIP3    H241561   2.765   5.056  13.223  0.8394 -2.9805  0.8152
 6716TIP3   OH241562   4.383   4.819   4.477 -0.4716  0.2345 -0.3295
 6716TIP3    H141563   4.367   4.903   4.432 -0.7590 -0.7098 -2.1016
 6716TIP3    H241564   4.365   4.753   4.410  2.2552 -1.1973  0.1771
 6717TIP3   OH241565   4.522   5.868  10.286 -0.1285 -0.1442  0.0700
 6717TIP3    H141566   4.607   5.875  10.243 -1.0506 -1.0040 -2.0269
 6717TIP3    H241567   4.543   5.860  10.379  2.0517 -0.0137 -0.3557
 6718TIP3   OH241568   3.498   0.817  16.849 -0.3868 -0.2750 -0.2495
 6718TIP3    H141569   3.410   0.798  16.816  0.4436 -0.4205 -2.5613
 6718TIP3    H241570   3.501   0.912  16.855 -0.4520 -0.2183 -0.9979
 6719TIP3   OH241571   2.634   4.127  11.118  0.4429 -0.1017  0.0414
 6719TIP3    H141572   2.541   4.141  11.102  0.3955  1.8018  1.6538
 6719TIP3    H241573   2.665   4.083  11.038 -1.2014  2.1327 -1.9923
 6720TIP3   OH241574   2.766   2.163   2.528  0.3065 -0.5108 -0.3438
 6720TIP3    H141575   2.672   2.155   2.510  0.3009  0.3531 -0.7709
 6720TIP3    H241576   2.798   2.220   2.458  1.0188 -0.2522  0.1872
 6721TIP3   OH241577   3.038   2.615   4.029  0.2251  0.0671  0.1742
 6721TIP3    H141578   2.992   2.569   3.959 -0.9333  1.3613  0.0467
 6721TIP3    H241579   3.065   2.698   3.991  2.5450 -0.5565  0.3205
 6722TIP3   OH241580   5.461   0.363   1.627 -0.2808 -0.4436  0.8212
 6722TIP3    H141581   5.437   0.278   1.590  0.2874 -0.7184  1.0841
 6722TIP3    H241582   5.552   0.354   1.654  0.6528  1.0438 -1.5166
 6723TIP3   OH241583   0.347   5.718   1.658 -0.2015  0.0063  0.4631
 6723TIP3    H141584   0.423   5.706   1.715 -1.4417  0.7006  2.3780
 6723TIP3    H241585   0.366   5.665   1.581  0.8554 -2.4169  2.2588
 6724TIP3   OH241586   4.305   1.346   4.639  0.0260 -0.5556 -0.7635
 6724TIP3    H141587   4.349   1.296   4.571 -0.4507  1.0760 -2.3420
 6724TIP3    H241588   4.354   1.428   4.644 -0.1148 -0.5332  0.6816
 6725TIP3   OH241589   2.074   6.250   4.624  0.2507  0.0125 -0.3360
 6725TIP3    H141590   2.161   6.234   4.588 -1.0080 -1.5951 -2.9484
 6725TIP3    H241591   2.053   6.340   4.597  0.5873 -0.0574 -0.8346
 6726TIP3   OH241592   3.629   1.798  14.155 -0.0862 -0.0812  0.0813
 6726TIP3    H141593   3.674   1.848  14.223 -0.0143 -0.0515  0.0118
 6726TIP3    H241594   3.697   1.780  14.090  0.1354 -1.1572  0.5949
 6727TIP3   OH241595   3.721   2.810  14.970 -0.0395 -0.2074  0.3824
 6727TIP3    H141596   3.740   2.890  15.019 -1.2300  0.3506 -0.0131
 6727TIP3    H241597   3.633   2.825  14.934  0.2314 -1.1758 -0.7451
 6728TIP3   OH241598   4.191   2.569  13.940  0.3044 -0.2150  0.0549
 6728TIP3    H141599   4.217   2.562  14.032  1.9439  0.0406 -0.3645
 6728TIP3    H241600   4.134   2.493  13.925 -0.0526 -0.2132  1.2882
 6729TIP3   OH241601   4.214   0.506  13.625 -0.3014  0.1023  0.1302
 6729TIP3    H141602   4.247   0.491  13.714  0.8183  1.2125 -0.0696
 6729TIP3    H241603   4.182   0.596  13.627 -1.8499 -0.4271 -0.1426
 6730TIP3   OH241604   0.518   6.642   4.716 -0.2834 -0.6058 -0.1726
 6730TIP3    H141605   0.468   6.664   4.637 -1.1470  0.5477  0.6529
 6730TIP3    H241606   0.585   6.710   4.722 -0.0809 -0.8170 -0.0310
 6731TIP3   OH241607   2.786   6.444   0.085 -0.1381 -0.2427 -0.1795
 6731TIP3    H141608   2.835   6.508   0.033  1.0645  1.4590  2.8174
 6731TIP3    H241609   2.697   6.479   0.087 -0.0359  0.0429 -0.5029
 6732TIP3   OH241610   0.221   4.264  16.325  0.3121 -0.0917 -0.2078
 6732TIP3    H141611   0.132   4.299  16.318  0.8527  1.4167  0.0446
 6732TIP3    H241612   0.245   4.241  16.236 -0.2130 -0.1976 -0.3260
 6733TIP3   OH241613   0.362   2.346   1.061  0.4448  0.3912 -0.4208
 6733TIP3    H141614   0.340   2.439   1.062  0.4513  0.4081  0.9384
 6733TIP3    H241615   0.416   2.334   1.140 -2.4263 -1.4019  1.4693
 6734TIP3   OH241616   6.613   0.415  10.969  0.0204  0.0959  0.3173
 6734TIP3    H141617   6.656   0.488  11.012 -0.5710  0.2508  0.6540
 6734TIP3    H241618   6.648   0.415  10.880  0.2102  0.6315  0.3935
 6735TIP3   OH241619   0.684   4.196   5.919 -0.3406 -0.0200 -0.2554
 6735TIP3    H141620   0.748   4.151   5.864  1.5142 -3.2025  3.9215
 6735TIP3    H241621   0.722   4.283   5.933 -0.0278  0.2597 -2.4082
 6736TIP3   OH241622   5.841   3.158   0.740 -0.0511 -0.0988 -0.6035
 6736TIP3    H141623   5.856   3.243   0.697  0.9870  0.4605  0.7907
 6736TIP3    H241624   5.914   3.149   0.801  0.2449 -2.3316 -1.1947
 6737TIP3   OH241625   3.292   4.119  15.988 -0.3269  0.2892  0.4277
 6737TIP3    H141626   3.337   4.171  15.922  0.2819 -0.7484  0.0087
 6737TIP3    H241627   3.358   4.059  16.021 -1.4173 -1.4196 -0.3646
 6738TIP3   OH241628   4.356   0.870  14.638  0.1598  0.2985 -0.3025
 6738TIP3    H141629   4.397   0.787  14.661  1.4294  0.5444 -1.5260
 6738TIP3    H241630   4.262   0.853  14.641  0.3999 -1.0225 -0.0102
 6739TIP3   OH241631   4.897   2.890   0.057  0.3579 -0.3077 -0.0180
 6739TIP3    H141632   4.836   2.924   0.122 -1.9597 -0.2810 -2.0550
 6739TIP3    H241633   4.931   2.968   0.013 -1.7963 -0.3537 -1.9435
 6740TIP3   OH241634   2.100   4.482  13.907 -0.8415 -0.0955  0.5524
 6740TIP3    H141635   2.181   4.533  13.902 -1.4382  0.7538 -1.9590
 6740TIP3    H241636   2.068   4.497  13.996 -0.9117  3.9240  0.0609
 6741TIP3   OH241637   4.233   0.535  10.607  0.1806 -0.1631 -0.1569
 6741TIP3    H141638   4.154   0.552  10.658 -0.5748 -0.7380 -1.0942
 6741TIP3    H241639   4.265   0.622  10.583 -0.3657  0.0670 -0.0676
 6742TIP3   OH241640   0.866   0.734   3.929  0.3919 -0.8356  0.3262
 6742TIP3    H141641   0.931   0.770   3.869  1.5493 -1.7283  0.9881
 6742TIP3    H241642   0.900   0.647   3.952 -0.2847 -0.7455  1.8355
 6743TIP3   OH241643   1.891   3.915   0.881  0.2267 -0.2365  0.2740
 6743TIP3    H141644   1.835   3.923   0.804 -0.1664 -0.4866  0.5334
 6743TIP3    H241645   1.941   3.835   0.866  0.5701  0.0206  0.0128
 6744TIP3   OH241646   5.787   1.459  12.363 -0.0978  0.1178  0.4892
 6744TIP3    H141647   5.752   1.424  12.281  1.2209 -0.3466  0.0869
 6744TIP3    H241648   5.723   1.434  12.430  0.0425 -1.7469 -0.0266
 6745TIP3   OH241649   0.502   3.144  12.808  0.0334 -0.1145 -0.0598
 6745TIP3    H141650   0.420   3.104  12.836  0.5942 -0.4872  1.1349
 6745TIP3    H241651   0.511   3.221  12.864  0.8999 -0.5505  0.4300
 6746TIP3   OH241652   4.921   0.465  11.258  0.1299  0.2693  0.0763
 6746TIP3    H141653   4.919   0.552  11.219  2.9747 -0.2410 -1.4807
 6746TIP3    H241654   4.858   0.414  11.207  0.9265  0.6002 -1.2710
 6747TIP3   OH241655   0.093   4.727  12.040  0.4198  0.0799 -0.2914
 6747TIP3    H141656   0.065   4.731  12.131 -0.0835 -0.1217 -0.4302
 6747TIP3    H241657   0.187   4.710  12.043 -0.0443 -2.8713  0.1975
 6748TIP3   OH241658   6.764   3.285   3.369 -0.4930 -0.4329 -0.1082
 6748TIP3    H141659   6.751   3.298   3.275 -0.1444  0.3386 -0.0503
 6748TIP3    H241660   6.726   3.363   3.410  1.5327  0.4171  0.2437
 6749TIP3   OH241661   4.123   0.280   5.811 -0.0717  0.1361  0.5969
 6749TIP3    H141662   4.139   0.193   5.845  0.5972 -0.9765 -2.2379
 6749TIP3    H241663   4.204   0.328   5.826  0.9563 -0.9724 -1.0703
 6750TIP3   OH241664   5.835   5.228  15.151 -0.4062 -0.4240  0.1523
 6750TIP3    H141665   5.757   5.272  15.186 -1.3864 -2.2119  0.3362
 6750TIP3    H241666   5.908   5.263  15.202 -1.1026  1.1088  0.1478
 6751TIP3   OH241667   4.837   0.822  11.966  0.1029 -0.3747 -0.0498
 6751TIP3    H141668   4.747   0.842  11.990 -0.0260 -0.6627 -0.2792
 6751TIP3    H241669   4.843   0.726  11.971  0.8938 -0.2705  1.7198
 6752TIP3   OH241670   0.042   3.687  15.553 -0.2624 -0.0301  0.1265
 6752TIP3    H141671   0.123   3.738  15.550 -0.7766  0.7735 -0.5455
 6752TIP3    H241672  -0.025   3.747  15.520 -1.1434 -0.6674  0.7169
 6753TIP3   OH241673   2.138   0.936   5.362 -0.1312  0.2811  0.0892
 6753TIP3    H141674   2.159   1.020   5.404  1.2344  0.6722 -1.2886
 6753TIP3    H241675   2.181   0.871   5.417 -0.3900  0.5526  0.6276
 6754TIP3   OH241676   4.255   0.363   3.663  0.4044  0.7635  0.1005
 6754TIP3    H141677   4.163   0.356   3.640  0.6396 -0.6183 -0.5386
 6754TIP3    H241678   4.281   0.450   3.631 -0.1936  0.3650 -1.5540
 6755TIP3   OH241679   4.826   5.907   5.731 -0.1456  0.4514 -0.6250
 6755TIP3    H141680   4.770   5.984   5.728  1.9965  2.0930 -0.9282
 6755TIP3    H241681   4.841   5.885   5.638  0.2677  0.4555 -0.5603
 6756TIP3   OH241682   4.955   2.512  15.002 -0.4630  0.1071 -0.1763
 6756TIP3    H141683   4.959   2.591  15.055  0.2557  0.4237 -0.6768
 6756TIP3    H241684   4.866   2.479  15.013  0.0328 -0.6194  2.3232
 6757TIP3   OH241685   4.610   3.087   1.621  0.2444  0.1750  0.7771
 6757TIP3    H141686   4.554   3.031   1.674 -1.1598  1.0633  0.3085
 6757TIP3    H241687   4.572   3.081   1.533  0.2028  1.6522  0.6752
 6758TIP3   OH241688   0.085   2.026  16.329  0.2360 -0.2700  0.1737
 6758TIP3    H141689   0.024   2.029  16.403  0.4146  1.7121  0.3029
 6758TIP3    H241690   0.084   2.115  16.294 -0.8697 -1.4238 -3.0855
 6759TIP3   OH241691   4.873   2.091  12.221  0.6451  0.9223 -0.0161
 6759TIP3    H141692   4.822   2.166  12.191 -0.4423  1.1937  2.2803
 6759TIP3    H241693   4.829   2.063  12.301  1.7588 -1.4210 -0.1488
 6760TIP3   OH241694   2.196   5.175  14.889  0.4914 -0.1683  0.3805
 6760TIP3    H141695   2.292   5.174  14.893  0.5336 -2.0892 -0.0701
 6760TIP3    H241696   2.176   5.154  14.798 -0.3095 -2.8077  1.0810
 6761TIP3   OH241697   5.333   1.959   4.255  0.9003 -0.8007  0.6051
 6761TIP3    H141698   5.398   1.898   4.219  1.8555  0.4665  0.0928
 6761TIP3    H241699   5.385   2.034   4.285 -0.3644  0.4734 -0.2747
 6762TIP3   OH241700   3.751   6.201  16.917  0.6321 -0.3467 -0.4166
 6762TIP3    H141701   3.738   6.268  16.849  2.0398 -0.9145 -1.3019
 6762TIP3    H241702   3.701   6.126  16.885 -1.0507  0.2594  0.6384
 6763TIP3   OH241703   1.656   5.414  16.669 -0.5517 -0.3394  0.1301
 6763TIP3    H141704   1.671   5.477  16.740  0.7041  0.1388 -0.5326
 6763TIP3    H241705   1.688   5.331  16.704  0.6783  0.0225 -0.0755
 6764TIP3   OH241706   4.900   0.350   5.902  0.3940  0.4492 -0.1190
 6764TIP3    H141707   4.929   0.259   5.915  2.8474  1.2841  0.8021
 6764TIP3    H241708   4.944   0.379   5.822 -2.3517  0.1516 -1.8549
 6765TIP3   OH241709   0.303   3.164   4.902 -0.4600  0.1476  0.2879
 6765TIP3    H141710   0.281   3.236   4.961 -2.3963  0.0550 -0.2735
 6765TIP3    H241711   0.396   3.176   4.884  0.1779  0.3270  3.1531
 6766TIP3   OH241712   3.563   1.720   3.325  0.3770 -1.0896 -0.0947
 6766TIP3    H141713   3.587   1.683   3.240  0.1945 -1.4617  0.0141
 6766TIP3    H241714   3.640   1.707   3.380  1.1776  0.7704 -0.6979
 6767TIP3   OH241715   2.878   1.363  17.176  0.5070  0.2947  0.6238
 6767TIP3    H141716   2.889   1.269  17.190 -0.7488  0.1104  0.4786
 6767TIP3    H241717   2.958   1.390  17.130  0.1390 -1.0499 -0.9021
 6768TIP3   OH241718   5.385   2.325   5.431 -0.0000 -0.4597  0.0668
 6768TIP3    H141719   5.301   2.312   5.387 -0.2451 -1.5234  0.7982
 6768TIP3    H241720   5.450   2.310   5.363 -0.3912  0.0431 -0.4302
 6769TIP3   OH241721   2.455   4.240   1.364 -0.0330 -0.3126 -0.3607
 6769TIP3    H141722   2.447   4.203   1.452 -1.1700 -0.8952 -0.6794
 6769TIP3    H241723   2.382   4.201   1.316 -0.2036  0.9960 -1.2048
 6770TIP3   OH241724   0.453   4.407  16.295  0.3887 -0.3538  0.1730
 6770TIP3    H141725   0.382   4.353  16.328 -1.4388  1.8061  0.0822
 6770TIP3    H241726   0.423   4.435  16.208  1.3661  0.5516  0.0992
 6771TIP3   OH241727   4.508   3.861  11.633  0.4913  0.3194 -0.1709
 6771TIP3    H141728   4.544   3.788  11.683  0.1596 -1.1701 -1.9835
 6771TIP3    H241729   4.414   3.845  11.632  0.3422  1.1506 -0.0269
 6772TIP3   OH241730   6.588   4.805  15.872  0.2155  0.0026  0.0824
 6772TIP3    H141731   6.518   4.829  15.933 -0.0442 -0.0306 -0.1975
 6772TIP3    H241732   6.668   4.814  15.923 -0.1723 -3.7250  1.6680
 6773TIP3   OH241733   0.697   3.743   2.307 -0.5974 -0.3322 -0.6658
 6773TIP3    H141734   0.692   3.716   2.399 -0.4022 -0.9914 -0.8445
 6773TIP3    H241735   0.615   3.711   2.269  0.7837 -3.1505 -1.5095
 6774TIP3   OH241736   0.272   6.675  15.883  0.4429  0.1483 -0.0304
 6774TIP3    H141737   0.236   6.763  15.888  0.0893  0.0895 -1.1388
 6774TIP3    H241738   0.226   6.626  15.952 -1.0348  0.2878 -0.8702
 6775TIP3   OH241739   2.034   5.509  16.186  0.6153  0.2190  0.4887
 6775TIP3    H141740   1.969   5.490  16.254 -0.2845 -1.0937 -0.6623
 6775TIP3    H241741   2.115   5.471  16.218  0.5507  0.8389  1.4283
 6776TIP3   OH241742   2.800   2.553  17.081 -0.4160 -0.1374  0.0484
 6776TIP3    H141743   2.728   2.556  17.144  0.6326 -3.1884  1.6397
 6776TIP3    H241744   2.871   2.602  17.124 -0.5878  0.2763 -0.1318
 6777TIP3   OH241745   0.481   6.040  12.820 -0.2668  0.4465  0.4385
 6777TIP3    H141746   0.452   6.097  12.892 -0.9894  0.4634  0.1346
 6777TIP3    H241747   0.411   6.043  12.756 -0.5114 -1.1010  0.5816
 6778TIP3   OH241748   1.646   3.414  16.408 -0.1373 -0.0007  0.0096
 6778TIP3    H141749   1.721   3.473  16.399  0.7943 -1.1994 -0.4320
 6778TIP3    H241750   1.685   3.330  16.433 -1.4989 -0.2498  1.4350
 6779TIP3   OH241751   3.017   1.873  13.356 -0.5305 -0.0209 -0.5954
 6779TIP3    H141752   2.956   1.904  13.422 -0.1547  0.9558 -0.6922
 6779TIP3    H241753   2.969   1.878  13.273 -0.7871 -0.6299 -0.4882
 6780TIP3   OH241754   0.409   2.646  10.735 -0.0969 -0.2199 -0.2586
 6780TIP3    H141755   0.474   2.715  10.720 -0.4083  0.0897 -0.1806
 6780TIP3    H241756   0.447   2.569  10.694 -0.1043  0.1853 -1.0510
 6781TIP3   OH241757   2.704   4.671  16.268  0.7422 -0.0920  0.5017
 6781TIP3    H141758   2.764   4.718  16.209 -1.2689  3.6243  1.1276
 6781TIP3    H241759   2.627   4.652  16.214  0.8816 -1.3614  0.7065
 6782TIP3   OH241760   4.320   0.855  16.630  0.4363  0.1127  0.8208
 6782TIP3    H141761   4.300   0.943  16.662  2.2211  0.3680  1.3931
 6782TIP3    H241762   4.287   0.853  16.540  0.0652  1.2408  0.9228
 6783TIP3   OH241763   3.371   5.776  15.833 -0.9045 -0.0439  0.2554
 6783TIP3    H141764   3.444   5.820  15.877 -0.7247 -1.7382  1.7619
 6783TIP3    H241765   3.307   5.846  15.817 -0.3981  0.8986  2.0211
 6784TIP3   OH241766   3.624   2.515   3.707  0.5847 -0.2734 -0.2107
 6784TIP3    H141767   3.668   2.456   3.769  0.1729  0.2114  0.5617
 6784TIP3    H241768   3.674   2.597   3.714  0.5710 -0.2366 -0.5651
 6785TIP3   OH241769   4.498   6.376  11.591  0.5183 -0.1730  0.2034
 6785TIP3    H141770   4.503   6.390  11.496 -0.7396 -2.3387 -0.2632
 6785TIP3    H241771   4.480   6.282  11.600 -1.4249  0.3094  2.4969
 6786TIP3   OH241772   3.372   6.446  11.043  0.3586 -0.7848 -0.1930
 6786TIP3    H141773   3.332   6.388  10.978  0.4299 -0.1691 -0.8015
 6786TIP3    H241774   3.388   6.527  10.995 -1.0717  0.2462  1.0258
 6787TIP3   OH241775   1.406   2.605  12.925 -0.1929  0.7326 -0.3561
 6787TIP3    H141776   1.407   2.691  12.967  3.7270  1.6391 -1.8641
 6787TIP3    H241777   1.491   2.567  12.946 -1.1354 -2.0671 -1.1854
 6788TIP3   OH241778   6.011   4.970  11.574 -0.3062  0.1753 -0.3962
 6788TIP3    H141779   5.997   4.908  11.644 -2.5825  0.6349 -0.3630
 6788TIP3    H241780   5.954   5.044  11.595 -0.7471  0.5115 -2.4809
 6789TIP3   OH241781   4.443   5.260  14.518 -0.7038  0.4441 -0.3624
 6789TIP3    H141782   4.502   5.273  14.593  1.4836  1.7460 -2.1912
 6789TIP3    H241783   4.404   5.346  14.504  1.3346  1.1017 -2.5625
 6790TIP3   OH241784   3.189   5.181  13.715  0.2608 -0.0393 -0.1905
 6790TIP3    H141785   3.236   5.230  13.782  0.9535  0.2753 -0.8860
 6790TIP3    H241786   3.242   5.103  13.700 -0.8705 -1.0653  0.9550
 6791TIP3   OH241787   4.084   6.016   2.248  0.1501  0.1420  0.4083
 6791TIP3    H141788   4.054   6.037   2.160  0.6052 -1.4611 -0.1639
 6791TIP3    H241789   4.099   6.101   2.290 -1.7259  0.9428 -0.4624
 6792TIP3   OH241790   0.074   0.961   0.131  0.2353 -0.1298 -0.0450
 6792TIP3    H141791   0.050   0.907   0.055  1.8573 -1.2513  0.1868
 6792TIP3    H241792   0.047   0.909   0.206  0.1250  0.2454  0.1770
 6793TIP3   OH241793   3.450   5.111  11.094  0.2547 -0.2847 -0.2036
 6793TIP3    H141794   3.371   5.164  11.107  1.1709  1.2004 -0.4332
 6793TIP3    H241795   3.420   5.035  11.046 -1.2676 -0.4350  0.9020
 6794TIP3   OH241796   4.759   6.162   2.982  0.7401 -0.2591 -0.2250
 6794TIP3    H141797   4.664   6.169   2.998  0.6786 -1.1208 -0.1838
 6794TIP3    H241798   4.766   6.113   2.901  1.1593 -0.7641  0.1117
 6795TIP3   OH241799   5.350   6.228  12.995  0.2290 -0.1228  0.2639
 6795TIP3    H141800   5.408   6.154  13.010  0.6984 -0.4992 -2.8255
 6795TIP3    H241801   5.264   6.189  12.980  0.3975 -0.0680 -0.9676
 6796TIP3   OH241802   0.438   2.975   5.521 -0.0509  0.2866 -0.6967
 6796TIP3    H141803   0.417   2.957   5.429  1.5488 -2.0214 -0.6941
 6796TIP3    H241804   0.532   2.992   5.521  0.2166 -1.0329  0.6352
 6797TIP3   OH241805   6.432   2.232  13.418  0.0305 -0.4364 -0.1584
 6797TIP3    H141806   6.363   2.225  13.352 -0.3777 -0.6656  0.2861
 6797TIP3    H241807   6.386   2.256  13.499  0.6569  1.0660 -0.2070
 6798TIP3   OH241808   4.185   6.449   4.623 -0.4231 -0.5153 -0.0687
 6798TIP3    H141809   4.145   6.523   4.669  0.3962 -0.8089  1.1673
 6798TIP3    H241810   4.235   6.403   4.691 -0.1620 -1.6654 -1.0157
 6799TIP3   OH241811   5.745   0.445   4.239 -0.1788  0.0767  0.2143
 6799TIP3    H141812   5.759   0.540   4.231 -1.9730  0.2343 -2.3193
 6799TIP3    H241813   5.673   0.437   4.301 -1.4770  0.5978 -1.1542
 6800TIP3   OH241814   6.786   1.667   4.664  0.0406  0.3660  0.0621
 6800TIP3    H141815   6.762   1.577   4.642  1.0656 -0.1504  0.9685
 6800TIP3    H241816   6.703   1.714   4.666 -0.4737 -0.4709 -0.7884
 6801TIP3   OH241817   2.273   1.165   5.260  0.0663  0.2643 -0.2123
 6801TIP3    H141818   2.352   1.119   5.289 -1.0154 -0.3775  1.9427
 6801TIP3    H241819   2.215   1.095   5.230 -0.5841  0.4744  0.5398
 6802TIP3   OH241820   4.698   0.531   5.440 -0.5600 -0.1615 -0.2033
 6802TIP3    H141821   4.657   0.580   5.369 -2.4477  0.5892  1.3217
 6802TIP3    H241822   4.725   0.598   5.503  0.4524 -0.8540  0.1262
 6803TIP3   OH241823   5.871   5.569   4.129  0.0134  0.0633 -0.4197
 6803TIP3    H141824   5.936   5.637   4.112 -0.6623  0.5461 -1.1378
 6803TIP3    H241825   5.905   5.492   4.084  0.8382 -0.1141  0.4943
 6804TIP3   OH241826   0.334   4.615  11.341  0.2803 -0.4726 -0.0135
 6804TIP3    H141827   0.408   4.572  11.383 -0.4959 -2.7245 -0.7790
 6804TIP3    H241828   0.373   4.663  11.268  1.1216 -0.4852  0.4163
 6805TIP3   OH241829   2.365   5.596  15.998 -0.2066  0.1293  0.1563
 6805TIP3    H141830   2.451   5.635  15.982 -0.1440 -0.7252 -1.9624
 6805TIP3    H241831   2.316   5.614  15.918 -0.9245 -2.1092  0.0349
 6806TIP3   OH241832   5.556   3.872   5.970  0.5080 -0.5155 -0.2685
 6806TIP3    H141833   5.541   3.891   5.878  2.2994  0.2361 -0.4356
 6806TIP3    H241834   5.487   3.809   5.993 -1.9258  1.6036 -1.2578
 6807TIP3   OH241835   5.011   4.503  15.375  0.5285  0.5402  0.0179
 6807TIP3    H141836   4.967   4.431  15.419 -0.8022  0.9726 -0.5346
 6807TIP3    H241837   5.078   4.461  15.321 -2.0015 -0.6381 -2.4608
 6808TIP3   OH241838   4.228   6.052  16.750 -0.0439 -0.6340  0.1775
 6808TIP3    H141839   4.258   6.126  16.697 -1.1016 -1.0383 -1.0249
 6808TIP3    H241840   4.243   5.976  16.694 -1.6206 -1.0179  0.2533
 6809TIP3   OH241841   2.659   3.271  12.684  0.1587 -0.1215 -0.2881
 6809TIP3    H141842   2.712   3.191  12.688  0.1199 -0.1625 -0.5558
 6809TIP3    H241843   2.576   3.243  12.645 -0.0938 -0.0722  0.2087
 6810TIP3   OH241844   5.842   1.188   2.538 -0.1439 -0.2733 -0.0028
 6810TIP3    H141845   5.883   1.141   2.610  1.4156 -0.8050 -1.1668
 6810TIP3    H241846   5.812   1.120   2.478 -3.6004  0.0665  1.1573
 6811TIP3   OH241847   1.002   1.017  16.901 -0.6355  0.1543 -0.7418
 6811TIP3    H141848   0.920   0.973  16.926 -0.9626  0.6946 -0.8657
 6811TIP3    H241849   1.050   1.026  16.984 -1.0057  0.4670 -0.5611
 6812TIP3   OH241850   1.304   1.382  16.367  0.0494 -0.3322 -0.2651
 6812TIP3    H141851   1.322   1.470  16.400  1.6568 -1.2854  1.6467
 6812TIP3    H241852   1.371   1.367  16.300  0.2644 -0.3866 -0.0375
 6813TIP3   OH241853   2.707   1.496  12.177 -0.0325  0.5385  0.3613
 6813TIP3    H141854   2.785   1.467  12.130 -0.5255 -0.6237  0.2277
 6813TIP3    H241855   2.638   1.497  12.110 -0.6709 -0.8237  0.9691
 6814TIP3   OH241856   2.504   3.865   4.277  0.2356 -0.0450  0.0235
 6814TIP3    H141857   2.491   3.886   4.184  1.1349  0.7529  0.0659
 6814TIP3    H241858   2.417   3.872   4.315 -0.0285  0.3447 -0.6229
 6815TIP3   OH241859   1.890   1.327  16.790 -0.5215  0.0059 -0.1715
 6815TIP3    H141860   1.960   1.266  16.813 -1.2929 -1.0245 -0.4765
 6815TIP3    H241861   1.828   1.274  16.739 -0.9063  1.2006 -0.9871
 6816TIP3   OH241862   0.847   0.260   1.359 -0.2629 -0.0931 -0.3918
 6816TIP3    H141863   0.942   0.248   1.351 -0.2134  0.6067 -1.0356
 6816TIP3    H241864   0.811   0.172   1.366  0.5223 -0.3315  1.0073
 6817TIP3   OH241865   3.929   1.123   5.874  0.0346 -0.0819  0.1889
 6817TIP3    H141866   3.897   1.034   5.889  3.1199 -1.0828  1.7368
 6817TIP3    H241867   4.023   1.112   5.859  0.4385  2.9022 -0.0022
 6818TIP3   OH241868   3.529   6.599   0.040  0.0715  0.4233 -0.4350
 6818TIP3    H141869   3.614   6.606   0.083 -1.0853 -1.5324  2.4767
 6818TIP3    H241870   3.473   6.661   0.088 -0.7746 -0.2793 -0.4980
 6819TIP3   OH241871   6.212   2.107  12.684  0.0135  0.3059 -0.4318
 6819TIP3    H141872   6.129   2.081  12.724  0.5021  1.0115  1.1250
 6819TIP3    H241873   6.196   2.196  12.652 -1.1641 -1.0993 -4.3039
 6820TIP3   OH241874   3.821   5.204  16.915 -0.2691 -0.1204  0.4335
 6820TIP3    H141875   3.907   5.187  16.876  0.3819  0.7181  1.4270
 6820TIP3    H241876   3.793   5.286  16.876 -0.3262 -0.0717  0.5775
 6821TIP3   OH241877   4.647   4.392  11.746  0.1010 -0.4133  0.5158
 6821TIP3    H141878   4.562   4.406  11.703  0.0051  1.4430  1.2003
 6821TIP3    H241879   4.641   4.304  11.783 -0.9341 -0.8995 -0.7267
 6822TIP3   OH241880   3.833   3.319   2.408 -0.0748 -0.3372  0.0357
 6822TIP3    H141881   3.923   3.291   2.393 -1.0750 -2.5817 -2.7281
 6822TIP3    H241882   3.800   3.260   2.475  0.4203  0.3817  0.9321
 6823TIP3   OH241883   4.346   5.954  16.362 -0.1329 -0.1239  0.4109
 6823TIP3    H141884   4.269   5.989  16.318 -1.4144 -0.5044  2.1989
 6823TIP3    H241885   4.378   6.026  16.417 -0.7155 -0.6698  1.5045
 6824TIP3   OH241886   4.812   1.458  16.644 -0.1238  0.5695 -0.9953
 6824TIP3    H141887   4.852   1.464  16.558  1.3623  1.6268 -0.2729
 6824TIP3    H241888   4.886   1.449  16.705 -1.1515 -0.7247  0.1388
 6825TIP3   OH241889   1.201   6.216   3.374 -0.3808  0.0394  0.0881
 6825TIP3    H141890   1.204   6.310   3.390  0.6019  0.0641 -0.1700
 6825TIP3    H241891   1.138   6.183   3.437  0.3843  0.6707  1.2268
 6826TIP3   OH241892   1.311   3.788   0.221 -1.0128  0.3899 -0.1126
 6826TIP3    H141893   1.241   3.726   0.242 -1.0124  0.7339  0.9910
 6826TIP3    H241894   1.347   3.757   0.138 -0.1219 -1.9105  1.0409
 6827TIP3   OH241895   5.182   0.852   0.917 -0.0506  0.1258 -0.2027
 6827TIP3    H141896   5.269   0.849   0.877 -0.2233 -1.4335 -0.5306
 6827TIP3    H241897   5.123   0.869   0.844 -0.0473  1.2938  0.0356
 6828TIP3   OH241898   1.874   0.300  12.434  0.5439  0.3498  0.0121
 6828TIP3    H141899   1.844   0.248  12.509 -1.8224  1.1474 -0.2911
 6828TIP3    H241900   1.882   0.389  12.467 -0.1451  0.6403 -0.5698
 6829TIP3   OH241901   6.038   6.690  13.402 -0.1409  0.5258 -0.4825
 6829TIP3    H141902   6.032   6.598  13.374  0.0308 -0.0012  1.0802
 6829TIP3    H241903   5.974   6.736  13.348 -0.5521 -0.6033 -0.9939
 6830TIP3   OH241904   1.372   6.531  12.974 -0.1329 -0.2707  0.3546
 6830TIP3    H141905   1.285   6.553  13.009 -1.8786 -2.3448 -2.3062
 6830TIP3    H241906   1.408   6.469  13.037 -1.3490 -0.7100  0.6478
 6831TIP3   OH241907   1.468   3.691  13.529 -0.2726 -0.4703  0.4845
 6831TIP3    H141908   1.509   3.674  13.613  2.5717  1.0356 -0.4885
 6831TIP3    H241909   1.483   3.784  13.512  0.1165 -0.9129 -2.0963
 6832TIP3   OH241910   0.609   4.106  16.577  0.3205 -0.1176  0.2435
 6832TIP3    H141911   0.678   4.166  16.552 -0.4576  0.5781 -0.3040
 6832TIP3    H241912   0.557   4.154  16.642 -0.8436  0.1931 -0.8683
 6833TIP3   OH241913   2.564   4.809   1.453  0.2829  0.2300  0.1977
 6833TIP3    H141914   2.625   4.877   1.483  1.6085 -0.5666 -0.5442
 6833TIP3    H241915   2.614   4.762   1.385 -1.6502  0.3836 -1.4146
 6834TIP3   OH241916   0.224   3.674   4.400 -0.6139 -0.3048 -0.0360
 6834TIP3    H141917   0.130   3.692   4.392 -0.5237  0.5836  0.6872
 6834TIP3    H241918   0.230   3.579   4.398 -1.6619 -0.4277  1.0906
 6835TIP3   OH241919   4.624   2.248  11.029 -0.5048  0.2653  0.6076
 6835TIP3    H141920   4.647   2.156  11.039 -0.2344  0.5065  2.6434
 6835TIP3    H241921   4.707   2.291  11.006 -0.9930 -0.1888 -2.5533
 6836TIP3   OH241922   0.825   6.403  12.483 -0.2643 -0.6360  0.0640
 6836TIP3    H141923   0.811   6.316  12.445 -1.9971 -0.2686 -0.2396
 6836TIP3    H241924   0.884   6.388  12.556  2.4018 -1.5352 -2.0952
 6837TIP3   OH241925   1.001   0.549  10.527  0.1547 -0.1178 -0.2785
 6837TIP3    H141926   1.088   0.539  10.487 -0.0232 -2.0604 -0.2719
 6837TIP3    H241927   0.980   0.641  10.515  1.8713  0.2233 -1.0062
 6838TIP3   OH241928   6.557   6.002  15.736 -0.1518 -0.6679  0.3229
 6838TIP3    H141929   6.493   6.069  15.759 -0.4425 -0.6123 -0.6192
 6838TIP3    H241930   6.630   6.050  15.698  0.1041 -0.8008  0.6411
 6839TIP3   OH241931   6.035   4.624  14.449  0.0886 -0.0082  0.4184
 6839TIP3    H141932   6.101   4.686  14.480  0.4060  1.0788 -2.1718
 6839TIP3    H241933   5.958   4.678  14.432 -0.0673 -0.5491 -0.6344
 6840TIP3   OH241934   2.510   4.197  15.173 -0.1384  0.4833  0.1467
 6840TIP3    H141935   2.520   4.150  15.091 -0.0202  0.5137  0.1430
 6840TIP3    H241936   2.588   4.253  15.178 -0.2758  0.6767  0.1504
 6841TIP3   OH241937   1.573   1.149   2.857 -0.1651 -0.6508  0.0442
 6841TIP3    H141938   1.634   1.076   2.866 -0.4690 -1.2398 -2.0846
 6841TIP3    H241939   1.486   1.108   2.858 -0.7457  0.2707  4.0838
 6842TIP3   OH241940   3.500   4.034   0.556  0.2377  0.5230 -0.0418
 6842TIP3    H141941   3.575   4.005   0.608  0.8423 -0.9992 -1.6329
 6842TIP3    H241942   3.530   4.115   0.514  0.7645  0.2766 -0.1569
 6843TIP3   OH241943   3.040   0.181  11.974 -0.1150  0.8216  0.2933
 6843TIP3    H141944   3.020   0.107  11.917 -0.7348 -0.7533  2.4417
 6843TIP3    H241945   3.133   0.198  11.959 -0.1948  0.2516 -0.9489
 6844TIP3   OH241946   1.531   6.346   2.791 -0.0359  0.2696  0.0515
 6844TIP3    H141947   1.513   6.396   2.712  0.3691 -0.4173 -0.4810
 6844TIP3    H241948   1.487   6.262   2.778  1.9361 -0.7358 -0.4814
 6845TIP3   OH241949   4.467   2.902  11.920  0.4562  0.5588 -0.1372
 6845TIP3    H141950   4.555   2.865  11.911  0.1979 -0.4387  1.0829
 6845TIP3    H241951   4.465   2.975  11.858  1.2713 -0.9712 -2.0854
 6846TIP3   OH241952   0.823   6.534  14.380 -0.1064  0.0274 -0.2620
 6846TIP3    H141953   0.868   6.616  14.362 -1.9408  1.3435  0.8429
 6846TIP3    H241954   0.733   6.549  14.348 -0.7070 -1.2101  0.7710
 6847TIP3   OH241955   4.621   3.827  12.023 -1.1740 -0.4091  0.1520
 6847TIP3    H141956   4.611   3.810  12.117  1.6151  2.4352  1.1690
 6847TIP3    H241957   4.711   3.860  12.015 -0.7549 -2.0413 -3.8360
 6848TIP3   OH241958   5.154   5.542   1.902  0.1807 -0.3707  0.7989
 6848TIP3    H141959   5.137   5.608   1.969 -1.6044 -0.2958  0.3046
 6848TIP3    H241960   5.128   5.459   1.942  1.8483 -0.7492  1.1975
 6849TIP3   OH241961   1.395   2.026  10.345 -0.2995  0.0431 -0.8162
 6849TIP3    H141962   1.421   2.015  10.436  0.7389  0.7576 -1.0044
 6849TIP3    H241963   1.444   2.102  10.315  0.3549 -0.9302 -2.3418
 6850TIP3   OH241964   4.190   6.531   2.400  0.2986  0.5983  0.0842
 6850TIP3    H141965   4.229   6.528   2.313 -0.8267  0.5315 -0.4398
 6850TIP3    H241966   4.116   6.592   2.391  0.0965  0.4963  0.9565
 6851TIP3   OH241967   2.366   3.728   1.358  0.2783  0.4841  0.0410
 6851TIP3    H141968   2.389   3.682   1.277 -0.9850 -1.5893  0.7608
 6851TIP3    H241969   2.287   3.777   1.335 -0.4799 -0.6490  0.1466
 6852TIP3   OH241970   5.402   6.704   4.177  0.0215  0.4554 -0.5358
 6852TIP3    H141971   5.453   6.649   4.236  1.9680  2.1938 -0.4784
 6852TIP3    H241972   5.419   6.793   4.207  0.9465  1.4203 -3.5663
 6853TIP3   OH241973   1.460   5.544  14.062  0.2590  0.5048 -0.2260
 6853TIP3    H141974   1.388   5.600  14.034 -0.0665 -0.9985 -2.8181
 6853TIP3    H241975   1.539   5.591  14.036  0.0195  0.2804 -1.4283
 6854TIP3   OH241976   3.284   4.793  16.683  0.5160  0.1308 -0.1799
 6854TIP3    H141977   3.313   4.721  16.627 -2.0657  0.2490 -1.8415
 6854TIP3    H241978   3.301   4.872  16.632 -1.0317  0.3043 -0.4861
 6855TIP3   OH241979   3.734   5.800   3.216  0.3577 -0.2424  0.1072
 6855TIP3    H141980   3.763   5.845   3.136  1.6227  0.1294  0.7525
 6855TIP3    H241981   3.638   5.800   3.209  0.2190  3.0140  0.2795
 6856TIP3   OH241982   2.433   0.149   6.192  0.4364  0.0006 -0.5439
 6856TIP3    H141983   2.465   0.238   6.178  2.3137 -0.0740  2.2149
 6856TIP3    H241984   2.483   0.119   6.269 -2.4581 -2.2468  0.6340
 6857TIP3   OH241985   1.173   6.647   0.348  0.2572 -0.0090 -1.0808
 6857TIP3    H141986   1.164   6.722   0.407 -1.0313  1.4405 -2.9905
 6857TIP3    H241987   1.112   6.582   0.383  0.6907  0.1716  0.0648
 6858TIP3   OH241988   3.542   0.566   4.494 -0.7168  0.4325 -0.8576
 6858TIP3    H141989   3.597   0.628   4.445 -0.5536  0.6302 -0.4294
 6858TIP3    H241990   3.468   0.618   4.524 -0.8169  0.3126 -0.8980
 6859TIP3   OH241991   4.746   0.125   0.675  0.0476  0.2359 -0.1087
 6859TIP3    H141992   4.705   0.044   0.643  0.1332  0.6478 -1.3128
 6859TIP3    H241993   4.688   0.155   0.745 -0.5429 -0.3294 -0.3418
 6860TIP3   OH241994   1.795   5.450   0.864  0.0439  0.2022  0.5034
 6860TIP3    H141995   1.841   5.398   0.798  0.4061  0.2591  0.7052
 6860TIP3    H241996   1.706   5.416   0.864  0.5410 -1.1864  1.4036
 6861TIP3   OH241997   5.151   3.128   2.314  0.3695 -0.1440 -0.7227
 6861TIP3    H141998   5.106   3.128   2.230 -0.9000  0.5763 -0.0784
 6861TIP3    H241999   5.111   3.200   2.362  1.0299 -0.5766  0.5175
 6862TIP3   OH242000   6.443   1.323   5.475  0.5316 -0.3604  0.1789
 6862TIP3    H142001   6.378   1.392   5.463  1.1456  0.0394 -0.9835
 6862TIP3    H242002   6.460   1.291   5.387  0.8572 -1.4482  0.6229
 6863TIP3   OH242003   4.486   6.330   1.843  0.4024 -0.2321 -0.0764
 6863TIP3    H142004   4.497   6.425   1.831  1.0926 -0.1153  1.3256
 6863TIP3    H242005   4.449   6.300   1.760  1.2278  1.0877 -0.9601
 6864TIP3   OH242006   2.744   0.306  16.633  0.2990 -0.2302  0.2688
 6864TIP3    H142007   2.713   0.216  16.622 -2.6300  0.7907 -1.0572
 6864TIP3    H242008   2.729   0.325  16.725  0.5264 -0.9762  0.4654
 6865TIP3   OH242009   1.570   3.046  11.530 -0.3166 -0.0649  0.1966
 6865TIP3    H142010   1.572   2.983  11.458  0.6894 -0.4010  0.5059
 6865TIP3    H242011   1.559   2.992  11.609 -1.2924  0.2900  0.3164
 6866TIP3   OH242012   3.687   3.399   4.842 -0.0638  0.1799 -0.2272
 6866TIP3    H142013   3.720   3.313   4.869  2.3709  0.4793 -1.9738
 6866TIP3    H242014   3.651   3.385   4.755  1.4895  1.0988 -1.0624
 6867TIP3   OH242015   5.602   1.937  15.317  0.1813  0.3901 -0.5215
 6867TIP3    H142016   5.551   1.953  15.237 -0.0775 -0.2792 -0.5010
 6867TIP3    H242017   5.678   1.994  15.309 -1.3521  2.6790  0.2326
 6868TIP3   OH242018   2.814   0.534  12.866  0.5817 -0.5332  0.3960
 6868TIP3    H142019   2.720   0.549  12.874  0.6821 -0.2978  1.3002
 6868TIP3    H242020   2.850   0.619  12.839  0.5973 -0.4784  0.5905
 6869TIP3   OH242021   0.207   3.436   2.689  0.4228 -0.3049 -0.4674
 6869TIP3    H142022   0.127   3.487   2.674 -1.6649 -3.1511  0.0594
 6869TIP3    H242023   0.211   3.376   2.614  1.4436 -0.9523  0.0949
 6870TIP3   OH242024   2.894   5.985   2.261  0.3260  0.7453  0.4209
 6870TIP3    H142025   2.815   5.938   2.235  0.5964 -0.8235  2.3153
 6870TIP3    H242026   2.922   6.030   2.180 -1.7731  0.3535 -0.5932
 6871TIP3   OH242027   6.327   3.979  15.723 -0.1274  0.2941  0.2704
 6871TIP3    H142028   6.295   4.026  15.800  1.8933  1.4615  0.4832
 6871TIP3    H242029   6.411   3.943  15.751 -0.8008 -2.0195 -0.4584
 6872TIP3   OH242030   4.433   1.521  13.228  0.0739  0.0479 -0.2132
 6872TIP3    H142031   4.372   1.529  13.301 -0.2305  0.3776 -0.5001
 6872TIP3    H242032   4.377   1.504  13.152  0.2108  1.7563 -0.7366
 6873TIP3   OH242033   1.400   0.406  15.906 -0.0483  0.2604  0.4867
 6873TIP3    H142034   1.453   0.486  15.908 -1.5671  1.2956  1.8664
 6873TIP3    H242035   1.416   0.369  15.819  1.8124  1.2635  0.3380
 6874TIP3   OH242036   3.949   5.973  15.636  0.1537 -0.4394 -0.3660
 6874TIP3    H142037   4.011   6.012  15.698 -1.2351  2.4906 -0.6752
 6874TIP3    H242038   3.938   5.882  15.667  2.2381 -0.1525  1.4704
 6875TIP3   OH242039   5.977   6.774  11.129 -0.6901 -0.0314 -0.0508
 6875TIP3    H142040   5.924   6.853  11.116 -1.6914 -0.5314  0.7601
 6875TIP3    H242041   5.968   6.726  11.047 -3.8158 -1.3905  0.9094
 6876TIP3   OH242042   4.354   2.157  12.453  0.2258  0.0156  0.0794
 6876TIP3    H142043   4.445   2.172  12.428  0.0374  1.0411 -0.0166
 6876TIP3    H242044   4.323   2.242  12.484 -1.3749  0.2532 -1.9775
 6877TIP3   OH242045   5.981   1.166   4.063 -0.3323 -0.1217  0.4168
 6877TIP3    H142046   5.948   1.169   3.973  2.9252 -0.5006 -0.9327
 6877TIP3    H242047   5.994   1.258   4.086  2.8405 -0.0072 -1.2848
 6878TIP3   OH242048   3.391   3.345  13.469  0.6997  0.0291  0.1681
 6878TIP3    H142049   3.339   3.413  13.511 -0.6764 -0.6052 -0.4375
 6878TIP3    H242050   3.331   3.271  13.459  1.1889 -0.1539 -2.1174
 6879TIP3   OH242051   0.418   0.705  14.416  0.0468  0.4642  0.1752
 6879TIP3    H142052   0.376   0.645  14.355  2.5192 -0.0111 -1.1891
 6879TIP3    H242053   0.404   0.792  14.377  1.8679  0.1423 -1.3615
 6880TIP3   OH242054   4.508   3.579  14.570  0.5461 -0.4315  0.0974
 6880TIP3    H142055   4.590   3.532  14.554  0.2569 -0.2305 -2.4746
 6880TIP3    H242056   4.505   3.646  14.501 -0.6243  1.2167  1.6600
 6881TIP3   OH242057   4.030   5.387   5.693  0.0174 -0.1706 -0.3235
 6881TIP3    H142058   4.009   5.470   5.736  0.9713 -0.1152  0.0567
 6881TIP3    H242059   3.947   5.339   5.693 -0.2591  0.2736  0.5832
 6882TIP3   OH242060   2.319   3.514   5.840 -0.2826 -0.4109 -0.5986
 6882TIP3    H142061   2.338   3.423   5.863 -0.8377 -0.8797 -1.9009
 6882TIP3    H242062   2.230   3.512   5.804  0.1351  0.4409 -1.7321
 6883TIP3   OH242063   0.951   1.734  13.817  0.0869 -0.3442 -0.0711
 6883TIP3    H142064   1.034   1.690  13.800 -0.2194 -1.4272  1.0513
 6883TIP3    H242065   0.912   1.748  13.731  0.3442 -2.0197 -0.4787
 6884TIP3   OH242066   3.915   1.242   4.880 -0.4167  0.4437  0.0156
 6884TIP3    H142067   3.866   1.323   4.896  2.0814  1.5994  2.4879
 6884TIP3    H242068   3.959   1.257   4.796  1.0768  2.3176  1.0553
 6885TIP3   OH242069   1.413   6.158  15.524 -0.1115  0.4707  0.0170
 6885TIP3    H142070   1.473   6.139  15.452 -0.4873 -0.4912 -0.0560
 6885TIP3    H242071   1.365   6.236  15.496  0.6892  0.9055 -0.1757
 6886TIP3   OH242072   1.521   5.428   0.720  0.2941 -0.0074 -0.4515
 6886TIP3    H142073   1.511   5.517   0.754 -0.3249  0.6427 -2.2453
 6886TIP3    H242074   1.482   5.372   0.788  1.3386  0.9946  1.0299
 6887TIP3   OH242075   2.192   3.111  15.088 -0.9424  0.1104 -0.1802
 6887TIP3    H142076   2.103   3.130  15.058 -0.6764 -0.1264 -1.1746
 6887TIP3    H242077   2.190   3.018  15.112 -1.2175  0.3608  0.7787
 6888TIP3   OH242078   5.263   1.153   4.339  0.3429 -0.3595 -0.3498
 6888TIP3    H142079   5.199   1.209   4.295 -0.4787  1.0147  2.3629
 6888TIP3    H242080   5.213   1.105   4.404  1.9718  0.8151  1.9201
 6889TIP3   OH242081   3.292   3.829  11.622  0.2882  0.6843  0.4645
 6889TIP3    H142082   3.289   3.808  11.529 -0.5873 -1.2294  0.8843
 6889TIP3    H242083   3.284   3.925  11.626  0.3000  0.7838 -1.4002
 6890TIP3   OH242084   1.229   5.267   0.174 -0.7014 -0.4681  0.3137
 6890TIP3    H142085   1.150   5.217   0.195 -0.8198  0.8634  3.5234
 6890TIP3    H242086   1.269   5.285   0.259  1.8033  0.9415 -1.0744
 6891TIP3   OH242087   1.536   0.121  10.341 -0.7023  0.2076 -0.6704
 6891TIP3    H142088   1.445   0.143  10.362 -1.3032 -1.9141 -0.8415
 6891TIP3    H242089   1.562   0.059  10.410 -0.5177 -1.7465 -2.4069
 6892TIP3   OH242090   4.463   2.095   4.260  0.0531 -0.0126  0.5324
 6892TIP3    H142091   4.548   2.081   4.217 -0.3418 -4.6406  0.7607
 6892TIP3    H242092   4.400   2.099   4.188 -0.0035 -2.1207  0.3930
 6893TIP3   OH242093   1.432   1.119  14.132 -0.0893 -0.2741  0.0595
 6893TIP3    H142094   1.386   1.054  14.079  1.0295 -0.1364 -1.1228
 6893TIP3    H242095   1.463   1.184  14.069  3.2845 -1.2958  0.4700
 6894TIP3   OH242096   1.746   1.380   3.825  0.4646  0.3115 -0.0318
 6894TIP3    H142097   1.819   1.403   3.768  0.5044 -1.6514 -0.8830
 6894TIP3    H242098   1.773   1.297   3.866 -0.3308  0.7492  1.4616
 6895TIP3   OH242099   3.400   1.242  10.729  0.7153 -0.7630  0.3642
 6895TIP3    H142100   3.319   1.277  10.765 -0.7713  0.9436 -4.0404
 6895TIP3    H242101   3.377   1.153  10.700  1.3225 -1.3724  1.6800
 6896TIP3   OH242102   3.817   4.404  14.113  0.2604 -0.2308  0.2875
 6896TIP3    H142103   3.883   4.345  14.150 -0.4118 -0.2688  1.5015
 6896TIP3    H242104   3.734   4.367  14.143 -0.3527 -0.3599 -1.4571
 6897TIP3   OH242105   3.777   1.215   5.642  0.2790  0.8253 -0.0647
 6897TIP3    H142106   3.820   1.206   5.727 -1.9501  0.5843  1.1128
 6897TIP3    H242107   3.839   1.177   5.579  0.0272 -3.6957  2.0483
 6898TIP3   OH242108   1.828   4.419  13.641  0.1597  0.3809  0.0904
 6898TIP3    H142109   1.869   4.401  13.556  2.9070  1.3359  1.1028
 6898TIP3    H242110   1.885   4.484  13.681 -0.2014 -1.0945  3.2639
 6899TIP3   OH242111   3.206   6.233   5.755  0.2168 -0.3273 -0.2925
 6899TIP3    H142112   3.216   6.153   5.704  0.0782 -1.1992  1.0069
 6899TIP3    H242113   3.241   6.211   5.841 -0.5057  0.7838  0.3060
 6900TIP3   OH242114   6.773   5.837  13.387 -0.6448 -0.1777 -0.1182
 6900TIP3    H142115   6.848   5.889  13.416  0.6824 -1.2333 -1.4809
 6900TIP3    H242116   6.756   5.869  13.298 -0.3827 -1.4265 -0.6346
 6901TIP3   OH242117   2.504   6.285  13.472  0.2153 -0.0202  0.5282
 6901TIP3    H142118   2.554   6.356  13.512 -0.5513  1.9007 -1.6778
 6901TIP3    H242119   2.532   6.285  13.380 -0.9453 -1.5528  0.1365
 6902TIP3   OH242120   2.221   4.157  12.453  0.1335  0.7102 -0.5636
 6902TIP3    H142121   2.245   4.250  12.464  0.5960  0.5154  0.1702
 6902TIP3    H242122   2.279   4.126  12.384 -0.4781  1.1223 -1.2806
 6903TIP3   OH242123   6.171   5.576  12.099  0.2934 -0.5713 -0.0459
 6903TIP3    H142124   6.245   5.544  12.150  0.6164  0.4350  0.1455
 6903TIP3    H242125   6.153   5.663  12.135 -0.7994 -0.6841 -0.2795
 6904TIP3   OH242126   4.020   5.867   3.381  0.1674 -0.5123 -0.4709
 6904TIP3    H142127   4.070   5.926   3.438 -0.1409 -0.8723  0.1935
 6904TIP3    H242128   3.966   5.924   3.327  1.8607 -0.0639 -1.7811
 6905TIP3   OH242129   2.150   6.332   0.099  0.5035 -0.1783  0.2819
 6905TIP3    H142130   2.170   6.414   0.054 -0.9860 -0.0966 -0.2915
 6905TIP3    H242131   2.234   6.301   0.131  0.9331  2.2989  1.8145
 6906TIP3   OH242132   4.164   5.876  16.127  0.4956 -0.5069  0.1975
 6906TIP3    H142133   4.107   5.855  16.054  0.7416 -0.9101  0.1142
 6906TIP3    H242134   4.218   5.797  16.139  1.9678  0.3384 -0.5921
 6907TIP3   OH242135   1.300   5.062  16.517 -0.0850  0.0020  0.5810
 6907TIP3    H142136   1.352   5.119  16.459 -2.2689  1.5603  0.0012
 6907TIP3    H242137   1.311   5.100  16.604  0.2989 -0.0897  0.5722
 6908TIP3   OH242138   1.751   5.690  12.598  0.1350 -0.3021  0.2660
 6908TIP3    H142139   1.661   5.720  12.585  0.5251  1.2227  0.8200
 6908TIP3    H242140   1.787   5.682  12.510  0.6842  3.2033  0.0404
 6909TIP3   OH242141   1.897   2.601  14.214 -0.0880  0.3790  0.1046
 6909TIP3    H142142   1.821   2.545  14.196  0.1995  0.4089 -1.4046
 6909TIP3    H242143   1.973   2.544  14.198  0.2129  0.5190  0.9973
 6910TIP3   OH242144   4.972   3.437  13.745 -0.2872 -0.4997  0.4792
 6910TIP3    H142145   4.979   3.408  13.655 -0.4621 -0.4115  0.4368
 6910TIP3    H242146   4.912   3.375  13.786 -0.5785 -0.2620  0.4151
 6911TIP3   OH242147   4.160   2.576  11.542  0.2270  0.0772 -0.6039
 6911TIP3    H142148   4.190   2.594  11.631 -0.7326  0.4423 -0.3424
 6911TIP3    H242149   4.204   2.495  11.518  0.9210  0.2621 -0.0093
 6912TIP3   OH242150   1.179   2.412   3.507 -1.0166 -0.3263 -0.4105
 6912TIP3    H142151   1.087   2.414   3.532 -1.1798  0.8013 -1.0082
 6912TIP3    H242152   1.178   2.388   3.415 -0.6328 -1.3603 -0.1527
 6913TIP3   OH242153   4.390   2.060  16.899  0.4016  0.1910 -0.3089
 6913TIP3    H142154   4.453   1.994  16.929 -0.0428  0.0644  0.3679
 6913TIP3    H242155   4.433   2.144  16.915 -0.2978  0.1909  1.9034
 6914TIP3   OH242156   4.587   2.794   1.114 -0.4761 -0.7130  0.0585
 6914TIP3    H142157   4.521   2.733   1.079  0.9177 -1.6786 -1.0333
 6914TIP3    H242158   4.671   2.753   1.092  0.5134  1.2160  0.0533
 6915TIP3   OH242159   4.462   3.015   0.880 -0.3968  0.5738  0.2877
 6915TIP3    H142160   4.394   3.048   0.821  0.1756  3.2437  1.0169
 6915TIP3    H242161   4.511   2.953   0.826 -0.4823  2.2006 -1.7712
 6916TIP3   OH242162   4.897   1.094  17.092  0.0713 -0.3348  0.7250
 6916TIP3    H142163   4.944   1.093  17.176 -2.6328  1.2793  2.3970
 6916TIP3    H242164   4.926   1.175  17.050  0.2855 -0.3786  0.7851
 6917TIP3   OH242165   2.659   0.702   2.009  0.6000 -0.0153  0.4297
 6917TIP3    H142166   2.620   0.784   1.979  1.1094 -0.2933 -1.0630
 6917TIP3    H242167   2.600   0.672   2.079 -1.0047  0.3514 -0.7027
 6918TIP3   OH242168   2.188   2.876  16.089  0.1124 -0.4810  0.6467
 6918TIP3    H142169   2.276   2.847  16.062 -0.3416  0.4685 -2.1278
 6918TIP3    H242170   2.150   2.798  16.131  2.2434 -0.8988  2.0103
 6919TIP3   OH242171   3.625   6.669  16.978  0.6003 -0.5075 -0.1676
 6919TIP3    H142172   3.627   6.743  17.038  0.7376 -0.4202 -0.2806
 6919TIP3    H242173   3.626   6.592  17.036  0.8070 -0.4244 -0.0587
 6920TIP3   OH242174   3.620   5.878   5.075 -0.4529  0.1096 -0.2668
 6920TIP3    H142175   3.566   5.837   5.144 -0.8529  1.0641  0.0142
 6920TIP3    H242176   3.637   5.808   5.013 -0.5016 -0.6592  0.5584
 6921TIP3   OH242177   4.870   0.566  11.545  0.5690 -0.0062 -0.2864
 6921TIP3    H142178   4.833   0.489  11.588  0.7607 -0.1014 -0.2931
 6921TIP3    H242179   4.868   0.546  11.452  2.4528 -0.8235 -0.1856
 6922TIP3   OH242180   2.700   2.092   6.180  0.2628 -0.6302 -0.2960
 6922TIP3    H142181   2.753   2.025   6.223  0.2673  0.4978  1.5369
 6922TIP3    H242182   2.758   2.167   6.171  0.1476 -0.6908 -2.0060
 6923TIP3   OH242183   3.602   5.909  15.633  0.5149 -0.9295  0.2860
 6923TIP3    H142184   3.536   5.912  15.703 -0.1198  1.3327 -0.3104
 6923TIP3    H242185   3.685   5.902  15.680  0.0428 -0.4695  1.2337
 6924TIP3   OH242186   5.814   5.099  12.159  0.0155  1.0842  0.4129
 6924TIP3    H142187   5.786   5.023  12.109  1.8589  0.6998 -0.1221
 6924TIP3    H242188   5.744   5.163  12.148  0.0985  0.8065 -2.1954
 6925TIP3   OH242189   3.469   0.797   0.654 -0.0322 -0.5070  0.1553
 6925TIP3    H142190   3.515   0.837   0.727  0.3684 -0.7486  0.0373
 6925TIP3    H242191   3.386   0.766   0.691  0.7841 -1.9618  0.8666
 6926TIP3   OH242192   5.100   6.217   0.531  0.4264 -0.2275 -0.3169
 6926TIP3    H142193   5.143   6.293   0.571  0.3098 -0.8153  0.9838
 6926TIP3    H242194   5.121   6.224   0.438  0.5872  1.2820 -0.1972
 6927TIP3   OH242195   4.178   6.781  14.840  0.2351  0.0689  0.0788
 6927TIP3    H142196   4.195   6.849  14.905 -0.5807  2.1723 -1.7725
 6927TIP3    H242197   4.095   6.741  14.867  1.4845 -1.3718  2.0432
 6928TIP3   OH242198   5.300   1.662   2.266  0.5633 -0.5514  0.4085
 6928TIP3    H142199   5.238   1.596   2.238  0.7534 -1.3368  1.7844
 6928TIP3    H242200   5.338   1.695   2.184 -1.3478 -0.3041 -0.4427
 6929TIP3   OH242201   3.967   2.912   2.106 -0.7167 -0.3002  0.5506
 6929TIP3    H142202   4.030   2.846   2.134 -0.6396  0.5364  2.4799
 6929TIP3    H242203   3.882   2.868   2.112 -0.4576 -1.2207 -1.4329
 6930TIP3   OH242204   5.922   4.337   3.696  0.7235 -0.3239 -0.1096
 6930TIP3    H142205   5.909   4.426   3.729 -0.7117 -0.7939  0.6825
 6930TIP3    H242206   5.909   4.281   3.772 -1.1087 -1.3654 -1.1289
 6931TIP3   OH242207   1.010   1.039   3.327  0.3125  0.1011 -0.2143
 6931TIP3    H142208   1.028   1.000   3.241  0.9616  0.5452 -0.2927
 6931TIP3    H242209   1.034   0.971   3.390 -1.4358 -0.7318 -0.3842
 6932TIP3   OH242210   2.190   5.674  11.610 -0.1218  0.0185  0.5183
 6932TIP3    H142211   2.135   5.634  11.678  0.2759  0.0051  0.8288
 6932TIP3    H242212   2.268   5.704  11.655  1.3787 -2.3366 -0.3006
 6933TIP3   OH242213   5.109   2.467  15.506 -0.5291  0.2229  0.0610
 6933TIP3    H142214   5.189   2.521  15.508 -0.3063 -0.1083  0.1621
 6933TIP3    H242215   5.115   2.418  15.424  0.3786 -1.3048  1.0003
 6934TIP3   OH242216   4.436   2.476  15.771 -0.4455  0.7806 -0.6864
 6934TIP3    H142217   4.402   2.422  15.842 -1.6198  0.1062 -1.7293
 6934TIP3    H242218   4.440   2.418  15.695 -1.6637  2.0845 -1.8249
 6935TIP3   OH242219   6.599   6.229  16.393 -0.1929 -0.1512  0.1240
 6935TIP3    H142220   6.643   6.155  16.434  1.0855  0.4824 -0.0756
 6935TIP3    H242221   6.515   6.235  16.439 -1.3322 -3.0939 -1.3649
 6936TIP3   OH242222   4.049   0.020   5.857  0.2410 -0.1372 -0.4859
 6936TIP3    H142223   3.961  -0.017   5.847  0.2554  0.0188 -1.2452
 6936TIP3    H242224   4.046   0.068   5.939 -0.7470  0.8360 -1.0572
 6937TIP3   OH242225   3.621   3.975  12.227 -0.4968 -0.2751  0.1265
 6937TIP3    H142226   3.625   4.048  12.289  0.9498  1.5331 -1.9100
 6937TIP3    H242227   3.528   3.954  12.219 -1.0526  2.0042  0.0919
 6938TIP3   OH242228   1.774   6.257   4.993 -0.2580 -0.1304 -0.4501
 6938TIP3    H142229   1.820   6.299   4.921  0.6281  1.0058  0.7294
 6938TIP3    H242230   1.829   6.273   5.070 -2.0085  0.1967  0.7931
 6939TIP3   OH242231   4.295   0.771  15.948 -0.8521  0.4483  0.3708
 6939TIP3    H142232   4.371   0.768  16.006  0.0916  1.0435 -0.7792
 6939TIP3    H242233   4.298   0.688  15.900  0.6145  1.4944 -1.4846
 6940TIP3   OH242234   1.756   3.034  16.784  0.6145 -0.3340 -0.0447
 6940TIP3    H142235   1.763   3.113  16.731 -1.0612  0.8059  1.3166
 6940TIP3    H242236   1.843   2.994  16.781  1.7959  2.0892  0.0491
 6941TIP3   OH242237   3.412   4.439   5.933 -0.0365 -0.6333  0.2978
 6941TIP3    H142238   3.368   4.492   5.999  0.0108  1.3656 -1.1849
 6941TIP3    H242239   3.493   4.411   5.976 -0.8143 -0.8856  1.6607
 6942TIP3   OH242240   5.804   5.061   2.411  0.8084  0.7358 -0.8783
 6942TIP3    H142241   5.794   4.970   2.386  1.3799  0.2849  0.4434
 6942TIP3    H242242   5.743   5.109   2.356  1.4093 -0.2854 -2.4805
 6943TIP3   OH242243   5.257   5.186  11.276  0.5058  0.2732  0.3634
 6943TIP3    H142244   5.266   5.189  11.181 -0.0894 -0.1038  0.2893
 6943TIP3    H242245   5.316   5.255  11.308  0.0291  1.0191 -0.3266
 6944TIP3   OH242246   3.760   5.983   4.510 -0.0724 -0.2519  0.2842
 6944TIP3    H142247   3.741   6.039   4.586  0.6652 -0.4479  0.6214
 6944TIP3    H242248   3.697   5.911   4.517 -0.5225  0.1332  0.2725
 6945TIP3   OH242249   5.634   5.903   2.897 -0.0599 -0.4321 -0.3611
 6945TIP3    H142250   5.597   5.831   2.948 -1.4863 -0.5227 -1.4547
 6945TIP3    H242251   5.636   5.870   2.807  0.0300  0.6145 -0.7566
 6946TIP3   OH242252   4.181   2.702  14.336 -0.3808  0.0245  0.4778
 6946TIP3    H142253   4.089   2.691  14.313 -0.5609  0.8947  0.7334
 6946TIP3    H242254   4.229   2.647  14.274 -0.8973  1.6622 -1.4790
 6947TIP3   OH242255   5.543   0.217  14.725 -0.0909 -0.4402 -0.1954
 6947TIP3    H142256   5.538   0.311  14.740  1.6340 -0.4024  0.3475
 6947TIP3    H242257   5.480   0.179  14.787  1.4377  0.1932  1.8593
 6948TIP3   OH242258   1.782   1.344  13.228  0.3923 -0.4502  0.3975
 6948TIP3    H142259   1.775   1.420  13.287  0.8364  0.0255 -0.1408
 6948TIP3    H242260   1.876   1.338  13.208  0.3182 -0.9510  0.1839
 6949TIP3   OH242261   1.673   4.119  16.470  0.0992  0.6450  0.0309
 6949TIP3    H142262   1.687   4.171  16.549  0.7062 -2.3796  2.0776
 6949TIP3    H242263   1.580   4.098  16.471  0.0712  0.7572 -0.1627
 6950TIP3   OH242264   1.131   1.585   3.944  0.0929 -0.0231  0.0579
 6950TIP3    H142265   1.076   1.664   3.939  2.4774  1.6736 -1.0371
 6950TIP3    H242266   1.220   1.618   3.948  1.2763 -2.6905 -1.5600
 6951TIP3   OH242267   4.269   1.281   3.485  0.2539  0.3741  0.1240
 6951TIP3    H142268   4.192   1.316   3.441 -1.2831 -0.6911  1.8189
 6951TIP3    H242269   4.300   1.353   3.540  0.6902  0.9025 -0.7865
 6952TIP3   OH242270   0.525   2.758   4.619  0.0162  0.5946  0.2934
 6952TIP3    H142271   0.436   2.792   4.629  0.6863  1.9388  2.2420
 6952TIP3    H242272   0.513   2.664   4.605 -1.7287  0.9377 -0.8320
 6953TIP3   OH242273   0.180   3.060  12.443 -0.3197 -0.1896  0.1517
 6953TIP3    H142274   0.121   3.005  12.391  1.2583 -1.2412 -0.6123
 6953TIP3    H242275   0.126   3.092  12.515 -1.9266 -0.7244 -0.7611
 6954TIP3   OH242276   0.437   2.492   3.563  0.0699 -1.1620  0.3413
 6954TIP3    H142277   0.380   2.567   3.576  2.2804  0.5318  0.9364
 6954TIP3    H242278   0.477   2.478   3.649 -0.1010 -2.8915  0.1751
 6955TIP3   OH242279   0.176   4.904  15.294 -0.2497  0.0352  0.4002
 6955TIP3    H142280   0.192   4.891  15.200 -2.2487  0.8774 -0.1087
 6955TIP3    H242281   0.081   4.901  15.302 -0.1370  0.6100  2.3196
 6956TIP3   OH242282   5.275   4.633  11.399  0.3036  0.3786  0.6118
 6956TIP3    H142283   5.250   4.574  11.471  1.7586 -1.4717 -0.3195
 6956TIP3    H242284   5.200   4.632  11.340  0.2248 -0.3799  0.7197
 6957TIP3   OH242285   4.182   2.899   3.332 -0.3473  0.0965  0.1418
 6957TIP3    H142286   4.173   2.992   3.310 -0.4034 -0.3321 -1.8106
 6957TIP3    H242287   4.161   2.895   3.425 -0.6483  1.9945  0.2030
 6958TIP3   OH242288   2.361   4.171   2.217  0.5401 -0.1581  0.0009
 6958TIP3    H142289   2.443   4.219   2.210 -0.0119  0.6260 -1.4601
 6958TIP3    H242290   2.375   4.110   2.290  2.3247  0.1027 -0.0867
 6959TIP3   OH242291   4.690   5.758  17.069  0.5042  0.8360  0.6038
 6959TIP3    H142292   4.739   5.725  16.993  0.9513 -0.6070  1.4693
 6959TIP3    H242293   4.715   5.700  17.140 -2.2816  0.1657  1.1720
 6960TIP3   OH242294   6.656   1.951  12.446 -0.2255 -0.0813 -0.5803
 6960TIP3    H142295   6.746   1.971  12.472 -0.0841 -0.4560 -0.7721
 6960TIP3    H242296   6.602   2.008  12.501 -0.0028 -1.7298  1.5065
 6961TIP3   OH242297   4.567   4.893  16.026  0.4006 -0.1011 -0.5064
 6961TIP3    H142298   4.503   4.940  15.973 -0.2240 -1.8680 -1.3666
 6961TIP3    H242299   4.594   4.957  16.092  0.5575  1.8961 -2.3874
 6962TIP3   OH242300   3.334   6.671   5.139  0.0508  0.4363 -0.4982
 6962TIP3    H142301   3.378   6.614   5.202 -1.0068  0.1366 -0.0068
 6962TIP3    H242302   3.279   6.728   5.193 -1.3572 -0.2510 -1.1488
 6963TIP3   OH242303   1.639   6.264  11.105  0.2957  0.1351 -0.1594
 6963TIP3    H142304   1.553   6.224  11.102  1.0746 -1.7994  1.2590
 6963TIP3    H242305   1.629   6.347  11.059 -2.2558 -0.1137 -0.1641
 6964TIP3   OH242306   6.279   0.045   2.231  0.0524  0.3963 -0.1604
 6964TIP3    H142307   6.339   0.115   2.258 -0.5272  0.1598  1.8198
 6964TIP3    H242308   6.323  -0.036   2.257 -0.5358  0.1577  0.1102
 6965TIP3   OH242309   5.166   4.417   5.343  0.3441  0.3190  0.1566
 6965TIP3    H142310   5.112   4.444   5.417  0.5254 -0.9249  0.7633
 6965TIP3    H242311   5.106   4.374   5.284  0.2986  0.8401 -0.1846
 6966TIP3   OH242312   5.086   1.763   5.270 -0.3931 -0.4681  0.4600
 6966TIP3    H142313   4.994   1.781   5.290 -0.0904 -0.9117  2.5712
 6966TIP3    H242314   5.083   1.701   5.198 -1.6340  1.5394 -1.3246
 6967TIP3   OH242315   2.584   3.474   4.082 -0.8154  0.0029  0.3774
 6967TIP3    H142316   2.589   3.453   3.989  1.3990 -0.1746  0.4951
 6967TIP3    H242317   2.561   3.391   4.124  0.4106 -0.4729  0.1568
 6968TIP3   OH242318   6.432   5.716   4.377  0.3880  0.5140  0.5689
 6968TIP3    H142319   6.493   5.741   4.308 -1.1195 -0.1437 -1.0742
 6968TIP3    H242320   6.349   5.755   4.351 -0.7178 -1.5399  0.8421
 6969TIP3   OH242321   1.588   3.564   2.373 -0.2081  0.0526  0.1766
 6969TIP3    H142322   1.612   3.649   2.336 -1.5042 -0.3337 -1.6637
 6969TIP3    H242323   1.527   3.527   2.310 -1.0077 -1.5177  1.8082
 6970TIP3   OH242324   1.647   0.232  15.791  0.3779  0.6839 -0.0119
 6970TIP3    H142325   1.640   0.150  15.741  0.1039 -0.3367  1.5973
 6970TIP3    H242326   1.668   0.298  15.726  0.5394 -0.6549 -1.3928
 6971TIP3   OH242327   0.056   1.986   2.604  0.2565 -0.0900  0.3375
 6971TIP3    H142328   0.012   2.061   2.565  0.2620  0.3941  1.2381
 6971TIP3    H242329  -0.016   1.932   2.638  0.2421 -0.6024 -0.4847
 6972TIP3   OH242330   1.902   0.949  16.466  0.5892  1.5691  0.0376
 6972TIP3    H142331   1.947   0.981  16.544  0.8173 -0.5991  0.8762
 6972TIP3    H242332   1.810   0.944  16.492  0.8435 -0.5454  0.7689
 6973TIP3   OH242333   6.022   2.875   6.123  0.2856  0.0312  0.5555
 6973TIP3    H142334   6.005   2.840   6.210  0.2163 -1.1112  0.1096
 6973TIP3    H242335   6.115   2.860   6.108  0.4114  0.7096  0.6329
 6974TIP3   OH242336   3.097   5.312  10.701  0.3014  0.1761  0.5411
 6974TIP3    H142337   3.108   5.380  10.768  0.0557  0.4055  0.3497
 6974TIP3    H242338   3.049   5.355  10.630 -0.8167 -0.4923  0.8645
 6975TIP3   OH242339   3.572   3.247   3.800 -0.4110 -0.7838 -0.4291
 6975TIP3    H142340   3.526   3.260   3.883  0.3493  2.0272 -0.3503
 6975TIP3    H242341   3.512   3.280   3.733  0.8445  1.6735 -0.4466
 6976TIP3   OH242342   2.916   5.356   4.232 -0.3722  0.6663  0.2657
 6976TIP3    H142343   2.877   5.285   4.181  0.2220  1.4419 -1.3397
 6976TIP3    H242344   2.841   5.406   4.266 -0.8004  0.7339 -0.7432
 6977TIP3   OH242345   3.604   3.280  13.301  0.0380 -0.4318  0.1936
 6977TIP3    H142346   3.647   3.365  13.308  0.1774 -0.4506 -0.3513
 6977TIP3    H242347   3.517   3.293  13.338 -0.0431  0.0263 -0.1446
 6978TIP3   OH242348   5.755   6.253  13.351 -0.1586  0.0764 -0.6393
 6978TIP3    H142349   5.786   6.164  13.338 -2.0784 -0.5403 -1.3815
 6978TIP3    H242350   5.833   6.308  13.344  1.5573 -1.6861  2.6267
 6979TIP3   OH242351   2.211   1.649   6.059  0.6856  0.5081  0.4178
 6979TIP3    H142352   2.205   1.708   5.984 -0.1641  0.3168  0.3211
 6979TIP3    H242353   2.194   1.705   6.135 -1.3944  0.2182  0.2413
 6980TIP3   OH242354   5.656   5.935  11.977 -0.3413 -0.0409  0.3263
 6980TIP3    H142355   5.751   5.931  11.965 -0.5556 -3.0284 -1.5298
 6980TIP3    H242356   5.628   6.006  11.919  0.7528  1.4895  1.5661
 6981TIP3   OH242357   6.548   3.896  17.040  0.0155 -0.0093 -0.3670
 6981TIP3    H142358   6.501   3.912  17.122  0.1517  1.9942 -0.6306
 6981TIP3    H242359   6.489   3.840  16.989 -1.1307  0.6852  0.1622
 6982TIP3   OH242360   2.897   3.283   4.496  0.0253  0.1310 -0.4693
 6982TIP3    H142361   2.961   3.292   4.567  1.8744 -1.1545 -1.8539
 6982TIP3    H242362   2.863   3.194   4.506  0.5127 -0.1592 -1.3496
 6983TIP3   OH242363   1.372   1.439  14.640  0.3090 -0.2487 -0.2162
 6983TIP3    H142364   1.468   1.441  14.648  0.3141 -0.9500 -0.1115
 6983TIP3    H242365   1.349   1.346  14.643 -0.5348 -0.0191  1.4510
 6984TIP3   OH242366   4.545   4.188  16.253 -0.5463 -0.0991  0.0534
 6984TIP3    H142367   4.460   4.210  16.214 -0.2867 -1.7284 -1.5422
 6984TIP3    H242368   4.595   4.149  16.182  1.5576  0.7624  0.9875
 6985TIP3   OH242369   2.405   4.911  13.899 -0.2880 -0.0019 -0.7453
 6985TIP3    H142370   2.458   4.988  13.881  0.1486  0.0346  0.5836
 6985TIP3    H242371   2.405   4.904  13.995 -4.7313  1.4982 -0.3978
 6986TIP3   OH242372   0.677   5.090   3.094 -0.2155  0.2849 -0.1641
 6986TIP3    H142373   0.615   5.113   3.025 -0.5659  0.8345  0.3266
 6986TIP3    H242374   0.653   5.001   3.120 -0.2839  0.1964 -0.5304
 6987TIP3   OH242375   6.498   3.683   3.028  0.3461  0.1741  0.0715
 6987TIP3    H142376   6.573   3.742   3.028 -0.5840  1.4328  1.6377
 6987TIP3    H242377   6.426   3.734   2.990  0.0000 -0.6440 -0.4099
 6988TIP3   OH242378   4.864   4.915   5.039  0.0172  0.0081 -0.2173
 6988TIP3    H142379   4.907   4.972   5.103  1.6942 -1.4481  0.0319
 6988TIP3    H242380   4.844   4.835   5.088  1.8160 -1.3509 -1.5778
 6989TIP3   OH242381   1.617   2.382  13.398 -0.0517 -0.0635  0.0917
 6989TIP3    H142382   1.630   2.288  13.383 -2.3003 -0.6887  1.5365
 6989TIP3    H242383   1.656   2.424  13.322  1.0126 -2.1515 -0.6053
 6990TIP3   OH242384   1.789   2.231  14.559 -0.4386  0.0267 -0.4619
 6990TIP3    H142385   1.748   2.171  14.621 -0.0245 -1.3603 -1.4900
 6990TIP3    H242386   1.717   2.263  14.505 -0.4727 -0.7357 -0.8786
 6991TIP3   OH242387   6.009   3.592   3.137 -0.1808  0.2282  0.2574
 6991TIP3    H142388   6.080   3.652   3.160 -1.2848  2.0499 -0.8479
 6991TIP3    H242389   6.025   3.569   3.046 -0.3314 -0.3688  0.3750
 6992TIP3   OH242390   5.450   0.196   0.881  0.4190  0.0953  0.3213
 6992TIP3    H142391   5.360   0.166   0.893  0.1214  1.1554  0.8751
 6992TIP3    H242392   5.453   0.281   0.925  0.9691  1.3407 -1.9464
 6993TIP3   OH242393   4.360   1.156   5.472 -0.0030 -0.0998  0.2560
 6993TIP3    H142394   4.357   1.183   5.380 -0.9286  2.0470  0.8410
 6993TIP3    H242395   4.452   1.164   5.496  0.1744 -0.2107 -0.3594
 6994TIP3   OH242396   1.615   1.575  15.482 -0.0481 -0.4738  0.2811
 6994TIP3    H142397   1.526   1.540  15.491  0.0046 -0.1711  2.5472
 6994TIP3    H242398   1.608   1.640  15.412 -1.2485 -1.4717 -0.5815
 6995TIP3   OH242399   5.156   5.126  14.340 -0.0399  0.4954  0.2568
 6995TIP3    H142400   5.129   5.192  14.403 -1.8233 -2.2661  2.6543
 6995TIP3    H242401   5.075   5.100  14.296 -0.1243 -2.3450  1.8428
 6996TIP3   OH242402   1.354   4.306  17.008 -0.6810 -0.0768  0.2185
 6996TIP3    H142403   1.441   4.268  16.999 -0.2178  0.9176  0.3271
 6996TIP3    H242404   1.341   4.316  17.102 -0.2651  1.1568  0.1718
 6997TIP3   OH242405   3.333   3.954   4.660 -0.0592  0.0598  0.4635
 6997TIP3    H142406   3.426   3.942   4.682  0.1305  1.5729  0.6286
 6997TIP3    H242407   3.307   4.031   4.711 -1.2940 -0.0762  0.0633
 6998TIP3   OH242408   6.635   4.269  13.162 -0.0780  0.0967  0.4962
 6998TIP3    H142409   6.654   4.359  13.187  0.6828  0.5578 -1.5422
 6998TIP3    H242410   6.546   4.271  13.129  0.4365  0.4668 -0.9505
 6999TIP3   OH242411   4.285   3.074   1.095  0.5312 -0.1718  0.3027
 6999TIP3    H142412   4.234   2.994   1.104  0.2025  0.1669  1.7329
 6999TIP3    H242413   4.342   3.058   1.020 -1.9896 -0.3800 -1.7070
 7000TIP3   OH242414   3.769   3.702   4.467  0.1363 -0.5229 -0.5078
 7000TIP3    H142415   3.779   3.667   4.379 -0.0184 -0.7813 -0.4224
 7000TIP3    H242416   3.708   3.776   4.457 -0.2837 -0.8680 -0.5394
 7001TIP3   OH242417   0.328   4.308   1.977  0.3417 -0.0047 -0.2136
 7001TIP3    H142418   0.274   4.335   1.902 -0.1273 -2.9970 -1.1078
 7001TIP3    H242419   0.307   4.371   2.045 -1.8105  0.8763 -1.5676
 7002TIP3   OH242420   6.340   6.682  12.480  0.2563  0.2319  0.0555
 7002TIP3    H142421   6.279   6.644  12.417  1.1317  0.8059 -1.1902
 7002TIP3    H242422   6.419   6.698  12.429  1.5565 -0.7011  1.6585
 7003TIP3   OH242423   3.767   5.190   0.624 -0.5289 -0.6016 -0.4300
 7003TIP3    H142424   3.844   5.134   0.613 -0.2286 -0.1820 -0.4825
 7003TIP3    H242425   3.798   5.264   0.677 -0.8516 -0.3406 -0.6020
 7004TIP3   OH242426   4.155   2.243   1.298  0.3110  0.3023 -0.0210
 7004TIP3    H142427   4.215   2.171   1.320  0.8630  0.6011 -0.5217
 7004TIP3    H242428   4.140   2.287   1.381  0.9291  0.3283  0.0844
 7005TIP3   OH242429   3.795   4.759   5.483 -0.1872 -0.1320 -0.0609
 7005TIP3    H142430   3.720   4.767   5.543  0.8992  0.0349  1.3178
 7005TIP3    H242431   3.789   4.836   5.427  0.1490  1.0579  1.4579
 7006TIP3   OH242432   3.448   1.660   1.706  0.1031 -0.6711  0.1130
 7006TIP3    H142433   3.541   1.644   1.725 -0.0380  0.3475  1.8623
 7006TIP3    H242434   3.439   1.639   1.613  2.0502 -0.9503 -0.0546
 7007TIP3   OH242435   5.676   2.859   1.354 -0.2895  0.0071 -0.1403
 7007TIP3    H142436   5.747   2.825   1.300  0.5245  0.9791  0.2764
 7007TIP3    H242437   5.600   2.807   1.331  0.0320  0.3943 -2.2258
 7008TIP3   OH242438   3.246   1.740   4.418  0.3742 -0.3980 -0.3940
 7008TIP3    H142439   3.257   1.654   4.460  0.1891  0.6191  1.9211
 7008TIP3    H242440   3.333   1.780   4.423 -0.3257  1.0440  2.3020
 7009TIP3   OH242441   5.468   4.339   0.318 -0.9309 -0.2606 -0.1758
 7009TIP3    H142442   5.383   4.295   0.312 -0.5123 -0.9006 -2.0071
 7009TIP3    H242443   5.467   4.402   0.246 -0.6002  1.1444  1.0061
 7010TIP3   OH242444   2.410   5.781  11.734  0.9294 -0.3397 -0.5626
 7010TIP3    H142445   2.476   5.734  11.785 -0.1603 -0.9995  0.2701
 7010TIP3    H242446   2.461   5.834  11.673  2.2388 -0.5508  0.3029
 7011TIP3   OH242447   1.755   1.706   2.711  0.4465 -0.2380  0.0934
 7011TIP3    H142448   1.716   1.664   2.788  1.3039  1.1629  1.3768
 7011TIP3    H242449   1.699   1.682   2.638 -1.6848  0.1642  1.5278
 7012TIP3   OH242450   0.110   6.072  16.367 -0.2205  0.0496 -0.1138
 7012TIP3    H142451   0.121   6.157  16.325  1.1490 -0.4576 -0.8346
 7012TIP3    H242452   0.081   6.014  16.297  1.9241 -0.7658 -0.3750
 7013TIP3   OH242453   4.030   6.470  12.687 -0.1597  0.0019  0.2794
 7013TIP3    H142454   4.041   6.565  12.684  1.4653 -0.1296  0.9714
 7013TIP3    H242455   3.949   6.454  12.637 -0.3912  1.7147  0.0235
 7014TIP3   OH242456   5.753   2.151  13.233  0.1972 -0.0067 -0.3488
 7014TIP3    H142457   5.670   2.139  13.280 -0.1001 -0.6034 -1.0067
 7014TIP3    H242458   5.737   2.113  13.147  1.0712  0.1283 -0.5771
 7015TIP3   OH242459   3.505   4.595  16.229 -0.3407 -0.2933  0.4726
 7015TIP3    H142460   3.514   4.507  16.265  1.8356  0.7598  2.8080
 7015TIP3    H242461   3.576   4.602  16.165 -0.8497 -0.3659 -0.1169
 7016TIP3   OH242462   5.101   2.581   4.329  0.2015 -0.0807  0.0950
 7016TIP3    H142463   5.130   2.490   4.339  1.1521 -0.2854 -3.2846
 7016TIP3    H242464   5.014   2.575   4.288 -0.4197  0.5612  1.2744
 7017TIP3   OH242465   5.156   5.785   3.685 -0.5278  0.0263 -0.5929
 7017TIP3    H142466   5.176   5.800   3.777 -2.3030  1.9068 -0.4395
 7017TIP3    H242467   5.232   5.817   3.637  1.0517 -2.2869  0.1797
 7018TIP3   OH242468   4.918   0.847  11.542  0.3837 -0.3326  0.2906
 7018TIP3    H142469   4.883   0.758  11.543 -0.1796 -0.1162  0.5747
 7018TIP3    H242470   4.878   0.889  11.619  1.3414 -0.0961  0.6755
 7019TIP3   OH242471   3.577   0.342   3.465 -0.0452 -0.4620 -0.1490
 7019TIP3    H142472   3.670   0.346   3.447  0.0332 -0.2291  0.2822
 7019TIP3    H242473   3.537   0.313   3.383  0.4419 -0.9577 -0.2169
 7020TIP3   OH242474   3.469   2.329   2.422 -0.0071 -0.6890 -0.0473
 7020TIP3    H142475   3.386   2.292   2.452 -1.1712  1.8209  0.1192
 7020TIP3    H242476   3.469   2.419   2.456  2.0028 -0.0773 -1.4628
 7021TIP3   OH242477   1.297   2.103   0.901  0.3394  0.0066  0.0723
 7021TIP3    H142478   1.221   2.101   0.842 -0.6731  1.4586  1.2600
 7021TIP3    H242479   1.262   2.079   0.986  1.3620  0.0446  0.5188
 7022TIP3   OH242480   3.613   3.957   4.100  0.4800 -0.0008  0.0917
 7022TIP3    H142481   3.601   3.871   4.060  0.5943  0.2630 -0.5187
 7022TIP3    H242482   3.708   3.967   4.106  0.4654 -0.0364  0.4419
 7023TIP3   OH242483   1.852   4.583  11.469 -0.0348 -0.0976  0.0541
 7023TIP3    H142484   1.869   4.674  11.495  0.4519 -0.1832  0.0489
 7023TIP3    H242485   1.927   4.560  11.414  0.2260 -0.7362  0.6601
 7024TIP3   OH242486   0.961   1.524   4.222  0.1886  0.0935  0.1492
 7024TIP3    H142487   1.034   1.553   4.276  0.9557  0.1769 -0.9000
 7024TIP3    H242488   0.943   1.598   4.164 -0.4229 -0.0998  0.0855
 7025TIP3   OH242489   2.474   0.659  14.116 -0.1026 -0.1225  0.3253
 7025TIP3    H142490   2.520   0.734  14.153 -0.0309 -0.6662  1.3964
 7025TIP3    H242491   2.479   0.592  14.184 -2.5539 -0.1959  0.5437
 7026TIP3   OH242492   4.074   0.932   2.008  0.4018 -0.2545  0.4612
 7026TIP3    H142493   4.153   0.953   1.958 -0.3000 -1.5866 -1.3029
 7026TIP3    H242494   4.097   0.852   2.056  0.4090 -0.1279  0.6704
 7027TIP3   OH242495   6.295   5.406  12.564  0.1277 -0.2630  0.5148
 7027TIP3    H142496   6.356   5.347  12.607  0.0679 -2.3694 -2.0223
 7027TIP3    H242497   6.344   5.443  12.490 -1.2676 -1.1976 -0.9629
 7028TIP3   OH242498   6.762   4.336   4.185 -0.3704  0.3600 -0.1512
 7028TIP3    H142499   6.669   4.314   4.182 -0.8997  2.2307  0.8368
 7028TIP3    H242500   6.764   4.430   4.202  1.6964  0.2069  0.8438
 7029TIP3   OH242501   1.649   4.969   2.183  1.1023  0.0369 -0.1332
 7029TIP3    H142502   1.599   4.891   2.206 -1.4335  1.0908 -1.6795
 7029TIP3    H242503   1.739   4.938   2.174  0.2394 -2.6299 -0.3322
 7030TIP3   OH242504   3.223   2.080  12.407  0.1295  0.3621  0.0079
 7030TIP3    H142505   3.254   2.035  12.328 -0.9169 -1.8295  0.7555
 7030TIP3    H242506   3.200   2.009  12.467  0.3519  1.9594  2.0859
 7031TIP3   OH242507   4.108   0.905  16.219  0.6955  0.6101 -0.5687
 7031TIP3    H142508   4.095   0.827  16.165  2.2757 -1.1180  1.3855
 7031TIP3    H242509   4.019   0.934  16.241  0.0526 -0.9364 -0.9754
 7032TIP3   OH242510   5.357   1.933  12.223  0.4872 -0.1138  0.2342
 7032TIP3    H142511   5.350   1.853  12.276  1.6084 -0.4411 -0.0854
 7032TIP3    H242512   5.340   2.004  12.285  0.7828 -0.5428  0.8140
 7033TIP3   OH242513   2.288   0.377   1.273 -0.3357 -0.0545  0.1029
 7033TIP3    H142514   2.254   0.445   1.330  1.4958  1.8585 -0.9514
 7033TIP3    H242515   2.383   0.388   1.276 -0.0666 -1.5629 -1.3166
 7034TIP3   OH242516   4.803   1.661  16.223  0.1824  0.0634  0.2457
 7034TIP3    H142517   4.770   1.573  16.244  0.3417  0.0395  0.3948
 7034TIP3    H242518   4.728   1.719  16.239 -0.3398 -0.1911 -1.1306
 7035TIP3   OH242519   5.389   4.188   3.764  0.1711 -0.7107  0.2621
 7035TIP3    H142520   5.448   4.263   3.771  1.0182 -1.2851 -0.4395
 7035TIP3    H242521   5.369   4.165   3.854  0.5109 -0.1105  0.5011
 7036TIP3   OH242522   4.914   1.840  16.048  0.1598 -0.1696 -0.4426
 7036TIP3    H142523   4.886   1.771  16.108  1.2179 -0.5453 -0.3582
 7036TIP3    H242524   4.986   1.884  16.094 -2.0002  2.6410  0.6025
 7037TIP3   OH242525   2.205   4.864  14.557 -0.1541 -0.4723 -0.5469
 7037TIP3    H142526   2.291   4.851  14.517 -1.4359  1.4292 -4.4797
 7037TIP3    H242527   2.145   4.817  14.499 -2.0834  1.4002 -0.1993
 7038TIP3   OH242528   0.586   5.505   2.728 -0.1389 -0.1353 -0.6029
 7038TIP3    H142529   0.530   5.429   2.714 -2.4971  1.1175  1.2478
 7038TIP3    H242530   0.601   5.541   2.640 -0.6235 -1.5745 -1.3043
 7039TIP3   OH242531   2.252   2.112  14.289  0.5687 -0.1006  0.0699
 7039TIP3    H142532   2.158   2.096  14.281  0.3819  0.6741  0.5948
 7039TIP3    H242533   2.292   2.042  14.238 -0.3384  0.3279 -1.3202
 7040TIP3   OH242534   1.386   4.297   2.683 -0.2779 -0.4288  1.0887
 7040TIP3    H142535   1.419   4.381   2.650 -1.2475  0.1742  1.5997
 7040TIP3    H242536   1.311   4.277   2.628  1.4679 -2.3475 -0.7860
 7041TIP3   OH242537   4.597   5.923  14.123  0.1626 -0.3782 -0.1814
 7041TIP3    H142538   4.504   5.941  14.108 -0.2937 -2.1505  0.3057
 7041TIP3    H242539   4.642   5.976  14.057 -1.2980 -1.0636 -1.8094
 7042TIP3   OH242540   4.954   4.042   4.842 -0.3182  0.0420  0.0172
 7042TIP3    H142541   4.999   3.979   4.898  0.8447  1.2285  0.4847
 7042TIP3    H242542   4.932   3.993   4.762  2.9956 -0.3517 -0.8040
 7043TIP3   OH242543   5.450   6.002   5.736 -0.4517  0.8172  0.1717
 7043TIP3    H142544   5.402   6.084   5.731 -2.8959 -0.5592 -0.7915
 7043TIP3    H242545   5.527   6.022   5.789 -0.9308  3.7004 -0.0832
 7044TIP3   OH242546   1.867   4.911  11.326 -1.0991  0.3724  0.1834
 7044TIP3    H142547   1.901   4.964  11.253 -0.2637  0.6583  0.7611
 7044TIP3    H242548   1.795   4.861  11.287  0.5830 -1.0011 -1.3795
 7045TIP3   OH242549   5.190   4.231  12.314  0.1736 -0.6930  0.2462
 7045TIP3    H142550   5.226   4.245  12.226  3.3468 -0.6316  1.4370
 7045TIP3    H242551   5.191   4.136  12.325 -0.5802 -0.7244  0.1211
 7046TIP3   OH242552   6.319   5.536   1.648  0.2238 -0.7311 -0.2522
 7046TIP3    H142553   6.409   5.569   1.655  0.1687 -0.4901 -0.6485
 7046TIP3    H242554   6.264   5.614   1.657  0.0216 -0.9666  0.6924
 7047TIP3   OH242555   4.807   4.080  13.966  0.2109  0.5300  0.0336
 7047TIP3    H142556   4.717   4.062  13.939  0.7026 -2.0920 -0.0516
 7047TIP3    H242557   4.860   4.059  13.889  1.0754 -0.3756  0.8537
 7048TIP3   OH242558   1.800   4.422  16.464  0.2673 -0.0880  0.3391
 7048TIP3    H142559   1.818   4.390  16.553 -0.7043 -0.7953  0.2879
 7048TIP3    H242560   1.743   4.356  16.425  0.0383  0.6090 -0.5441
 7049TIP3   OH242561   1.739   1.759   1.520  0.0788 -0.7958  0.4871
 7049TIP3    H142562   1.829   1.751   1.550 -0.0683 -1.2036  0.8335
 7049TIP3    H242563   1.742   1.822   1.448  0.4728  0.0384  1.2249
 7050TIP3   OH242564   6.638   4.142   6.094  0.0122 -0.0895 -0.0916
 7050TIP3    H142565   6.687   4.134   6.013  0.8125  1.7925  0.1468
 7050TIP3    H242566   6.671   4.072   6.149  1.3649  0.2027 -0.4930
 7051TIP3   OH242567   4.006   1.633  11.316  0.0658 -0.3267 -0.2120
 7051TIP3    H142568   4.102   1.629  11.320  0.2285  1.0754 -1.6834
 7051TIP3    H242569   3.983   1.697  11.383  0.2886  0.2292 -0.6469
 7052TIP3   OH242570   4.374   6.664  16.009  0.3148  0.2347  0.5692
 7052TIP3    H142571   4.313   6.724  16.050 -1.1920 -1.4832  0.9890
 7052TIP3    H242572   4.420   6.622  16.082 -0.0290 -0.4864  0.3818
 7053TIP3   OH242573   0.989   4.935   1.753 -0.4367 -0.1345  0.1190
 7053TIP3    H142574   0.893   4.941   1.762 -0.5464 -0.8957 -0.4719
 7053TIP3    H242575   1.008   4.986   1.674 -0.3337  0.1484  0.3258
 7054TIP3   OH242576   4.906   1.503  11.893  0.2658  0.3156 -0.5791
 7054TIP3    H142577   4.980   1.524  11.836 -1.4593  1.1438 -2.6339
 7054TIP3    H242578   4.933   1.423  11.938  2.0844  0.1386 -1.8648
 7055TIP3   OH242579   3.783   2.286   2.714 -0.3774  0.6624  0.3078
 7055TIP3    H142580   3.689   2.278   2.730 -0.4585  0.1316 -0.3491
 7055TIP3    H242581   3.813   2.195   2.705  0.2801  0.8096  0.9453
 7056TIP3   OH242582   3.028   5.200   1.543  0.2476  0.4928 -0.1772
 7056TIP3    H142583   2.940   5.224   1.573 -0.1021 -0.0091 -0.7724
 7056TIP3    H242584   3.013   5.127   1.483  1.2702 -1.3902  1.6856
 7057TIP3   OH242585   3.312   3.710   2.745  0.0319  0.1751 -0.2611
 7057TIP3    H142586   3.392   3.666   2.772 -0.2535 -2.1051 -2.7119
 7057TIP3    H242587   3.312   3.705   2.649 -3.0263  0.0142 -0.3747
 7058TIP3   OH242588   2.602   3.644  14.499  0.5294  0.6263  0.9900
 7058TIP3    H142589   2.672   3.600  14.452  1.6561  2.6101  0.7013
 7058TIP3    H242590   2.523   3.624  14.449  1.1593 -0.1872  0.2991
 7059TIP3   OH242591   3.357   3.983  15.427 -0.9439  0.1887 -0.1962
 7059TIP3    H142592   3.299   4.044  15.472  0.8529  3.2675 -1.7363
 7059TIP3    H242593   3.324   3.980  15.337  0.7520  1.5074 -0.9368
 7060TIP3   OH242594   3.970   0.338   2.156  0.1469 -0.1230 -0.2683
 7060TIP3    H142595   4.003   0.428   2.147  0.9109 -0.4852 -1.2125
 7060TIP3    H242596   4.039   0.283   2.119  1.0208 -1.3834  2.8730
 7061TIP3   OH242597   5.168   6.455  11.683 -0.4594 -0.1008 -0.2459
 7061TIP3    H142598   5.131   6.526  11.631  0.3472 -0.5321 -1.4821
 7061TIP3    H242599   5.119   6.378  11.656 -0.0348 -0.3306 -0.3717
 7062TIP3   OH242600   6.531   2.605  13.463  0.1152  0.4571  0.2140
 7062TIP3    H142601   6.580   2.651  13.531  1.5691  1.0701 -1.1901
 7062TIP3    H242602   6.586   2.530  13.440 -0.3254  0.2966 -0.3379
 7063TIP3   OH242603   0.206   4.865   1.812  0.1055 -0.0524  0.2684
 7063TIP3    H142604   0.118   4.852   1.850 -0.0761 -1.1294 -0.4694
 7063TIP3    H242605   0.191   4.921   1.736  0.4237  1.8199  1.5148
 7064TIP3   OH242606   2.289   4.605  12.614  0.5105 -0.1950 -0.0845
 7064TIP3    H142607   2.259   4.552  12.541 -1.3054  0.7802 -0.1019
 7064TIP3    H242608   2.247   4.567  12.691  1.1351 -0.2389  0.2458
 7065TIP3   OH242609   5.313   0.585   3.088  0.3894  0.0612  0.3951
 7065TIP3    H142610   5.222   0.597   3.061 -0.6177 -3.0016  1.9348
 7065TIP3    H242611   5.343   0.508   3.039  1.2931 -0.4956  1.7591
 7066TIP3   OH242612   3.030   1.696  10.817 -0.2008 -0.5283 -0.0151
 7066TIP3    H142613   3.007   1.685  10.909 -0.5787  0.4468  0.0086
 7066TIP3    H242614   2.959   1.653  10.769 -1.0687  0.7373  0.1079
 7067TIP3   OH242615   6.181   3.418   5.689 -0.0110  0.4453 -0.5964
 7067TIP3    H142616   6.164   3.331   5.651 -0.0499 -0.3132  1.0589
 7067TIP3    H242617   6.174   3.478   5.615  0.1043 -0.9675 -1.8148
 7068TIP3   OH242618   1.930   4.245  11.819 -0.1465  0.2313  0.0936
 7068TIP3    H142619   1.953   4.333  11.790  0.5828  0.0175 -0.0044
 7068TIP3    H242620   2.015   4.203  11.837 -0.5128 -0.2098  0.8334
 7069TIP3   OH242621   0.133   2.617   3.279 -0.0313  0.2850  0.2353
 7069TIP3    H142622   0.070   2.670   3.229 -0.7599 -0.9582 -0.2299
 7069TIP3    H242623   0.216   2.630   3.234 -0.5250 -0.2183 -0.8641
 7070TIP3   OH242624   5.205   3.747  12.826  0.1911  0.3266  0.1619
 7070TIP3    H142625   5.189   3.670  12.771 -0.0135 -0.3628  1.1380
 7070TIP3    H242626   5.124   3.798  12.820  0.4793  0.6927 -0.8162
 7071TIP3   OH242627   4.098   5.270  13.282  0.1079  0.6186  0.5654
 7071TIP3    H142628   4.173   5.269  13.223  0.4831  2.1700  0.9769
 7071TIP3    H242629   4.059   5.356  13.271 -1.4963 -0.0667  0.5430
 7072TIP3   OH242630   2.705   2.464  15.710 -0.0682 -0.3384  1.0644
 7072TIP3    H142631   2.638   2.531  15.721 -0.3877 -0.3944 -0.2934
 7072TIP3    H242632   2.758   2.495  15.637  1.2637 -0.4134  1.9696
 7073TIP3   OH242633   0.573   1.500  14.489  0.0131 -0.1312  0.4850
 7073TIP3    H142634   0.635   1.465  14.425  0.1902 -1.0138  1.1225
 7073TIP3    H242635   0.533   1.575  14.445  0.5909 -0.3375 -0.4178
 7074TIP3   OH242636   0.903   6.563  16.966  0.2919  0.0166 -0.2753
 7074TIP3    H142637   0.880   6.567  17.059  1.3099 -0.2459  0.0055
 7074TIP3    H242638   0.995   6.534  16.966  0.5146  0.6854 -1.3357
 7075TIP3   OH242639   3.172   2.447   0.051 -0.1779 -0.4141  1.0034
 7075TIP3    H142640   3.268   2.447   0.042  0.0940 -0.1782  3.2378
 7075TIP3    H242641   3.141   2.388  -0.017  1.4820  0.2816 -0.4171
 7076TIP3   OH242642   6.690   3.227  15.259 -0.0949  0.3870  0.3209
 7076TIP3    H142643   6.706   3.190  15.172  0.3570 -0.0527  0.5843
 7076TIP3    H242644   6.773   3.269  15.283 -0.2274  0.5330  0.5232
 7077TIP3   OH242645   2.232   2.797   2.951  0.0626  0.2223  0.0177
 7077TIP3    H142646   2.310   2.751   2.981 -0.7848 -0.5570  1.0987
 7077TIP3    H242647   2.234   2.788   2.856  0.6388 -0.8380  0.1167
 7078TIP3   OH242648   3.246   3.323   2.172  0.3736  0.2529  0.9390
 7078TIP3    H142649   3.186   3.249   2.162 -0.7815  1.2672  0.0263
 7078TIP3    H242650   3.273   3.344   2.082  0.3435  1.1996  1.1358
 7079TIP3   OH242651   1.684   2.247  13.667 -0.3167  0.1666  0.0207
 7079TIP3    H142652   1.600   2.263  13.710 -0.4638 -1.1329  0.2489
 7079TIP3    H242653   1.664   2.250  13.573 -0.2243  1.7832  0.0180
 7080TIP3   OH242654   2.845   5.799   5.670  0.2502 -0.0765  0.1187
 7080TIP3    H142655   2.927   5.753   5.690  0.3043 -0.8788 -1.7611
 7080TIP3    H242656   2.863   5.890   5.690  1.7124 -0.1992 -0.4883
 7081TIP3   OH242657   4.388   5.954  15.821 -0.4870 -0.4839 -0.7296
 7081TIP3    H142658   4.411   5.870  15.780  0.1121 -1.3268  1.2159
 7081TIP3    H242659   4.458   5.969  15.885 -0.7559  1.3651 -0.8334
 7082TIP3   OH242660   4.200   1.122   2.337  1.1448 -0.1314  0.1697
 7082TIP3    H142661   4.226   1.090   2.250 -1.2296  0.6097 -0.8946
 7082TIP3    H242662   4.205   1.045   2.393  0.9275 -1.0729 -1.0479
 7083TIP3   OH242663   1.591   6.618  16.813  0.5626  0.1835 -0.2354
 7083TIP3    H142664   1.650   6.551  16.779 -0.3511 -1.4091  1.1725
 7083TIP3    H242665   1.519   6.621  16.751  0.7201  0.0504 -0.4258
 7084TIP3   OH242666   0.001   6.438  15.883  0.1814 -0.4344  0.1769
 7084TIP3    H142667  -0.010   6.372  15.952  0.2859 -1.4567 -0.7429
 7084TIP3    H242668   0.091   6.428  15.854 -0.0258 -0.4427 -0.4989
 7085TIP3   OH242669   1.704   5.120   3.620  0.4393  0.0834 -0.2764
 7085TIP3    H142670   1.631   5.074   3.579  0.4811 -0.2411  0.0156
 7085TIP3    H242671   1.771   5.122   3.552  0.3578 -0.0952 -0.3624
 7086TIP3   OH242672   1.801   0.661   3.677  0.5070  0.0044 -0.5849
 7086TIP3    H142673   1.716   0.695   3.651  0.1874 -0.0369  0.3782
 7086TIP3    H242674   1.847   0.645   3.594 -0.2022  0.5656 -1.0952
 7087TIP3   OH242675   3.490   4.940   3.120  0.5114  0.0145 -0.1124
 7087TIP3    H142676   3.479   5.023   3.166  1.4460  0.0099  0.1222
 7087TIP3    H242677   3.537   4.963   3.040  0.3106 -0.2150 -0.2990
 7088TIP3   OH242678   6.245   4.453  11.443  0.3666  0.2883  0.5362
 7088TIP3    H142679   6.271   4.534  11.400 -0.5906  0.3126 -0.0227
 7088TIP3    H242680   6.160   4.431  11.404  0.1259 -0.4225  1.4246
 7089TIP3   OH242681   0.333   4.056  13.171  0.0177  0.3161 -0.0708
 7089TIP3    H142682   0.382   4.131  13.207  0.9148 -0.5250  0.5089
 7089TIP3    H242683   0.242   4.073  13.196  0.4196  0.4656  1.3923
 7090TIP3   OH242684   6.333   5.771   2.322  1.2527  0.2450 -0.1541
 7090TIP3    H142685   6.242   5.746   2.308  1.4931 -1.0387  0.4703
 7090TIP3    H242686   6.344   5.851   2.270 -0.2134  0.4152 -0.2476
 7091TIP3   OH242687   0.109   0.858   4.690 -0.3762 -0.3227  0.4886
 7091TIP3    H142688   0.015   0.877   4.679 -0.4327  0.3195  1.7859
 7091TIP3    H242689   0.153   0.921   4.633 -0.7402 -0.6436 -0.1465
 7092TIP3   OH242690   3.416   4.328   4.991  0.1870  0.3188  0.1021
 7092TIP3    H142691   3.401   4.234   4.977  0.3971  0.2670  0.2250
 7092TIP3    H242692   3.370   4.370   4.918 -1.3432  0.2272  0.9620
 7093TIP3   OH242693   2.524   2.672  12.942 -0.1246 -0.3742 -0.6927
 7093TIP3    H142694   2.506   2.606  12.876 -0.9673  0.2762 -1.1277
 7093TIP3    H242695   2.440   2.686  12.986 -0.2088  1.1150 -1.2760
 7094TIP3   OH242696   4.626   3.272   2.209  0.4010 -0.5413  0.0437
 7094TIP3    H142697   4.603   3.218   2.134  1.9293  0.1984 -1.0037
 7094TIP3    H242698   4.679   3.215   2.264 -0.7760 -1.1051  0.6246
 7095TIP3   OH242699   1.057   6.470  15.470  0.2619  0.2471  0.1689
 7095TIP3    H142700   1.029   6.383  15.498 -0.3241  0.0410 -0.9541
 7095TIP3    H242701   1.022   6.530  15.536  1.3786 -0.4171  1.3975
 7096TIP3   OH242702   0.273   3.519   3.148 -0.2349 -0.2038 -0.2872
 7096TIP3    H142703   0.315   3.605   3.150  0.4118 -0.5014 -0.6118
 7096TIP3    H242704   0.306   3.478   3.068 -0.0085 -0.9956  0.1952
 7097TIP3   OH242705   0.867   2.586   3.090 -0.4663 -0.3833  0.1431
 7097TIP3    H142706   0.854   2.495   3.062 -1.0154 -0.5692  0.9809
 7097TIP3    H242707   0.940   2.583   3.151 -1.9964 -0.6629  2.0450
 7098TIP3   OH242708   0.925   4.156  11.135 -0.2485  0.1481  0.6587
 7098TIP3    H142709   0.890   4.088  11.078 -0.5846  0.3152  0.6619
 7098TIP3    H242710   1.020   4.140  11.136 -0.2402  0.1405  0.0662
 7099TIP3   OH242711   6.624   5.151   6.835 -0.1174 -0.1600 -0.2135
 7099TIP3    H142712   6.612   5.055   6.835  0.3615 -0.3316  2.9202
 7099TIP3    H242713   6.718   5.163   6.833 -0.1862  0.2823 -0.9358
 7100TIP3   OH242714   0.068   0.293  15.820 -0.1833 -0.6567 -0.2954
 7100TIP3    H142715   0.088   0.288  15.726  0.6711 -0.6984 -0.1235
 7100TIP3    H242716  -0.022   0.325  15.824  0.4368  1.3844 -1.1190
 7101TIP3   OH242717   2.244   3.442   2.254 -0.2282 -0.6354  0.3936
 7101TIP3    H142718   2.244   3.464   2.347 -2.8071 -1.8663  0.7758
 7101TIP3    H242719   2.184   3.367   2.247  0.1174 -0.7712 -2.2290
 7102TIP3   OH242720   5.955   6.618  10.903  0.1014  0.2058 -0.6099
 7102TIP3    H142721   6.015   6.597  10.831 -0.4747  3.1054 -2.0841
 7102TIP3    H242722   5.869   6.625  10.862 -0.6464 -0.2798  0.8118
 7103TIP3   OH242723   6.752   0.496  17.053 -0.1604  0.3488 -0.1307
 7103TIP3    H142724   6.776   0.576  17.099  1.1769  0.1170 -0.3813
 7103TIP3    H242725   6.660   0.508  17.029 -0.0097  1.7486 -0.0641
 7104TIP3   OH242726   5.823   4.129   5.132 -0.0992  0.4152  0.1546
 7104TIP3    H142727   5.771   4.088   5.063 -0.5086  1.0341  0.0913
 7104TIP3    H242728   5.790   4.218   5.138 -1.2329 -0.0956  2.3016
 7105TIP3   OH242729   0.379   2.982   2.743 -0.5828 -0.2986 -0.4205
 7105TIP3    H142730   0.411   2.893   2.729  0.8028  0.0998  0.0405
 7105TIP3    H242731   0.400   3.029   2.663 -0.4077 -0.1452 -0.2865
 7106TIP3   OH242732   5.050   5.631   2.837  0.6846 -0.1891  0.8825
 7106TIP3    H142733   5.005   5.550   2.810  0.5415 -0.0937  0.8353
 7106TIP3    H242734   5.043   5.631   2.933  0.2841 -0.0038  0.8579
 7107TIP3   OH242735   1.328   5.437  13.107 -0.2220  0.0401  0.0205
 7107TIP3    H142736   1.235   5.459  13.105 -0.5116 -1.1500 -1.7520
 7107TIP3    H242737   1.337   5.376  13.180 -0.9835 -0.4353 -0.2765
 7108TIP3   OH242738   0.275   2.531  11.122  0.2844 -0.5337 -0.0969
 7108TIP3    H142739   0.266   2.458  11.060 -1.4920  0.7954 -1.5127
 7108TIP3    H242740   0.187   2.546  11.155  0.7253  0.5792  0.6375
 7109TIP3   OH242741   6.419   0.294  11.603  0.4279  0.0403 -0.4424
 7109TIP3    H142742   6.357   0.223  11.622 -0.1627  0.7834  0.5371
 7109TIP3    H242743   6.363   0.368  11.579  0.8706  0.8853  0.9839
 7110TIP3   OH242744   2.066   4.893   3.006 -0.0399 -0.2291  0.0722
 7110TIP3    H142745   2.012   4.960   2.965 -1.7555 -0.2417  2.1031
 7110TIP3    H242746   2.048   4.903   3.100 -0.8767 -3.8664  0.4393
 7111TIP3   OH242747   2.175   5.428   1.013  0.2380  0.3389 -0.2299
 7111TIP3    H142748   2.226   5.347   1.014  0.9921  0.7785  2.1791
 7111TIP3    H242749   2.175   5.455   0.921 -0.1254 -2.4015 -1.1281
 7112TIP3   OH242750   6.131   6.484  16.974 -1.0268 -0.0445  0.2017
 7112TIP3    H142751   6.098   6.560  17.022 -2.6196 -0.4748 -0.1486
 7112TIP3    H242752   6.063   6.466  16.909  0.4647 -0.2829 -1.3612
 7113TIP3   OH242753   3.561   4.851   1.634 -0.6678  0.7627  0.3242
 7113TIP3    H142754   3.536   4.853   1.727  0.6929  0.3912  0.7360
 7113TIP3    H242755   3.542   4.761   1.607 -1.3029  0.9437  0.1749
 7114TIP3   OH242756   4.980   2.863  14.162  0.0019 -0.2581  0.4654
 7114TIP3    H142757   4.973   2.904  14.248 -0.1505  1.4731 -0.3195
 7114TIP3    H242758   5.061   2.897  14.126  0.5141 -1.6641  0.2457
 7115TIP3   OH242759   0.949   1.508   3.232 -0.6068  0.3148 -0.2817
 7115TIP3    H142760   0.854   1.511   3.220 -0.6220 -0.8570 -0.5539
 7115TIP3    H242761   0.962   1.445   3.302 -0.1591  2.5003  1.7576
 7116TIP3   OH242762   1.423   4.791   1.744 -0.5905  0.2917 -0.5403
 7116TIP3    H142763   1.363   4.760   1.812  1.1734 -0.9596  0.5281
 7116TIP3    H242764   1.475   4.714   1.721  0.4351  1.2745 -1.6217
 7117TIP3   OH242765   0.538   3.979   3.272  0.3702 -0.0313 -0.0515
 7117TIP3    H142766   0.619   4.029   3.268  0.2700  0.0754 -0.8430
 7117TIP3    H242767   0.516   3.960   3.181  0.6584 -1.9561  0.2485
 7118TIP3   OH242768   4.080   3.521  14.670  1.1847  0.4373  0.1428
 7118TIP3    H142769   4.129   3.569  14.603  0.1303  0.3047 -0.7595
 7118TIP3    H242770   4.084   3.430  14.641 -0.3856  0.5417 -0.4925
 7119TIP3   OH242771   1.667   2.015  12.335  0.4874  0.1368 -0.2447
 7119TIP3    H142772   1.615   2.019  12.255 -1.2516 -0.8609  0.7807
 7119TIP3    H242773   1.653   2.099  12.378  1.3151  0.6198 -0.8840
 7120TIP3   OH242774   1.737   5.822   3.627 -0.3739 -0.4492 -0.1129
 7120TIP3    H142775   1.824   5.837   3.590  0.2198  1.2412  1.8138
 7120TIP3    H242776   1.724   5.893   3.689 -2.2171 -1.9092  1.3117
 7121TIP3   OH242777   4.113   5.844   4.545 -0.3938  0.7237 -0.4340
 7121TIP3    H142778   4.176   5.909   4.514 -1.6308  2.0961 -0.1735
 7121TIP3    H242779   4.067   5.887   4.617  0.5975 -1.4327  1.6244
 7122TIP3   OH242780   6.030   6.119   3.884  0.3205  0.6629 -0.0314
 7122TIP3    H142781   5.972   6.192   3.903  0.7294  1.0815 -0.3631
 7122TIP3    H242782   5.976   6.058   3.834  0.2427  1.1801 -0.5914
 7123TIP3   OH242783   3.185   0.974  13.087  0.6085  0.1682 -0.2611
 7123TIP3    H142784   3.209   0.941  13.173  0.1973  0.2559 -0.1088
 7123TIP3    H242785   3.262   1.022  13.056  0.7018  0.2623  0.1220
 7124TIP3   OH242786   6.473   4.272   5.104 -0.0305 -0.2366  0.3968
 7124TIP3    H142787   6.502   4.184   5.128 -0.2806 -0.4541 -0.0838
 7124TIP3    H242788   6.497   4.326   5.179 -2.9177 -1.2771  2.2097
 7125TIP3   OH242789   0.374   6.641   0.568  0.7721  0.7955 -0.4099
 7125TIP3    H142790   0.348   6.636   0.476 -1.5817 -0.8173  0.2534
 7125TIP3    H242791   0.312   6.703   0.607  0.2898 -0.2352  0.4996
 7126TIP3   OH242792   2.171   2.622   5.580  0.5286 -0.5449 -0.6657
 7126TIP3    H142793   2.143   2.606   5.490 -1.1640 -0.1016 -0.2528
 7126TIP3    H242794   2.152   2.540   5.626  0.1002 -0.3046 -0.4153
 7127TIP3   OH242795   5.002   2.747  11.278  0.6277 -0.0685  0.6428
 7127TIP3    H142796   4.925   2.709  11.319  0.5696  1.7968  2.4569
 7127TIP3    H242797   4.971   2.778  11.192 -1.5245  3.1014  2.3540
 7128TIP3   OH242798   1.455   2.000  16.071  0.5442 -0.2241  0.0601
 7128TIP3    H142799   1.480   1.972  15.983  0.7668  0.2147 -0.0203
 7128TIP3    H242800   1.396   2.074  16.056 -2.5801 -2.4977  0.1680
 7129TIP3   OH242801   5.016   5.475  17.162 -0.6428 -0.0074 -0.5368
 7129TIP3    H142802   5.008   5.463  17.068 -0.2136  0.4320 -0.6293
 7129TIP3    H242803   5.100   5.435  17.184 -0.1679  0.9896 -0.5307
 7130TIP3   OH242804   3.480   4.749  13.379 -0.1241  0.1976  0.5473
 7130TIP3    H142805   3.448   4.698  13.305 -0.9806  1.4691  0.0091
 7130TIP3    H242806   3.461   4.695  13.455 -1.2129 -0.2053  0.0162
 7131TIP3   OH242807   3.535   0.583  11.766 -0.2593  0.0134  0.2123
 7131TIP3    H142808   3.457   0.528  11.773 -0.8930  0.9570  0.7784
 7131TIP3    H242809   3.556   0.583  11.673  0.0349 -1.5442  0.2513
 7132TIP3   OH242810   0.366   6.427  16.826  0.0742  0.3140  0.1027
 7132TIP3    H142811   0.452   6.442  16.787  0.3317 -0.4129  0.3661
 7132TIP3    H242812   0.385   6.400  16.916 -0.2930 -2.1464 -0.4918
 7133TIP3   OH242813   5.338   4.823  16.877  0.3502  0.9397 -0.2941
 7133TIP3    H142814   5.337   4.736  16.917  0.1548  1.0418 -0.0795
 7133TIP3    H242815   5.299   4.880  16.942 -2.1718  0.7339 -1.5099
 7134TIP3   OH242816   3.871   5.048   2.001 -0.2200  0.5476 -0.0330
 7134TIP3    H142817   3.950   5.076   2.046  2.4729  0.5112 -4.1920
 7134TIP3    H242818   3.819   5.004   2.068  3.7671 -0.3919  2.7838
 7135TIP3   OH242819   5.218   5.666  13.673  0.1107  0.3637  0.1590
 7135TIP3    H142820   5.262   5.606  13.614  0.3194  0.9212 -0.2628
 7135TIP3    H242821   5.258   5.650  13.758  1.4549  1.1573 -0.2953
 7136TIP3   OH242822   2.295   1.692  11.906  0.0744 -0.1204  0.1905
 7136TIP3    H142823   2.226   1.710  11.969  0.5171  0.1954  0.5946
 7136TIP3    H242824   2.249   1.678  11.823 -0.4374  0.7134  0.3250
 7137TIP3   OH242825   3.806   4.748  13.575  0.0895  0.0334 -0.4679
 7137TIP3    H142826   3.733   4.687  13.577  0.6230 -0.6632 -1.2225
 7137TIP3    H242827   3.865   4.711  13.508  1.1655  0.5173  0.1970
 7138TIP3   OH242828   6.381   5.391  11.173  0.3436  0.5338 -0.5208
 7138TIP3    H142829   6.314   5.373  11.240  0.6711  2.8510  0.5067
 7138TIP3    H242830   6.335   5.441  11.106  0.7402  0.9618 -0.4757
 7139TIP3   OH242831   1.774   2.001  13.707 -0.4012 -0.1838  0.3043
 7139TIP3    H142832   1.708   1.979  13.773 -0.0543  2.4196  1.6450
 7139TIP3    H242833   1.758   2.093  13.687  1.1824 -0.2030 -1.3244
 7140TIP3   OH242834   3.851   4.745  15.100  0.2947  0.2231  0.2145
 7140TIP3    H142835   3.910   4.754  15.025  1.1501 -0.3753  0.7942
 7140TIP3    H242836   3.909   4.748  15.176 -0.2814 -1.5205  0.7557
 7141TIP3   OH242837   2.304   0.209  16.776  0.4690 -0.9486 -0.1447
 7141TIP3    H142838   2.255   0.262  16.713 -1.1209 -1.4933  0.5820
 7141TIP3    H242839   2.239   0.182  16.841  1.9610 -0.7826  1.5051
 7142TIP3   OH242840   4.406   1.159  13.218  0.5615  0.0920  0.3849
 7142TIP3    H142841   4.466   1.224  13.254  2.4582 -1.0955 -0.4684
 7142TIP3    H242842   4.458   1.112  13.153 -0.8514 -2.0081  0.6793
 7143TIP3   OH242843   2.230   1.981  17.019 -0.1223 -0.5557  0.5603
 7143TIP3    H142844   2.158   1.926  16.989 -0.7179 -0.0034  0.9517
 7143TIP3    H242845   2.232   2.053  16.956  0.3087 -0.7383  0.3597
 7144TIP3   OH242846   6.783   6.134  15.681 -0.5281 -0.2576 -0.8975
 7144TIP3    H142847   6.854   6.084  15.640 -0.7675  0.5827 -2.4415
 7144TIP3    H242848   6.779   6.215  15.630 -3.1483 -0.6348 -1.4321
 7145TIP3   OH242849   3.227   0.048   2.261 -0.7821 -0.2079 -0.3914
 7145TIP3    H142850   3.220   0.121   2.199  0.4753 -0.8077 -1.2737
 7145TIP3    H242851   3.216   0.089   2.347 -1.5175  0.7995 -0.9353
 7146TIP3   OH242852   3.334   5.588   4.403  0.1535 -0.6324 -0.3736
 7146TIP3    H142853   3.253   5.539   4.390  0.4500 -0.9842 -0.9467
 7146TIP3    H242854   3.333   5.655   4.335  0.0872 -0.2866 -0.0360
 7147TIP3   OH242855   0.209   4.930  14.377 -0.0979 -0.4748 -0.1025
 7147TIP3    H142856   0.239   4.941  14.287  0.1563  2.1889  0.2206
 7147TIP3    H242857   0.289   4.930  14.429 -0.2707 -1.4616  0.1761
 7148TIP3   OH242858   0.441   1.637  15.201 -0.3206 -0.0923 -0.2712
 7148TIP3    H142859   0.518   1.616  15.148  0.4066 -0.1436  0.7864
 7148TIP3    H242860   0.405   1.551  15.226 -1.8946 -0.1341 -2.3376
 7149TIP3   OH242861   3.725   4.501  12.115 -0.2450  0.1733 -0.3605
 7149TIP3    H142862   3.780   4.446  12.171 -1.1042  0.3938  0.7457
 7149TIP3    H242863   3.636   4.466  12.126 -0.6371  1.0873 -0.5018
 7150TIP3   OH242864   3.560   1.075   5.268  0.3024 -0.2972 -0.2378
 7150TIP3    H142865   3.593   1.073   5.358 -0.2735 -0.2895 -0.0248
 7150TIP3    H242866   3.500   1.150   5.266  0.6737 -0.0103 -0.7567
 7151TIP3   OH242867   1.505   4.905   0.831  0.0662  0.0355  0.0236
 7151TIP3    H142868   1.428   4.938   0.876 -0.1829  0.1217 -0.4669
 7151TIP3    H242869   1.564   4.980   0.824 -0.3683  0.3058 -0.8086
 7152TIP3   OH242870   0.198   0.554   6.485  0.8368  0.2451 -0.5101
 7152TIP3    H142871   0.213   0.464   6.458  2.0689  0.4114 -0.4251
 7152TIP3    H242872   0.134   0.587   6.421  0.2175 -0.7254 -0.4178
 7153TIP3   OH242873   6.440   1.247  14.466  0.1078 -0.3470  0.4726
 7153TIP3    H142874   6.474   1.258  14.377  0.9593  0.5311  0.8854
 7153TIP3    H242875   6.515   1.217  14.517 -0.1057  0.1667  1.0997
 7154TIP3   OH242876   3.137   5.415  14.574 -0.5747 -0.0553 -0.3402
 7154TIP3    H142877   3.214   5.432  14.520  0.5541 -2.2648  0.4475
 7154TIP3    H242878   3.138   5.485  14.640  0.6785  0.0300 -0.4357
 7155TIP3   OH242879   3.311   4.784  16.107 -0.3097 -0.1492 -0.8471
 7155TIP3    H142880   3.245   4.777  16.177  0.0483  1.2091 -0.3440
 7155TIP3    H242881   3.381   4.726  16.134 -0.3159  0.1246 -0.2177
 7156TIP3   OH242882   4.725   5.727  11.220  0.2773  0.1210  0.3668
 7156TIP3    H142883   4.766   5.814  11.218  0.7855 -0.1099  0.6390
 7156TIP3    H242884   4.636   5.742  11.190  0.8230  0.4912 -1.1790
 7157TIP3   OH242885   5.340   2.353  10.730  0.1114  0.0713 -0.3668
 7157TIP3    H142886   5.417   2.347  10.787 -1.2411  0.7698  1.6443
 7157TIP3    H242887   5.341   2.442  10.697  0.3630 -0.0427 -0.6776
 7158TIP3   OH242888   2.657   2.514  15.970  0.3005  0.0189 -0.3961
 7158TIP3    H142889   2.563   2.499  15.953  0.0795  1.8720 -1.0067
 7158TIP3    H242890   2.699   2.498  15.885  0.2909  0.9643 -0.5859
 7159TIP3   OH242891   5.761   2.224   1.928  0.6564 -0.5392 -0.6488
 7159TIP3    H142892   5.854   2.221   1.903  0.7684 -0.6683 -0.2265
 7159TIP3    H242893   5.755   2.165   2.003  0.3171 -0.2059 -0.4118
 7160TIP3   OH242894   5.535   5.726  10.101 -0.2318 -0.3029  0.0624
 7160TIP3    H142895   5.517   5.697  10.190  0.0685 -0.6839  0.0008
 7160TIP3    H242896   5.620   5.770  10.106  0.8636 -2.2515 -0.4237
 7161TIP3   OH242897   1.947   2.775  11.776 -0.0694 -0.0611  0.2124
 7161TIP3    H142898   1.895   2.696  11.761  1.7189 -1.1572 -0.5140
 7161TIP3    H242899   1.883   2.842  11.800 -1.7811 -1.3854 -0.4903
 7162TIP3   OH242900   5.279   0.354   0.329  0.1243  0.3084  0.2325
 7162TIP3    H142901   5.338   0.383   0.399  0.3649  3.6894 -1.1567
 7162TIP3    H242902   5.191   0.373   0.363  0.2886  3.6739 -0.8453
 7163TIP3   OH242903   3.880   2.947   4.101 -0.0727  0.8331 -0.4568
 7163TIP3    H142904   3.850   3.009   4.167 -3.9063 -0.2964 -0.9058
 7163TIP3    H242905   3.853   2.987   4.018  0.9115  0.2931 -1.0508
 7164TIP3   OH242906   6.450   0.780  12.563  0.0244 -0.1790 -0.9698
 7164TIP3    H142907   6.520   0.715  12.558  0.1303 -0.1935  0.2602
 7164TIP3    H242908   6.477   0.839  12.633 -0.4971  0.6836 -1.4763
 7165TIP3   OH242909   3.185   4.102  14.656 -0.7359  0.9556  0.1177
 7165TIP3    H142910   3.152   4.157  14.585  0.7705 -0.0666 -1.4392
 7165TIP3    H242911   3.218   4.023  14.613  1.6139  0.9282  1.7813
 7166TIP3   OH242912   6.185   3.403  13.834 -0.1020  0.2081 -0.3577
 7166TIP3    H142913   6.125   3.345  13.788 -1.0832  0.6277  0.3491
 7166TIP3    H242914   6.189   3.367  13.923  1.3789 -0.3075 -0.6066
 7167TIP3   OH242915   2.522   0.720   5.917  0.5451 -0.7976  0.0170
 7167TIP3    H142916   2.587   0.692   5.853  2.6510  0.2488  1.5620
 7167TIP3    H242917   2.539   0.667   5.994  0.3881  0.3204  0.8500
 7168TIP3   OH242918   0.345   4.711  11.944  0.6423  0.2421  0.3973
 7168TIP3    H142919   0.396   4.762  11.882 -1.0191  1.4994  0.0035
 7168TIP3    H242920   0.372   4.620  11.929  3.9997  0.9052  1.4173
 7169TIP3   OH242921   6.032   0.023   2.743 -0.4424  0.0294 -0.0080
 7169TIP3    H142922   5.941   0.026   2.716 -0.2316  0.4745 -0.6709
 7169TIP3    H242923   6.079  -0.012   2.668  0.1094  1.0301 -0.1522
 7170TIP3   OH242924   1.781   0.414   2.486 -0.1569  0.0749 -0.7289
 7170TIP3    H142925   1.754   0.480   2.422 -1.2008  1.2710  0.8831
 7170TIP3    H242926   1.876   0.409   2.477  0.3235  3.7195  0.7912
 7171TIP3   OH242927   5.569   2.327  17.183  0.3370  0.2684 -0.1457
 7171TIP3    H142928   5.627   2.279  17.124  0.7643  0.1270  0.3737
 7171TIP3    H242929   5.482   2.318  17.144  0.7849  1.2958 -1.4575
 7172TIP3   OH242930   2.702   0.762  16.059  0.2929 -0.0325 -0.0326
 7172TIP3    H142931   2.737   0.811  16.134 -1.8072  1.6186 -0.0051
 7172TIP3    H242932   2.730   0.812  15.982 -0.3778  0.2250 -0.1171
 7173TIP3   OH242933   6.130   5.366  11.342 -0.2054  0.1439 -0.1600
 7173TIP3    H142934   6.067   5.430  11.374  2.0790  2.2805  0.4151
 7173TIP3    H242935   6.166   5.325  11.421 -0.9100 -1.1184 -0.4800
 7174TIP3   OH242936   1.994   0.558  16.536  0.6863 -0.2115  0.8303
 7174TIP3    H142937   1.965   0.497  16.468 -0.7156 -2.1108  2.9657
 7174TIP3    H242938   1.961   0.643  16.509  0.3133 -0.8673 -0.9136
 7175TIP3   OH242939   4.707   6.453  11.951  0.0476 -0.2583  0.2816
 7175TIP3    H142940   4.620   6.419  11.970 -0.1249 -0.0259 -0.0792
 7175TIP3    H242941   4.748   6.385  11.897  0.4996 -0.8714  1.3691
 7176TIP3   OH242942   1.661   0.008  15.638  0.2788  0.0819 -0.5413
 7176TIP3    H142943   1.604  -0.067  15.625 -0.4810  0.5880 -0.2031
 7176TIP3    H242944   1.739  -0.011  15.585 -0.4529 -0.3454 -1.4946
 7177TIP3   OH242945   5.517   4.544   4.517 -0.6687 -0.6276 -0.5763
 7177TIP3    H142946   5.470   4.466   4.487 -0.0942 -0.5228 -1.8419
 7177TIP3    H242947   5.584   4.510   4.576 -0.7979 -1.0256 -0.6518
 7178TIP3   OH242948   5.904   6.437   1.070 -0.2966 -0.2411 -0.3728
 7178TIP3    H142949   5.809   6.430   1.058 -0.2300  0.0593 -1.1605
 7178TIP3    H242950   5.925   6.373   1.138 -1.2847  0.8277  0.9883
 7179TIP3   OH242951   3.174   3.935  11.390 -0.1102 -0.0945  0.3293
 7179TIP3    H142952   3.237   3.964  11.324  0.4109  0.7269  1.1571
 7179TIP3    H242953   3.116   4.010  11.403 -0.6641 -0.5090  0.2760
 7180TIP3   OH242954   2.808   2.652   2.530 -0.6528 -0.0376  0.0492
 7180TIP3    H142955   2.843   2.563   2.524 -0.8631 -0.2984  1.8871
 7180TIP3    H242956   2.713   2.639   2.527 -0.7789 -0.1719  2.4036
 7181TIP3   OH242957   1.328   1.111   4.735 -0.1708  0.4072 -1.4374
 7181TIP3    H142958   1.370   1.187   4.696 -0.9209  0.4666 -2.1503
 7181TIP3    H242959   1.387   1.038   4.716  0.2858  0.7146 -1.2197
 7182TIP3   OH242960   0.128   4.712   1.563 -0.2564 -1.0512 -0.6170
 7182TIP3    H142961   0.055   4.774   1.558  0.3803  0.2290  2.9444
 7182TIP3    H242962   0.087   4.629   1.588 -0.5789 -0.0809  2.5216
 7183TIP3   OH242963   5.536   2.492  11.218  0.5649 -0.3163  0.3600
 7183TIP3    H142964   5.459   2.440  11.244 -1.3715  2.7325  1.2473
 7183TIP3    H242965   5.594   2.489  11.294  1.1495 -2.1782 -0.1038
 7184TIP3   OH242966   6.788   3.723  14.443 -0.0624  0.6150 -0.2306
 7184TIP3    H142967   6.793   3.786  14.371 -0.1487  1.2131  0.2784
 7184TIP3    H242968   6.867   3.738  14.494 -0.7826  1.3193  0.7060
 7185TIP3   OH242969   1.629   2.420  12.914  0.0589  0.3335  0.1858
 7185TIP3    H142970   1.588   2.347  12.868  1.1872 -0.2751  0.1158
 7185TIP3    H242971   1.683   2.462  12.847 -0.7546  1.3843  0.1652
 7186TIP3   OH242972   1.907   6.318   6.677 -0.0860  0.1028 -0.4258
 7186TIP3    H142973   1.921   6.353   6.589  1.9604  0.6611  0.0719
 7186TIP3    H242974   1.906   6.396   6.734  0.4139 -0.3622  0.2334
 7187TIP3   OH242975   3.799   3.842  12.905 -0.5711 -0.1525  0.3459
 7187TIP3    H142976   3.798   3.829  12.811 -1.4594  1.0531  0.1573
 7187TIP3    H242977   3.887   3.816  12.933 -0.2047 -0.2447 -0.8514
 7188TIP3   OH242978   4.289   6.694  14.607  0.2513 -0.1242  0.2709
 7188TIP3    H142979   4.245   6.723  14.687 -1.5453  0.8683 -1.0174
 7188TIP3    H242980   4.331   6.773  14.573 -0.1261 -0.2321 -0.4548
 7189TIP3   OH242981   3.390   4.836  11.641  0.4378 -0.2673 -0.3808
 7189TIP3    H142982   3.368   4.875  11.557  0.8375  1.2028  0.1627
 7189TIP3    H242983   3.427   4.908  11.692 -0.1015 -1.0513  1.1772
 7190TIP3   OH242984   4.855   3.744   3.974 -0.0015  0.0076 -0.2761
 7190TIP3    H142985   4.893   3.685   4.040 -0.7682 -1.1417 -0.8376
 7190TIP3    H242986   4.836   3.825   4.022  3.3085  0.7581  0.0042
 7191TIP3   OH242987   0.651   4.058  14.279 -0.7504  0.0234  0.5507
 7191TIP3    H142988   0.677   4.087  14.192  0.5703 -0.8637  0.6396
 7191TIP3    H242989   0.733   4.037  14.324 -1.4526 -0.2464  1.7620
 7192TIP3   OH242990   0.352   0.122  16.226  0.3225 -0.1304  0.9548
 7192TIP3    H142991   0.276   0.115  16.283 -0.5763 -1.9809 -0.3699
 7192TIP3    H242992   0.333   0.197  16.170 -0.2566 -0.2236  1.0218
 7193TIP3   OH242993   5.723   0.016   2.590 -0.5480 -0.5495 -0.1641
 7193TIP3    H142994   5.736   0.049   2.501 -1.8575  1.7393  0.4152
 7193TIP3    H242995   5.645  -0.040   2.584 -1.4574  0.6950 -0.2423
 7194TIP3   OH242996   1.924   3.523   1.241  0.5466 -0.8074  0.2790
 7194TIP3    H142997   1.851   3.473   1.204 -0.6139 -0.4801  1.9912
 7194TIP3    H242998   1.933   3.489   1.331  0.6429  1.0874  1.0307
 7195TIP3   OH242999   2.569   1.483   1.303  0.3320  0.1188  0.2753
 7195TIP3    H143000   2.641   1.545   1.291 -0.5244  0.8414 -1.4489
 7195TIP3    H243001   2.555   1.446   1.216 -2.2848  1.0351  0.2107
 7196TIP3   OH243002   4.086   2.258  17.015 -0.6046  0.6128 -0.6732
 7196TIP3    H143003   4.134   2.265  17.097 -1.0970  0.1626 -0.3407
 7196TIP3    H243004   4.143   2.301  16.951 -0.1369  0.8163 -0.1363
 7197TIP3   OH243005   4.906   1.545   4.140  0.0753 -0.4157  0.2131
 7197TIP3    H143006   4.872   1.481   4.202  0.7719 -0.9383  0.0630
 7197TIP3    H243007   4.896   1.504   4.054  0.7212 -0.4208  0.1347
 7198TIP3   OH243008   5.468   6.487   2.244  0.6362  0.1404 -0.4243
 7198TIP3    H143009   5.486   6.447   2.159  0.7557 -0.8575  0.0508
 7198TIP3    H243010   5.518   6.434   2.306  0.3919  0.7309  0.2919
 7199TIP3   OH243011   2.279   0.477   4.171 -0.1926 -0.3853  0.2728
 7199TIP3    H143012   2.371   0.449   4.175  0.7304  2.2757 -0.1465
 7199TIP3    H243013   2.236   0.428   4.240  1.4851 -1.9311  0.2943
 7200TIP3   OH243014   1.601   6.003   4.140 -0.4117 -0.1328  0.2495
 7200TIP3    H143015   1.535   6.069   4.117 -0.9033 -0.4448  0.7273
 7200TIP3    H243016   1.601   5.943   4.065  1.2833  1.3187 -0.9854
 7201TIP3   OH243017   4.568   3.990   2.245 -0.5806 -0.1792 -0.8284
 7201TIP3    H143018   4.634   4.042   2.291 -1.0325  0.2561 -0.6507
 7201TIP3    H243019   4.573   4.020   2.154  1.8115 -2.5805 -1.5800
 7202TIP3   OH243020   2.638   1.735   4.595 -0.2778  0.4000 -0.6061
 7202TIP3    H143021   2.699   1.663   4.604  0.8930  1.3792 -0.4739
 7202TIP3    H243022   2.621   1.764   4.685  0.1235  0.9846 -0.7143
 7203TIP3   OH243023   5.026   4.352   4.896 -0.2310 -0.8203  0.2039
 7203TIP3    H143024   5.077   4.431   4.915 -0.6902 -0.7156  1.0314
 7203TIP3    H243025   4.946   4.362   4.947 -0.2307 -1.8915  0.4296
 7204TIP3   OH243026   0.704   5.811   4.508  0.3573 -0.2418  0.2926
 7204TIP3    H143027   0.625   5.860   4.533  0.8039  0.9025 -0.4837
 7204TIP3    H243028   0.714   5.745   4.578 -0.6280  0.3393  1.0091
 7205TIP3   OH243029   0.119   2.263  11.962 -0.1461  0.0334 -0.0592
 7205TIP3    H143030   0.177   2.301  12.027 -1.4989 -0.5201  1.5365
 7205TIP3    H243031   0.161   2.282  11.878 -0.5724  4.8119  0.5653
 7206TIP3   OH243032   6.045   0.480  11.865 -0.5966 -0.0462 -0.2492
 7206TIP3    H143033   5.975   0.478  11.931 -0.6285  0.0672 -0.2796
 7206TIP3    H243034   6.065   0.573  11.854 -0.0334 -0.1105  0.1909
 7207TIP3   OH243035   1.483   4.007  12.585 -0.2750 -0.4459  0.1084
 7207TIP3    H143036   1.459   3.942  12.651  0.3855  0.6506  1.4806
 7207TIP3    H243037   1.427   3.987  12.510 -0.9676 -1.8032  0.9513
 7208TIP3   OH243038   3.565   5.463   1.799  0.2106  0.1749 -0.4338
 7208TIP3    H143039   3.487   5.424   1.759  0.4447 -0.9589  0.1988
 7208TIP3    H243040   3.589   5.534   1.739 -2.0000  1.3403 -0.0335
 7209TIP3   OH243041   5.811   4.498   0.358 -0.1973 -0.2731 -0.0751
 7209TIP3    H143042   5.880   4.436   0.380 -0.7127 -0.9117 -0.2164
 7209TIP3    H243043   5.735   4.468   0.409 -0.1740  0.8603  0.6667
 7210TIP3   OH243044   5.839   5.136  12.831 -0.0394 -0.2207 -0.4671
 7210TIP3    H143045   5.899   5.119  12.759 -1.0503 -0.4297 -1.2932
 7210TIP3    H243046   5.895   5.166  12.903  1.4342 -3.3325 -0.1572
 7211TIP3   OH243047   5.609   1.930  16.808  0.0072  0.1479  0.6198
 7211TIP3    H143048   5.682   1.876  16.779 -1.1173 -0.9911 -0.1934
 7211TIP3    H243049   5.588   1.986  16.733 -0.5152 -0.1632  0.5267
 7212TIP3   OH243050   6.418   1.741  12.537  0.8317 -0.2104  0.0822
 7212TIP3    H143051   6.432   1.834  12.555  1.4026 -0.0775 -0.9517
 7212TIP3    H243052   6.334   1.738  12.491  0.2261 -0.3517  1.1777
 7213TIP3   OH243053   5.249   4.929   4.838  0.1180  0.1607 -0.4866
 7213TIP3    H143054   5.273   5.019   4.812  0.0839  0.2806 -0.1051
 7213TIP3    H243055   5.244   4.932   4.933 -1.9662  0.2949 -0.5614
 7214TIP3   OH243056   3.700   1.993   3.531 -0.0873 -0.0086 -0.4283
 7214TIP3    H143057   3.776   1.971   3.477  0.8030  0.5011  0.6049
 7214TIP3    H243058   3.699   1.925   3.599  1.3736  1.7589  1.4662
 7215TIP3   OH243059   4.280   1.138   4.206  0.4761  0.0747 -0.3141
 7215TIP3    H143060   4.302   1.168   4.118  0.3443 -0.9127 -0.6945
 7215TIP3    H243061   4.219   1.203   4.240 -0.3553 -0.1403 -1.3820
 7216TIP3   OH243062   2.914   3.576  15.061  0.2982 -0.2361  0.2287
 7216TIP3    H143063   2.971   3.586  14.985  0.8166  0.9450  0.7423
 7216TIP3    H243064   2.946   3.498  15.105 -1.5518 -2.4462 -2.0170
 7217TIP3   OH243065   5.983   1.927   5.889  0.2625 -0.1896  0.0753
 7217TIP3    H143066   6.024   1.851   5.929 -1.0750 -1.2112 -0.4072
 7217TIP3    H243067   5.927   1.963   5.958  1.5403  0.9155  0.5805
 7218TIP3   OH243068   4.600   1.000   1.107 -0.6390 -0.0168  0.0649
 7218TIP3    H143069   4.633   0.916   1.074 -2.4345 -0.5525 -0.4442
 7218TIP3    H243070   4.539   0.976   1.177 -1.7135  0.8224 -0.5574
 7219TIP3   OH243071   3.486   6.684  13.579  0.4999 -0.2017 -0.4201
 7219TIP3    H143072   3.474   6.623  13.652 -1.1534  0.6303  0.0479
 7219TIP3    H243073   3.569   6.657  13.539  1.4295 -0.7101  1.7192
 7220TIP3   OH243074   4.187   5.985   4.850 -0.8798  0.2243  0.3363
 7220TIP3    H143075   4.276   6.017   4.861 -0.9094 -0.2746  2.5557
 7220TIP3    H243076   4.134   6.043   4.905 -1.5898 -0.7465  0.7027
 7221TIP3   OH243077   3.484   3.039  13.194  0.1384 -0.3764  0.6718
 7221TIP3    H143078   3.503   3.132  13.202  1.4184 -0.5665  0.1866
 7221TIP3    H243079   3.417   3.033  13.126  0.7113  0.1356  0.0535
 7222TIP3   OH243080   2.269   0.588   0.203 -0.1561 -0.4088  0.1787
 7222TIP3    H143081   2.266   0.517   0.267 -1.6271 -1.5291 -1.0634
 7222TIP3    H243082   2.216   0.557   0.130  0.7870  1.1850 -1.2442
 7223TIP3   OH243083   1.021   1.099  14.355 -0.3099 -0.1016 -0.1293
 7223TIP3    H143084   1.049   1.148  14.278  3.5044 -0.4775  0.7807
 7223TIP3    H243085   0.987   1.166  14.415  2.3689  1.2221  0.0916
 7224TIP3   OH243086   6.182   5.316  16.554  0.2784 -0.6660 -0.3889
 7224TIP3    H143087   6.238   5.391  16.538  0.0505 -0.2632  0.6683
 7224TIP3    H243088   6.234   5.241  16.524  1.3313 -0.2916  0.4576
 7225TIP3   OH243089   5.386   0.632   1.661  0.3485  0.1487 -0.2297
 7225TIP3    H143090   5.446   0.691   1.707 -0.5439  0.5663  0.4300
 7225TIP3    H243091   5.430   0.547   1.662 -0.2824 -0.2564  2.8166
 7226TIP3   OH243092   0.991   0.542   4.686  0.2463  0.3608  0.5412
 7226TIP3    H143093   1.019   0.586   4.766  1.8649 -1.3861  1.0181
 7226TIP3    H243094   0.914   0.491   4.712  0.5591  0.0703  0.9139
 7227TIP3   OH243095   1.861   2.607   1.218 -0.4953  0.2239  0.6601
 7227TIP3    H143096   1.853   2.669   1.146 -0.4825 -1.1351 -0.5646
 7227TIP3    H243097   1.786   2.548   1.207  0.4425 -1.0333  0.7095
 7228TIP3   OH243098   2.698   3.152   1.482 -0.2271 -0.7526  0.4206
 7228TIP3    H143099   2.605   3.169   1.497 -1.0201 -1.5806 -2.8656
 7228TIP3    H243100   2.742   3.231   1.514 -1.9398 -0.5363  2.4859
 7229TIP3   OH243101   5.854   6.124   0.933  0.0494  0.4207  0.7391
 7229TIP3    H143102   5.771   6.108   0.889  0.6274 -1.0250  0.1141
 7229TIP3    H243103   5.858   6.220   0.942 -2.0768  0.4786  1.6236
 7230TIP3   OH243104   3.339   6.416  14.376  0.6836  0.5523 -0.3649
 7230TIP3    H143105   3.354   6.414  14.281  0.7561 -0.3733 -0.3423
 7230TIP3    H243106   3.247   6.442  14.385  0.5141  0.0953 -0.7159
 7231TIP3   OH243107   1.980   3.100  14.783 -0.5711  0.3231  0.1091
 7231TIP3    H143108   1.903   3.045  14.773 -0.3034 -0.1580  0.6246
 7231TIP3    H243109   2.013   3.113  14.694 -1.2183  0.4928 -0.1039
 7232TIP3   OH243110   3.070   0.489   5.658  0.0697  0.0101  0.3412
 7232TIP3    H143111   3.118   0.459   5.581  0.3434 -1.4926  1.0512
 7232TIP3    H243112   3.090   0.582   5.664 -0.7524  0.4144 -1.9424
 7233TIP3   OH243113   2.354   6.074   4.886 -0.0065 -0.1900 -0.1405
 7233TIP3    H143114   2.426   6.094   4.946 -0.8442 -0.3397  0.9498
 7233TIP3    H243115   2.287   6.139   4.907 -0.1826 -0.0408 -1.1535
 7234TIP3   OH243116   0.365   5.324   5.286 -0.3605 -0.0693  0.0646
 7234TIP3    H143117   0.441   5.294   5.336 -2.1811 -0.7517  2.6275
 7234TIP3    H243118   0.332   5.245   5.243 -0.9585 -0.3206  0.9375
 7235TIP3   OH243119   5.325   2.039   1.815 -0.0505 -0.2188  0.5135
 7235TIP3    H143120   5.274   1.958   1.821  1.8968 -1.4890  1.0189
 7235TIP3    H243121   5.416   2.010   1.819  0.7490  2.1698  3.3417
 7236TIP3   OH243122   2.897   5.179   1.890 -0.3232  0.4622 -0.3248
 7236TIP3    H143123   2.864   5.240   1.824  1.2436  1.8465  0.1180
 7236TIP3    H243124   2.875   5.092   1.855 -3.1605  1.2114 -0.6754
 7237TIP3   OH243125   3.783   6.027   5.241 -0.2704 -0.2858 -0.2780
 7237TIP3    H143126   3.741   5.974   5.173  1.0927  0.0498 -1.4174
 7237TIP3    H243127   3.741   5.998   5.322 -1.6439 -0.9985 -1.1962
 7238TIP3   OH243128   6.024   3.639   1.757  0.4267  0.5214  0.4260
 7238TIP3    H143129   6.052   3.673   1.672  1.8322  2.2849  1.5183
 7238TIP3    H243130   5.934   3.667   1.767  1.0493  2.6271  0.5792
 7239TIP3   OH243131   4.434   0.241  15.936 -0.5293  0.6555 -0.3980
 7239TIP3    H143132   4.441   0.160  15.886  0.9549  0.2585  0.4151
 7239TIP3    H243133   4.432   0.310  15.869  0.4466  0.0767 -1.0460
 7240TIP3   OH243134   0.960   0.094  11.260 -0.4431  0.4903  0.2749
 7240TIP3    H143135   0.948   0.003  11.232  1.9241 -0.0749  0.9185
 7240TIP3    H243136   0.894   0.143  11.210 -2.6081 -1.6762  0.7930
 7241TIP3   OH243137   6.385   1.008   4.416 -0.1549  0.3970 -0.4367
 7241TIP3    H143138   6.395   1.102   4.430 -0.8080  0.6441 -1.5421
 7241TIP3    H243139   6.469   0.980   4.380 -0.0043  0.5780 -0.2290
 7242TIP3   OH243140   6.111   1.691  14.326  0.4835  0.6935  0.1234
 7242TIP3    H143141   6.101   1.602  14.292 -0.1354 -0.2649  2.5905
 7242TIP3    H243142   6.170   1.682  14.401  0.5384  2.4001  0.3336
 7243TIP3   OH243143   6.002   3.797  16.210  0.4839 -0.1707  0.4796
 7243TIP3    H143144   6.024   3.869  16.269  1.7910  0.9013 -1.2271
 7243TIP3    H243145   6.086   3.773  16.170 -0.3827 -0.7875 -1.0317
 7244TIP3   OH243146   2.878   2.697   4.568  0.0999 -0.0243  0.7264
 7244TIP3    H143147   2.855   2.611   4.602  0.7244 -0.0544  1.0792
 7244TIP3    H243148   2.933   2.736   4.636  1.0577  0.0582 -0.0661
 7245TIP3   OH243149   3.809   4.455   1.793 -0.3677 -0.7240  0.4552
 7245TIP3    H143150   3.802   4.493   1.881 -1.6177  0.3783 -0.0915
 7245TIP3    H243151   3.759   4.373   1.799 -1.7374  0.0840  0.3995
 7246TIP3   OH243152   4.794   5.904  10.206 -0.0447  0.3912 -0.0728
 7246TIP3    H143153   4.825   5.874  10.291 -1.7838  1.6045  1.0732
 7246TIP3    H243154   4.870   5.945  10.165  1.2211 -1.5943  0.1808
 7247TIP3   OH243155   0.700   4.570   6.569 -0.1181 -0.1059  0.1036
 7247TIP3    H143156   0.728   4.635   6.504 -1.2631  1.7714  1.3668
 7247TIP3    H243157   0.605   4.563   6.556 -0.2683 -0.1595  1.1382
 7248TIP3   OH243158   6.380   5.645   5.506  0.5384  0.5754  0.1035
 7248TIP3    H143159   6.355   5.703   5.434 -0.6518 -1.4355 -1.2123
 7248TIP3    H243160   6.440   5.582   5.466  0.4691 -0.1105  1.0497
 7249TIP3   OH243161   2.475   0.291  15.602  0.3104 -0.0483 -0.0155
 7249TIP3    H143162   2.432   0.223  15.550  1.7415 -1.2297  0.2620
 7249TIP3    H243163   2.469   0.259  15.692 -0.7758  1.2199  0.3988
 7250TIP3   OH243164   5.517   0.841  15.219 -0.6025  0.0604  0.1964
 7250TIP3    H143165   5.537   0.789  15.141  2.1446  0.2540  0.6638
 7250TIP3    H243166   5.507   0.777  15.289 -3.4020 -0.1377 -0.2708
 7251TIP3   OH243167   3.590   3.259  11.982 -0.3263  0.0013 -0.0819
 7251TIP3    H143168   3.624   3.271  11.893  0.7590  0.8312  0.4138
 7251TIP3    H243169   3.502   3.224  11.970  0.3424 -1.2900 -1.4488
 7252TIP3   OH243170   6.266   3.526  12.308 -0.3714 -0.1619 -0.1530
 7252TIP3    H143171   6.210   3.449  12.309 -0.9263  0.2426  1.3212
 7252TIP3    H243172   6.309   3.526  12.393 -0.2391  1.0618 -0.2055
 7253TIP3   OH243173   0.320   5.471  16.167  0.2083 -0.3386  0.3390
 7253TIP3    H143174   0.237   5.518  16.165  1.8286  2.8781  1.3694
 7253TIP3    H243175   0.336   5.444  16.077 -1.2387  0.2949 -0.1192
 7254TIP3   OH243176   1.860   1.733  12.597  0.3814  0.5592 -0.3420
 7254TIP3    H143177   1.838   1.779  12.678  0.5543 -0.8055  0.5221
 7254TIP3    H243178   1.837   1.642  12.615  0.4211  0.2268 -1.8436
 7255TIP3   OH243179   4.251   6.430  16.947 -0.1964  0.1931 -0.0649
 7255TIP3    H143180   4.249   6.341  16.980 -0.7477 -0.7518 -2.3843
 7255TIP3    H243181   4.159   6.451  16.932 -0.1627  1.6063  1.4549
 7256TIP3   OH243182   4.593   1.833  15.053  0.0493 -0.1749  0.0101
 7256TIP3    H143183   4.510   1.878  15.041  0.6451  1.3014  1.1542
 7256TIP3    H243184   4.570   1.741  15.062 -1.2704 -0.0436 -1.6442
 7257TIP3   OH243185   6.375   5.040   6.271  0.1216  0.2132  0.2691
 7257TIP3    H143186   6.414   4.958   6.298 -0.9567 -0.9761 -1.5792
 7257TIP3    H243187   6.330   5.073   6.350  0.2062 -1.1857  0.9222
 7258TIP3   OH243188   0.397   0.729   2.913  0.1459  0.1787  0.2171
 7258TIP3    H143189   0.441   0.651   2.878 -1.0329 -1.7838  2.7666
 7258TIP3    H243190   0.306   0.720   2.883 -0.4965 -0.6741  2.2413
 7259TIP3   OH243191   3.791   6.205  13.033 -0.1158 -0.1636  0.0717
 7259TIP3    H143192   3.763   6.115  13.050 -2.2980  0.2495 -0.8831
 7259TIP3    H243193   3.842   6.200  12.952 -0.1318 -0.5797  0.0886
 7260TIP3   OH243194   0.674   4.366  16.429 -0.0546 -0.2667  0.5858
 7260TIP3    H143195   0.601   4.375  16.368  0.9951 -0.9454 -0.8030
 7260TIP3    H243196   0.664   4.440  16.489 -1.4411  0.0818 -0.0430
 7261TIP3   OH243197   6.035   1.860  13.323  0.7752  0.6125  0.2550
 7261TIP3    H143198   5.990   1.816  13.395 -1.4882  0.3793 -1.2153
 7261TIP3    H243199   6.061   1.789  13.264 -1.5822  0.9990 -1.3985
 7262TIP3   OH243200   5.242   6.237   4.484 -0.1886  0.0918 -0.2372
 7262TIP3    H143201   5.292   6.163   4.449 -1.3855  0.5412 -3.1317
 7262TIP3    H243202   5.292   6.265   4.561  0.6860 -3.2173  0.5718
 7263TIP3   OH243203   5.548   6.381   0.481  0.6968 -0.1941  0.1114
 7263TIP3    H143204   5.612   6.445   0.453 -0.9313  0.7716 -1.6252
 7263TIP3    H243205   5.533   6.326   0.404 -1.2472  0.2246  0.1332
 7264TIP3   OH243206   5.823   0.762  10.508 -0.2737 -0.9702  0.0084
 7264TIP3    H143207   5.911   0.726  10.497 -0.1562 -0.4173 -0.9805
 7264TIP3    H243208   5.766   0.700  10.462 -0.1260 -0.1644 -1.2895
 7265TIP3   OH243209   2.033   1.402  13.176  0.2028  0.5037  0.1995
 7265TIP3    H143210   2.044   1.415  13.082  2.0277  0.9817  0.4490
 7265TIP3    H243211   2.106   1.448  13.216 -1.2628  1.4136  1.9629
 7266TIP3   OH243212   0.425   3.040  13.368  0.4218  0.1261  0.4337
 7266TIP3    H143213   0.422   3.010  13.277  1.8844 -0.0400  0.4148
 7266TIP3    H243214   0.444   3.134  13.361 -0.4615  0.3225  0.5617
 7267TIP3   OH243215   0.949   0.519  16.324  0.4440 -1.0621  0.4313
 7267TIP3    H143216   0.895   0.515  16.403  0.6235 -0.0226  0.6140
 7267TIP3    H243217   0.898   0.572  16.263  0.2546 -1.9564 -0.2034
 7268TIP3   OH243218   4.796   6.716   1.494 -0.3548  0.1064  0.3436
 7268TIP3    H143219   4.708   6.679   1.504 -0.1161 -0.8597 -0.8685
 7268TIP3    H243220   4.833   6.712   1.582 -1.5852  0.7187  0.9111
 7269TIP3   OH243221   1.506   3.057   0.447  0.5806  0.7595  0.6519
 7269TIP3    H143222   1.523   2.963   0.448 -1.1667  0.3495 -1.4074
 7269TIP3    H243223   1.511   3.081   0.355 -0.3692  2.4039  0.9946
 7270TIP3   OH243224   6.323   6.119   2.987 -0.1416  0.5130  0.2876
 7270TIP3    H143225   6.262   6.097   2.917 -1.4954 -2.0094  2.1114
 7270TIP3    H243226   6.268   6.141   3.062  1.1332 -0.6711  1.6471
 7271TIP3   OH243227   5.723   1.467   4.853 -0.5185 -0.1290 -0.2898
 7271TIP3    H143228   5.709   1.414   4.774  2.1466 -1.9635  0.2946
 7271TIP3    H243229   5.783   1.414   4.906  0.1812  2.3688  1.6047
 7272TIP3   OH243230   4.540   1.758   5.120 -0.0605 -0.5200 -0.5447
 7272TIP3    H143231   4.529   1.779   5.027 -0.0313 -0.7030 -0.5896
 7272TIP3    H243232   4.451   1.764   5.156 -0.2302 -1.3794 -0.7823
 7273TIP3   OH243233   5.411   0.404  12.172  0.0638  0.1156  0.6445
 7273TIP3    H143234   5.443   0.344  12.104  0.2126  1.3547 -0.4285
 7273TIP3    H243235   5.442   0.366  12.254  0.7915 -0.8698 -0.0549
 7274TIP3   OH243236   2.909   0.529  15.425 -0.3063 -0.1355 -0.6089
 7274TIP3    H143237   2.973   0.485  15.369 -1.3646 -0.7061 -1.4150
 7274TIP3    H243238   2.960   0.565  15.497  0.8216 -1.1566 -0.8753
 7275TIP3   OH243239   4.214   1.715  16.788 -0.5551  0.7035 -0.1513
 7275TIP3    H143240   4.131   1.759  16.770 -1.3539 -0.6701 -0.0506
 7275TIP3    H243241   4.227   1.657  16.712 -0.8104 -0.6552  0.8009
 7276TIP3   OH243242   4.588   2.114   2.254 -0.0892 -0.2711 -0.0166
 7276TIP3    H143243   4.580   2.149   2.165  2.5737 -0.0557 -0.2491
 7276TIP3    H243244   4.600   2.020   2.242  2.4897 -0.0059 -0.1439
 7277TIP3   OH243245   3.773   1.698   1.138 -0.2037  0.3154  0.0864
 7277TIP3    H143246   3.821   1.729   1.062  0.5446  1.1688  0.8826
 7277TIP3    H243247   3.681   1.721   1.120 -0.1165  0.0370 -0.7650
 7278TIP3   OH243248   4.001   0.343  14.089  0.1604 -0.0338 -0.6600
 7278TIP3    H143249   3.922   0.359  14.038  0.3821  0.5161 -0.8426
 7278TIP3    H243250   4.009   0.419  14.147  1.8442  1.1926 -2.3442
 7279TIP3   OH243251   1.780   0.848  11.659  0.0318 -0.4500  0.0440
 7279TIP3    H143252   1.728   0.806  11.591 -1.5408  1.0981  0.2170
 7279TIP3    H243253   1.838   0.908  11.612  0.4727 -0.9406 -0.0455
 7280TIP3   OH243254   6.584   5.111   0.160  0.4189 -0.2410  0.2030
 7280TIP3    H143255   6.545   5.177   0.217  1.9700  0.5498  0.3970
 7280TIP3    H243256   6.658   5.155   0.119  1.7093 -1.9484  0.5957
 7281TIP3   OH243257   1.184   4.116  12.679 -0.3738  0.0089 -0.3105
 7281TIP3    H143258   1.201   4.176  12.752 -1.0674  0.1800 -0.2755
 7281TIP3    H243259   1.088   4.106  12.679 -0.3160 -0.5840 -0.7259
 7282TIP3   OH243260   4.008   1.617   4.839  0.7328  0.4000  0.3984
 7282TIP3    H143261   4.041   1.606   4.928  0.0418  0.4071  0.6639
 7282TIP3    H243262   4.030   1.535   4.795 -1.2403 -0.7333  1.3417
 7283TIP3   OH243263   3.738   3.179   3.487 -0.1205  0.1793  0.0786
 7283TIP3    H143264   3.789   3.214   3.560  1.2537  0.6933 -1.0901
 7283TIP3    H243265   3.647   3.192   3.513  0.3457  1.4014  1.1922
 7284TIP3   OH243266   6.228   4.048   1.768 -0.1231 -0.0800  0.2065
 7284TIP3    H143267   6.171   4.094   1.705  0.0856  0.2386  0.2479
 7284TIP3    H243268   6.196   4.077   1.854 -0.7478 -0.9190  0.2684
 7285TIP3   OH243269   2.856   3.649  10.683 -0.4394  0.1178  0.3064
 7285TIP3    H143270   2.909   3.631  10.606 -1.8158  0.5639 -0.7951
 7285TIP3    H243271   2.791   3.714  10.653 -0.9507  0.3744  1.8595
 7286TIP3   OH243272   0.355   6.318   4.341  0.2206 -0.7731  0.6087
 7286TIP3    H143273   0.446   6.287   4.343  0.7997  0.7349  3.7430
 7286TIP3    H243274   0.309   6.262   4.404 -0.4521 -0.0165  0.8059
 7287TIP3   OH243275   4.228   3.590   5.415 -0.1539  0.5849 -0.2071
 7287TIP3    H143276   4.241   3.502   5.451 -1.1493  0.6195  0.2752
 7287TIP3    H243277   4.270   3.648   5.479 -0.2790  0.5226 -0.0688
 7288TIP3   OH243278   2.352   2.514   3.047  0.7317  0.2621  0.5518
 7288TIP3    H143279   2.323   2.445   2.988  1.9344  0.9389 -0.8961
 7288TIP3    H243280   2.392   2.467   3.121 -0.2609 -0.5875  0.5730
 7289TIP3   OH243281   4.875   4.976  11.537 -0.5400  0.3812  0.3731
 7289TIP3    H143282   4.785   4.997  11.514 -0.1773  0.1514 -1.3942
 7289TIP3    H243283   4.907   5.054  11.583 -1.3973  0.7770  0.3155
 7290TIP3   OH243284   1.018   6.768   6.557 -0.0698  0.6680  0.3799
 7290TIP3    H143285   1.032   6.750   6.464  2.3010  0.0021  0.7995
 7290TIP3    H243286   0.995   6.684   6.594 -0.6051  0.8516  0.4621
 7291TIP3   OH243287   3.733   4.813   4.636  0.7204 -0.6640  0.7744
 7291TIP3    H143288   3.826   4.818   4.658  0.7605  0.4918  0.4291
 7291TIP3    H243289   3.700   4.901   4.655 -0.1770 -0.9055  0.3490
 7292TIP3   OH243290   1.636   2.788  12.430 -0.4100 -0.0914 -0.0294
 7292TIP3    H143291   1.724   2.752  12.425 -0.5863 -0.3426 -1.7095
 7292TIP3    H243292   1.582   2.716  12.462 -0.2287 -0.3576 -0.3168
 7293TIP3   OH243293   4.855   3.867   1.307  0.8769  0.4094 -0.3352
 7293TIP3    H143294   4.870   3.961   1.314 -1.7511  0.7544  2.4490
 7293TIP3    H243295   4.775   3.851   1.357  0.2377 -3.1002 -2.1368
 7294TIP3   OH243296   6.042   4.407  14.684 -0.1861 -0.3546  0.5645
 7294TIP3    H143297   6.103   4.473  14.649  0.4702 -0.6856  1.0487
 7294TIP3    H243298   5.968   4.458  14.716 -0.8363 -0.0427 -1.3210
 7295TIP3   OH243299   3.497   2.039   5.409  0.4226  0.0826 -0.4372
 7295TIP3    H143300   3.410   2.046   5.369  0.5472 -0.5040 -0.8156
 7295TIP3    H243301   3.558   2.055   5.337  0.6375  0.8196 -0.1081
 7296TIP3   OH243302   2.136   1.284  11.597  0.1051 -0.1739 -0.3162
 7296TIP3    H143303   2.210   1.238  11.637 -0.3123 -0.4647  0.1175
 7296TIP3    H243304   2.173   1.322  11.517  0.3772 -1.5497 -0.8765
 7297TIP3   OH243305   0.159   6.278   5.335 -0.1875 -0.3705 -0.4508
 7297TIP3    H143306   0.249   6.270   5.304  0.0212  1.0165 -0.2480
 7297TIP3    H243307   0.113   6.205   5.293  1.0233 -1.1149 -0.5352
 7298TIP3   OH243308   1.072   5.748  11.600  0.2070  0.6419  0.2207
 7298TIP3    H143309   1.153   5.770  11.647  0.6807  0.4564 -0.5004
 7298TIP3    H243310   1.039   5.670  11.645  0.3411  0.8118  0.6187
 7299TIP3   OH243311   2.326   0.771   4.847 -0.2842 -0.8124  0.0270
 7299TIP3    H143312   2.253   0.762   4.785  1.5785  0.4318 -2.5514
 7299TIP3    H243313   2.291   0.825   4.918 -1.4213  1.4385 -2.0863
 7300TIP3   OH243314   5.363   5.533   3.738 -0.0665  0.3693  0.1855
 7300TIP3    H143315   5.444   5.488   3.714  0.1154  1.3408 -1.1974
 7300TIP3    H243316   5.390   5.624   3.750 -0.8894  0.6386  0.0329
 7301TIP3   OH243317   1.860   6.362  11.557  0.5410  0.4429 -0.1259
 7301TIP3    H143318   1.829   6.413  11.632  1.1927  0.9760 -0.2115
 7301TIP3    H243319   1.787   6.365  11.494 -0.9239 -1.8181  1.2785
 7302TIP3   OH243320   1.962   6.060   6.402  0.3202 -0.0828  0.3107
 7302TIP3    H143321   1.947   6.036   6.493 -2.6585 -1.4678 -0.4229
 7302TIP3    H243322   1.898   6.009   6.353  1.4786  0.9991 -2.5416
 7303TIP3   OH243323   1.821   4.764  14.859 -0.0044 -0.0909  0.3458
 7303TIP3    H143324   1.745   4.729  14.813 -0.2979 -1.9034  2.1084
 7303TIP3    H243325   1.788   4.843  14.902  0.0152  1.0342 -1.5847
 7304TIP3   OH243326   0.363   5.379   6.317  0.3886  0.3092 -0.2476
 7304TIP3    H143327   0.402   5.466   6.315  1.1293  0.1847  3.0632
 7304TIP3    H243328   0.273   5.393   6.348 -0.0450  0.0018 -1.3147
 7305TIP3   OH243329   4.203   3.266   0.521  0.0731  0.4609 -0.6877
 7305TIP3    H143330   4.230   3.229   0.605 -2.0595  2.0653  0.8183
 7305TIP3    H243331   4.118   3.224   0.504 -0.0123  0.9474 -1.4857
 7306TIP3   OH243332   5.436   2.290  16.119  0.6544  0.3238  0.1688
 7306TIP3    H143333   5.404   2.221  16.061 -2.9401  3.0246 -1.4461
 7306TIP3    H243334   5.531   2.290  16.106  0.2649 -0.6402 -4.1846
 7307TIP3   OH243335   0.429   1.882   3.547 -0.2281  0.4754  0.0139
 7307TIP3    H143336   0.437   1.966   3.504 -0.4861  0.3473 -0.2867
 7307TIP3    H243337   0.341   1.852   3.526 -0.0492  0.0144 -0.0976
 7308TIP3   OH243338   0.832   5.365   6.121 -0.1846  0.0290  0.3054
 7308TIP3    H143339   0.840   5.305   6.047 -1.3620  0.0320  0.1619
 7308TIP3    H243340   0.769   5.431   6.091 -0.2183  0.3637  1.1018
 7309TIP3   OH243341   2.626   1.836   1.027 -0.2648 -0.5143 -0.0926
 7309TIP3    H143342   2.561   1.885   0.977  0.8683  0.4477 -0.6692
 7309TIP3    H243343   2.710   1.865   0.992  0.5372 -0.5281  1.7086
 7310TIP3   OH243344   0.647   0.701   1.563  0.1016 -0.0864 -0.6358
 7310TIP3    H143345   0.723   0.666   1.517  0.4510 -0.6639  0.3660
 7310TIP3    H243346   0.681   0.730   1.648 -0.9858 -1.4389  0.3023
 7311TIP3   OH243347   5.037   3.318  14.779  0.4199  0.3360 -0.1490
 7311TIP3    H143348   5.129   3.292  14.779  0.0912 -0.8600 -0.0660
 7311TIP3    H243349   5.004   3.291  14.864  0.2696  1.8633  0.3129
 7312TIP3   OH243350   2.256   6.710   0.206 -0.2853  0.0538  0.5384
 7312TIP3    H143351   2.269   6.803   0.188  2.7863 -0.3917 -0.0249
 7312TIP3    H243352   2.290   6.698   0.295  0.2708 -0.6846  0.2347
 7313TIP3   OH243353   5.474   5.677  13.817 -0.5899  0.0632  0.1130
 7313TIP3    H143354   5.483   5.683  13.722  0.0704  1.4431  0.2412
 7313TIP3    H243355   5.452   5.585  13.833  1.1262 -0.6396 -1.2237
 7314TIP3   OH243356   1.969   4.995   0.656  0.5996  0.1523  0.6453
 7314TIP3    H143357   1.947   4.920   0.601 -3.4138  1.4367  0.2264
 7314TIP3    H243358   2.001   5.061   0.596 -0.1358  0.2629  0.3704
 7315TIP3   OH243359   3.449   0.189  13.289 -0.0909  0.0367  0.6759
 7315TIP3    H143360   3.544   0.196  13.290 -0.0668 -0.3439  1.6867
 7315TIP3    H243361   3.423   0.188  13.381 -0.9794 -1.1106  0.4392
 7316TIP3   OH243362   0.057   5.552  14.365  0.7193 -0.0924 -0.0951
 7316TIP3    H143363   0.010   5.526  14.285  0.3433 -1.5482  0.5654
 7316TIP3    H243364   0.150   5.541  14.343  0.8147  2.3359 -1.2475
 7317TIP3   OH243365   0.170   4.022   1.539 -0.1279  0.2960  0.4323
 7317TIP3    H143366   0.159   4.108   1.580  0.2216  1.5849 -2.0061
 7317TIP3    H243367   0.252   3.988   1.576 -1.5195 -0.2358  3.3401
 7318TIP3   OH243368   5.628   0.091  10.845  0.2019  0.1382 -0.5188
 7318TIP3    H143369   5.652   0.005  10.811  1.3045  0.0528  0.4165
 7318TIP3    H243370   5.705   0.145  10.831 -0.3119  0.8558 -0.6597
 7319TIP3   OH243371   4.430   5.442   4.854 -0.4529 -0.1598  0.0137
 7319TIP3    H143372   4.425   5.353   4.819 -1.1969 -0.2601  0.3551
 7319TIP3    H243373   4.406   5.498   4.781 -0.7101 -0.2899 -0.0033
 7320TIP3   OH243374   6.381   5.347  13.073  0.2912 -1.0065  0.5959
 7320TIP3    H143375   6.470   5.323  13.047 -0.4022 -2.1190 -0.9429
 7320TIP3    H243376   6.345   5.392  12.996 -0.0072  0.8149  1.7405
 7321TIP3   OH243377   1.602   5.746   0.036  0.1488  0.0944 -0.1515
 7321TIP3    H143378   1.555   5.742   0.119 -0.6331 -0.5509 -0.6124
 7321TIP3    H243379   1.588   5.660  -0.004  1.8851 -0.1972 -0.2225
 7322TIP3   OH243380   2.449   4.272   5.356 -0.3160  0.0857  0.4474
 7322TIP3    H143381   2.389   4.197   5.358  0.3611 -0.5809 -1.6434
 7322TIP3    H243382   2.393   4.347   5.338 -0.7206 -0.2909  0.1025
 7323TIP3   OH243383   2.886   6.128   2.746  0.4708  0.1029 -0.0307
 7323TIP3    H143384   2.899   6.204   2.689 -0.2346  0.1746 -0.1132
 7323TIP3    H243385   2.871   6.055   2.685  3.2778 -0.5923 -0.0324
 7324TIP3   OH243386   0.095   1.646  13.300  0.1863  0.1287 -0.1230
 7324TIP3    H143387   0.072   1.699  13.376  1.1511 -1.6070  1.4647
 7324TIP3    H243388   0.012   1.612  13.267 -0.4071  2.1875 -0.9218
 7325TIP3   OH243389   1.286   0.064   4.535  0.0477  0.2723  0.6885
 7325TIP3    H143390   1.297   0.105   4.621  1.1661  0.1464  0.6175
 7325TIP3    H243391   1.372   0.029   4.514 -0.1264  0.5918 -0.6494
 7326TIP3   OH243392   0.796   6.081  16.498 -0.1885  0.1440  0.3445
 7326TIP3    H143393   0.763   6.087  16.408 -1.8432 -0.1345  0.8956
 7326TIP3    H243394   0.755   6.001  16.533  2.5281 -1.2611  0.5513
 7327TIP3   OH243395   3.955   1.245  15.932 -0.2203  0.4052  0.0516
 7327TIP3    H143396   3.989   1.251  16.022  0.6136  2.2644 -0.3591
 7327TIP3    H243397   3.995   1.166  15.897 -1.5367 -1.0864  1.6670
 7328TIP3   OH243398   2.756   3.017  13.553 -0.5438  0.1151 -0.8345
 7328TIP3    H143399   2.724   2.929  13.532 -0.6678  0.0486 -0.3804
 7328TIP3    H243400   2.677   3.070  13.564 -0.5696 -0.2590  1.1870
 7329TIP3   OH243401   4.133   0.420  11.251 -0.1980  0.0016  0.2327
 7329TIP3    H143402   4.120   0.342  11.196 -0.7630  0.0606  0.2816
 7329TIP3    H243403   4.124   0.493  11.190  1.6306  0.0238 -0.0848
 7330TIP3   OH243404   6.773   6.625  12.079  0.0135  0.4309  0.2691
 7330TIP3    H143405   6.714   6.566  12.031  0.4696  0.5680 -0.4706
 7330TIP3    H243406   6.829   6.566  12.130 -1.7938  0.3141  2.3079
 7331TIP3   OH243407   4.471   1.202   0.351 -0.0141 -0.0059  0.0419
 7331TIP3    H143408   4.466   1.164   0.438  1.2192  1.2484  0.7173
 7331TIP3    H243409   4.542   1.154   0.307 -0.5011 -0.5033 -0.2103
 7332TIP3   OH243410   0.698   2.609  15.231  0.1241 -0.0579 -0.2259
 7332TIP3    H143411   0.789   2.577  15.231  1.1430  2.5605 -0.8259
 7332TIP3    H243412   0.665   2.586  15.145  0.0983 -1.2504  0.0834
 7333TIP3   OH243413   4.329   6.161  12.595 -0.1065  0.3300 -0.0004
 7333TIP3    H143414   4.328   6.094  12.527  1.1330 -0.4974  0.7626
 7333TIP3    H243415   4.237   6.186  12.604 -0.6348 -1.3558 -0.2350
 7334TIP3   OH243416   6.041   0.578  13.954 -0.3611  0.0090  0.0740
 7334TIP3    H143417   6.072   0.640  13.887 -1.1451 -0.3220 -0.6145
 7334TIP3    H243418   6.028   0.496  13.906  0.7886 -0.7443  1.0042
 7335TIP3   OH243419   4.996   0.495  14.624 -0.0074  0.3043 -0.5491
 7335TIP3    H143420   4.923   0.441  14.594 -0.8369  0.2972  1.3661
 7335TIP3    H243421   5.053   0.434  14.671 -0.6019  0.9264  1.0363
 7336TIP3   OH243422   1.397   4.097  14.032  0.6646  0.0405 -0.1242
 7336TIP3    H143423   1.401   4.190  14.008  0.5577  0.2582  0.6875
 7336TIP3    H243424   1.482   4.062  14.005  1.5622  0.8616  1.5171
 7337TIP3   OH243425   5.959   1.014   4.310  0.3662  0.2208 -0.1448
 7337TIP3    H143426   5.923   1.075   4.245  0.5761  2.0941  1.4321
 7337TIP3    H243427   5.888   1.002   4.373  0.1801 -1.5646 -0.6388
 7338TIP3   OH243428   0.134   2.974  16.726 -0.1532  0.0995  0.0063
 7338TIP3    H143429   0.176   3.059  16.741  0.0671  0.1115 -0.6589
 7338TIP3    H243430   0.134   2.964  16.631 -2.7324  0.6466 -0.1325
 7339TIP3   OH243431   5.332   0.175  14.506 -0.0765 -0.6809 -0.0957
 7339TIP3    H143432   5.425   0.189  14.521 -0.0180  0.2592 -1.1578
 7339TIP3    H243433   5.315   0.086  14.538  0.9956 -0.5574  0.8721
 7340TIP3   OH243434   0.448   1.857  11.973 -0.2449 -0.1216 -0.2965
 7340TIP3    H143435   0.447   1.889  12.063 -0.0069  0.6107 -0.5497
 7340TIP3    H243436   0.409   1.770  11.979 -1.5149  0.4497  0.3086
 7341TIP3   OH243437   3.553   0.138   1.733  0.8272  0.1544 -0.7716
 7341TIP3    H143438   3.500   0.217   1.736  0.5644  0.0001 -1.1938
 7341TIP3    H243439   3.553   0.105   1.823  0.6401  0.4392 -0.6676
 7342TIP3   OH243440   4.265   1.212  15.836 -0.2285 -0.4911  0.0611
 7342TIP3    H143441   4.353   1.195  15.870  0.3114  1.0509 -0.4715
 7342TIP3    H243442   4.216   1.132  15.855  1.4264 -1.6035 -0.1147
 7343TIP3   OH243443   3.223   0.277  12.534 -0.0259  0.1334  0.0855
 7343TIP3    H143444   3.165   0.230  12.474 -0.5049  1.1196 -0.2537
 7343TIP3    H243445   3.192   0.254  12.621  1.1014 -1.8514  0.0224
 7344TIP3   OH243446   6.496   3.874   1.273 -0.3976  0.1066  0.4000
 7344TIP3    H143447   6.514   3.782   1.292 -0.5845  0.0838  0.4726
 7344TIP3    H243448   6.402   3.883   1.284 -0.1209  0.8414  2.8457
 7345TIP3   OH243449   1.352   1.810   4.856 -0.6921  0.1033  0.5438
 7345TIP3    H143450   1.273   1.838   4.810 -1.4034 -1.2251  0.8915
 7345TIP3    H243451   1.320   1.776   4.940  0.3700  0.5525  1.1475
 7346TIP3   OH243452   0.648   3.014   1.339 -0.7604 -0.7142  0.4382
 7346TIP3    H143453   0.617   2.934   1.296 -3.1200 -0.4741  1.5647
 7346TIP3    H243454   0.621   3.085   1.281 -0.5325 -0.6057  0.4626
 7347TIP3   OH243455   3.417   6.222  14.562  0.8983 -0.6756  0.5409
 7347TIP3    H143456   3.414   6.270  14.645  0.0309  0.0908  0.0863
 7347TIP3    H243457   3.417   6.290  14.495  0.5455 -1.3063 -0.1083
 7348TIP3   OH243458   2.071   6.270  13.687  0.7667  0.1716 -0.3015
 7348TIP3    H143459   1.987   6.260  13.732  0.4259  1.1977 -0.6713
 7348TIP3    H243460   2.092   6.363  13.696  2.5755 -0.3165  1.0088
 7349TIP3   OH243461   1.271   6.017  11.631  0.4825  0.6359  0.3100
 7349TIP3    H143462   1.349   5.963  11.621  0.1827  0.4717 -1.4386
 7349TIP3    H243463   1.246   6.006  11.723  0.3293 -2.3332 -0.0022
 7350TIP3   OH243464   5.407   4.234   0.689  0.1502  0.1640 -0.3598
 7350TIP3    H143465   5.312   4.230   0.690 -0.0920  3.0673  2.4253
 7350TIP3    H243466   5.434   4.203   0.775  1.6633  0.4810 -0.6823
 7351TIP3   OH243467   2.345   1.667  16.719 -0.5340 -0.5267 -0.0600
 7351TIP3    H143468   2.426   1.665  16.770 -1.1875 -2.1840  0.9934
 7351TIP3    H243469   2.298   1.588  16.746 -3.3463  1.2773  0.7793
 7352TIP3   OH243470   6.378   6.635   1.185 -0.1519 -0.0637  0.1299
 7352TIP3    H143471   6.355   6.683   1.106  1.4093  0.1498 -0.2271
 7352TIP3    H243472   6.445   6.688   1.227  0.1373 -0.9288  0.8004
 7353TIP3   OH243473   1.393   5.360  12.836 -0.0210 -0.3429  0.2019
 7353TIP3    H143474   1.368   5.370  12.928 -2.0798  0.7436 -0.4095
 7353TIP3    H243475   1.414   5.267  12.827  2.4674 -0.1033  2.2140
 7354TIP3   OH243476   2.211   1.585   0.818 -0.1108  0.1037 -0.3057
 7354TIP3    H143477   2.166   1.651   0.765 -2.5630  1.8932  3.4984
 7354TIP3    H243478   2.162   1.505   0.805 -2.2518  1.1247  0.9086
 7355TIP3   OH243479   0.745   2.210   1.746 -0.6964 -0.1345 -1.1555
 7355TIP3    H143480   0.758   2.134   1.804  0.3576  1.4283  0.7777
 7355TIP3    H243481   0.834   2.237   1.723 -0.9276  1.7028 -0.1016
 7356TIP3   OH243482   6.393   5.622   3.138  0.1781 -0.2962  0.1462
 7356TIP3    H143483   6.345   5.635   3.055 -0.8345 -0.5104  0.6804
 7356TIP3    H243484   6.412   5.711   3.168  0.6861 -0.2204 -0.3906
 7357TIP3   OH243485   4.786   1.754  12.661 -0.2111 -0.7913  0.3511
 7357TIP3    H143486   4.742   1.784  12.740 -1.1532 -1.4259  0.0847
 7357TIP3    H243487   4.724   1.694  12.620  0.8314 -1.5600 -0.1492
 7358TIP3   OH243488   2.110   3.505  12.987  0.9489 -1.1085  0.2792
 7358TIP3    H143489   2.075   3.529  13.072 -0.2713 -2.1284  0.0922
 7358TIP3    H243490   2.140   3.414  12.998 -0.0580 -1.5694 -0.5999
 7359TIP3   OH243491   5.569   3.224   6.080 -0.4197 -0.9094  0.2696
 7359TIP3    H143492   5.606   3.309   6.102 -0.5023 -0.7850 -0.0616
 7359TIP3    H243493   5.570   3.221   5.984 -0.8675 -1.0756  0.2645
 7360TIP3   OH243494   1.667   2.616   3.633  0.2818 -0.1726  1.2552
 7360TIP3    H143495   1.712   2.629   3.549 -0.6436 -1.7823  0.4593
 7360TIP3    H243496   1.710   2.540   3.671 -1.7268 -1.8274  0.4238
 7361TIP3   OH243497   1.105   0.122  10.899  0.1498 -0.0487 -0.3761
 7361TIP3    H143498   1.084   0.150  10.989 -0.9470 -0.0609 -0.6149
 7361TIP3    H243499   1.042   0.053  10.881  1.7492 -1.5563 -0.4042
 7362TIP3   OH243500   1.475   1.413  12.643 -0.6412  0.0217  0.1256
 7362TIP3    H143501   1.483   1.377  12.555 -0.5826  0.9458 -0.2631
 7362TIP3    H243502   1.403   1.363  12.683 -0.4521 -0.6254 -0.3245
 7363TIP3   OH243503   1.246   2.632  15.750 -0.0945 -0.3777  0.0968
 7363TIP3    H143504   1.294   2.566  15.701 -0.0584 -1.5194  1.6095
 7363TIP3    H243505   1.188   2.582  15.808  0.5287  0.8653  1.8838
 7364TIP3   OH243506   1.137   5.718   3.733  0.3628 -0.3366 -0.1983
 7364TIP3    H143507   1.056   5.697   3.779 -0.0697  2.9484  0.7516
 7364TIP3    H243508   1.206   5.677   3.785 -0.5015 -1.2739  0.2402
 7365TIP3   OH243509   6.012   1.642   1.867 -1.0816 -0.4054  0.0833
 7365TIP3    H143510   5.923   1.666   1.841 -1.2942 -1.2073  0.0432
 7365TIP3    H243511   6.050   1.602   1.789 -0.5115  0.3612 -0.0469
 7366TIP3   OH243512   6.609   4.111   0.699  0.1069  0.8383 -0.2854
 7366TIP3    H143513   6.524   4.124   0.742 -0.7526 -0.6287 -1.4351
 7366TIP3    H243514   6.617   4.186   0.639  0.0598  1.4636  0.4786
 7367TIP3   OH243515   5.038   1.503   1.765  0.1936 -0.5538  0.0587
 7367TIP3    H143516   5.044   1.571   1.831  1.7832 -1.1174  0.5326
 7367TIP3    H243517   4.965   1.530   1.709 -1.5459 -0.3301  2.3069
 7368TIP3   OH243518   1.583   2.007   1.560 -0.1392  0.3627  0.6340
 7368TIP3    H143519   1.516   1.979   1.498 -0.6444 -0.1010  1.3697
 7368TIP3    H243520   1.636   1.928   1.575 -0.1135  0.4304  0.9066
 7369TIP3   OH243521   3.652   1.352  16.232 -0.1802 -0.3156  0.6191
 7369TIP3    H143522   3.607   1.436  16.243  1.0307  0.4294  0.1460
 7369TIP3    H243523   3.669   1.347  16.138  0.2923 -0.8084  0.7313
 7370TIP3   OH243524   6.500   3.675  15.008  0.2165 -0.2321  0.1442
 7370TIP3    H143525   6.577   3.620  15.015  0.0919 -0.2890  1.4620
 7370TIP3    H243526   6.427   3.619  15.035 -0.1600  0.0721 -0.2180
 7371TIP3   OH243527   2.587   2.980   1.268  0.2381 -0.1118  0.3870
 7371TIP3    H143528   2.523   3.048   1.248  0.8085  0.1536 -0.6195
 7371TIP3    H243529   2.648   3.022   1.330 -1.8470 -1.1081  3.3560
 7372TIP3   OH243530   2.832   6.188   3.699 -0.0155  0.4005 -0.3117
 7372TIP3    H143531   2.912   6.206   3.650  0.6581 -0.4164  0.4619
 7372TIP3    H243532   2.806   6.100   3.672 -1.0629  0.9187 -1.0829
 7373TIP3   OH243533   5.999   3.319  14.487  0.5389 -0.0618 -0.0699
 7373TIP3    H143534   5.985   3.413  14.484  0.7090 -0.0200  0.3364
 7373TIP3    H243535   5.915   3.281  14.462 -0.0842  0.1850  1.5329
 7374TIP3   OH243536   3.842   3.815   1.273  0.2035  0.0463  1.0841
 7374TIP3    H143537   3.905   3.827   1.344 -0.3283  2.4412  1.2278
 7374TIP3    H243538   3.768   3.872   1.297 -0.4405  0.0830 -0.8576
 7375TIP3   OH243539   0.676   1.426   4.616 -0.0497  0.5935 -0.2055
 7375TIP3    H143540   0.598   1.478   4.634  0.5878  1.6925 -0.5228
 7375TIP3    H243541   0.748   1.477   4.653  0.5476 -0.2839 -0.1304
 7376TIP3   OH243542   2.674   2.624   3.873 -0.3658 -0.6357  0.5896
 7376TIP3    H143543   2.748   2.607   3.814  0.5000  0.4316  1.3443
 7376TIP3    H243544   2.636   2.537   3.889 -0.0716 -1.0515 -0.8070
 7377TIP3   OH243545   3.586   2.346  12.272  0.0269 -0.7033  0.2624
 7377TIP3    H143546   3.620   2.328  12.360 -0.6922 -1.4663  0.3990
 7377TIP3    H243547   3.492   2.358  12.284  0.0300 -0.0606 -0.3082
 7378TIP3   OH243548   4.712   2.145  15.769  0.2094  0.1762  0.3171
 7378TIP3    H143549   4.774   2.073  15.780 -0.1621 -0.1810  0.1012
 7378TIP3    H243550   4.626   2.105  15.785  0.0849  0.8359  1.3928
 7379TIP3   OH243551   2.043   1.955   5.402 -0.2227 -0.0056 -0.5207
 7379TIP3    H143552   2.137   1.967   5.416 -0.5454  0.6452  1.5321
 7379TIP3    H243553   2.016   2.032   5.352  0.0001  1.0467  0.8919
 7380TIP3   OH243554   0.709   4.005   4.464 -0.6378 -0.1268 -0.7226
 7380TIP3    H143555   0.677   4.079   4.413 -0.0274 -0.3045 -1.3837
 7380TIP3    H243556   0.635   3.945   4.469 -0.7540 -0.0383 -1.2899
 7381TIP3   OH243557   2.461   0.260  13.205 -0.4184 -0.4190  0.1869
 7381TIP3    H143558   2.472   0.321  13.278  1.0940  0.5844 -0.8172
 7381TIP3    H243559   2.495   0.177  13.238  0.7462  0.1524  0.4802
 7382TIP3   OH243560   0.662   3.044  16.852 -0.0123 -0.2000  0.0580
 7382TIP3    H143561   0.576   3.013  16.879  0.2444 -1.5806 -0.6033
 7382TIP3    H243562   0.711   3.055  16.934 -0.1394 -1.5201  0.3238
 7383TIP3   OH243563   0.541   4.823   2.376  0.2781  0.3036  0.2107
 7383TIP3    H143564   0.536   4.746   2.433  0.9417 -0.9892 -1.3857
 7383TIP3    H243565   0.450   4.845   2.357  0.0705  0.3233  1.2114
 7384TIP3   OH243566   6.235   3.328   6.667  0.4847 -0.4928  0.8502
 7384TIP3    H143567   6.298   3.396   6.692  3.4010 -2.2477 -1.1433
 7384TIP3    H243568   6.288   3.262   6.622 -2.7409 -2.4246 -0.4231
 7385TIP3   OH243569   0.275   5.248   5.641  0.1426  0.0518  0.6568
 7385TIP3    H143570   0.333   5.174   5.654  0.5213  0.5647  2.0125
 7385TIP3    H243571   0.227   5.227   5.561  0.7143 -1.3312  0.6533
 7386TIP3   OH243572   1.595   1.703  14.590 -0.4723 -0.4569 -0.2400
 7386TIP3    H143573   1.654   1.723  14.662  2.4446 -0.6895 -2.3822
 7386TIP3    H243574   1.603   1.609  14.577  3.1592  0.0502 -3.8519
 7387TIP3   OH243575   0.746   4.456  14.818 -0.6364  0.2595  0.2185
 7387TIP3    H143576   0.731   4.443  14.912 -0.6781  1.8150  0.4646
 7387TIP3    H243577   0.800   4.383  14.791  0.2326  0.3293  1.6904
 7388TIP3   OH243578   4.536   1.006  13.575  0.2127  0.1162  0.4171
 7388TIP3    H143579   4.492   0.921  13.579  1.9079 -0.7629  1.2026
 7388TIP3    H243580   4.465   1.070  13.580 -1.2598 -1.2040 -1.7252
 7389TIP3   OH243581   5.843   4.620   6.280 -0.3316 -0.0046  0.5350
 7389TIP3    H143582   5.766   4.563   6.276 -0.5863  0.3673 -0.0180
 7389TIP3    H243583   5.887   4.595   6.361 -1.7772  0.7240  1.5877
 7390TIP3   OH243584   6.639   6.059   1.993 -0.0933 -0.1013  0.8856
 7390TIP3    H143585   6.617   5.975   2.033 -2.5154  0.1449  0.2594
 7390TIP3    H243586   6.557   6.088   1.953  1.4473  1.0674 -1.6783
 7391TIP3   OH243587   0.921   6.359   4.535  0.3474 -0.1133 -0.2359
 7391TIP3    H143588   0.903   6.406   4.616  0.2134  0.4097 -0.5648
 7391TIP3    H243589   0.956   6.274   4.563  0.4747  0.1352  0.3629
 7392TIP3   OH243590   4.441   1.124  14.798  0.7318  0.6172  0.2720
 7392TIP3    H143591   4.484   1.099  14.716  1.3656  1.1402  0.4358
 7392TIP3    H243592   4.350   1.097  14.787  1.2997 -1.4731  0.3211
 7393TIP3   OH243593   6.511   4.286   0.150  0.4145 -0.3038 -0.0345
 7393TIP3    H143594   6.586   4.325   0.194 -0.3945  1.4762 -0.1746
 7393TIP3    H243595   6.494   4.342   0.075 -1.1952 -0.5201  0.1257
 7394TIP3   OH243596   6.569   4.482   1.782  0.2681 -0.8742 -0.2572
 7394TIP3    H143597   6.606   4.569   1.772  0.5574 -0.6505  2.0862
 7394TIP3    H243598   6.476   4.493   1.764  0.5111 -0.4104 -1.3324
 7395TIP3   OH243599   6.048   3.779  11.645 -0.6716 -0.5827  0.4094
 7395TIP3    H143600   6.047   3.692  11.605 -0.6856 -0.4705  0.1682
 7395TIP3    H243601   5.998   3.768  11.726  1.3725 -1.3855  1.6350
 7396TIP3   OH243602   0.903   2.632  16.108 -0.4089 -0.1087 -0.4247
 7396TIP3    H143603   0.880   2.553  16.158 -0.6626 -0.5704 -1.2617
 7396TIP3    H243604   0.978   2.669  16.154  0.1797 -1.2467 -0.4567
 7397TIP3   OH243605   1.234   3.697  14.710  0.0665  0.2126  0.0493
 7397TIP3    H143606   1.283   3.635  14.656  1.3209  0.7499  0.5439
 7397TIP3    H243607   1.286   3.778  14.707 -0.0484  0.3803  1.7089
 7398TIP3   OH243608   3.099   1.245   0.915  0.4021 -0.5312  0.3231
 7398TIP3    H143609   3.161   1.290   0.858 -1.1279  0.2734 -0.7872
 7398TIP3    H243610   3.041   1.197   0.856 -1.7480  0.9925  1.0412
 7399TIP3   OH243611   4.197   2.741  16.266 -0.0471 -0.1920 -0.3896
 7399TIP3    H143612   4.186   2.836  16.272  2.6157  0.3771 -2.4808
 7399TIP3    H243613   4.176   2.721  16.175 -2.7276 -2.0617  0.5263
 7400TIP3   OH243614   4.718   1.622   4.578 -0.1750 -0.8425  0.1565
 7400TIP3    H143615   4.809   1.594   4.593  0.6032 -0.2788 -2.9341
 7400TIP3    H243616   4.725   1.715   4.559 -1.3843 -0.8525 -0.3851
 7401TIP3   OH243617   5.436   4.105   1.708 -0.0917  0.5872  0.1337
 7401TIP3    H143618   5.482   4.170   1.761  1.7019  0.3253 -1.0019
 7401TIP3    H243619   5.356   4.085   1.757  0.3291  2.1064  1.5072
 7402TIP3   OH243620   0.586   3.420   0.544 -0.3569 -0.0935  0.2800
 7402TIP3    H143621   0.521   3.488   0.527  1.0906  1.2273 -0.2681
 7402TIP3    H243622   0.660   3.443   0.486 -0.7369 -3.5816 -1.8604
 7403TIP3   OH243623   1.185   1.586   1.195  0.8092  0.1619  0.1746
 7403TIP3    H143624   1.121   1.564   1.263 -0.4355 -0.7893 -1.2580
 7403TIP3    H243625   1.133   1.624   1.125  1.4901 -2.1904 -1.7479
 7404TIP3   OH243626   5.064   1.832   1.188 -0.0088  0.2609  0.1518
 7404TIP3    H143627   5.015   1.750   1.197 -0.3101  0.4777  0.4994
 7404TIP3    H243628   5.151   1.804   1.157  0.8366 -0.5065  2.8990
 7405TIP3   OH243629   2.027   3.715  15.842  0.0165 -0.4090  0.4672
 7405TIP3    H143630   1.981   3.730  15.925 -0.5840 -1.4708  0.3476
 7405TIP3    H243631   2.007   3.624  15.820  0.9156 -0.4171 -0.3889
 7406TIP3   OH243632   0.997   4.302   5.743  0.1085  0.1504  0.2268
 7406TIP3    H143633   0.966   4.265   5.661 -0.2345  1.5689 -0.3121
 7406TIP3    H243634   1.045   4.381   5.717 -0.1347  0.7005  1.3916
 7407TIP3   OH243635   0.283   0.428   2.718  0.7206 -0.0690  0.2356
 7407TIP3    H143636   0.370   0.429   2.760  0.0174  0.4797  1.7380
 7407TIP3    H243637   0.275   0.514   2.677  0.4910  0.2596  0.9607
 7408TIP3   OH243638   6.391   5.065   4.129 -0.2519  0.3004 -0.2112
 7408TIP3    H143639   6.473   5.034   4.089  0.0584  0.9483 -0.0970
 7408TIP3    H243640   6.388   5.021   4.214  0.4305  0.9191  0.1548
 7409TIP3   OH243641   6.658   1.997   6.158  0.2836  0.1423 -0.1272
 7409TIP3    H143642   6.748   2.010   6.129  0.0785 -0.1590 -0.9497
 7409TIP3    H243643   6.643   1.903   6.152  0.3073  0.0331  1.2657
 7410TIP3   OH243644   3.410   1.886  12.703  0.0407 -0.4710 -0.2763
 7410TIP3    H143645   3.347   1.815  12.689 -0.5118 -0.8066  2.9568
 7410TIP3    H243646   3.357   1.957  12.741  1.3082 -0.1941  1.0715
 7411TIP3   OH243647   5.848   5.453   5.547 -0.7363 -0.6935 -0.1778
 7411TIP3    H143648   5.896   5.531   5.523 -0.8280 -0.8225 -0.7955
 7411TIP3    H243649   5.915   5.389   5.570 -0.5830 -1.0025 -1.4239
 7412TIP3   OH243650   4.221   2.648  11.081 -0.3532 -0.2400 -0.5909
 7412TIP3    H143651   4.220   2.558  11.048 -0.1994 -0.7921  0.8254
 7412TIP3    H243652   4.140   2.655  11.132 -2.2733  1.6301 -3.5773
 7413TIP3   OH243653   6.309   6.129   3.525 -0.1082 -0.3032 -0.1101
 7413TIP3    H143654   6.339   6.218   3.540 -2.4864  0.5076  0.2130
 7413TIP3    H243655   6.322   6.085   3.609 -0.0895  0.1170  0.1082
 7414TIP3   OH243656   2.337   1.987   5.460  0.3610  0.6697 -0.3655
 7414TIP3    H143657   2.388   1.910   5.439  0.0550  0.1562  0.6973
 7414TIP3    H243658   2.353   2.048   5.388  0.7021 -0.3340 -1.1451
 7415TIP3   OH243659   6.464   5.049   3.512 -0.4283  0.1674  0.0094
 7415TIP3    H143660   6.383   5.074   3.467  0.9693  1.9970 -1.6686
 7415TIP3    H243661   6.492   5.128   3.558  1.1018  0.0099 -0.5758
 7416TIP3   OH243662   3.304   2.130   1.159 -0.1254  0.1812  0.2340
 7416TIP3    H143663   3.398   2.118   1.173 -0.1357  1.1954  1.3397
 7416TIP3    H243664   3.263   2.069   1.220 -0.2163 -0.6337 -0.6081
 7417TIP3   OH243665   1.087   4.562   6.053  0.2951 -0.1415 -0.0896
 7417TIP3    H143666   1.158   4.499   6.069  0.5377  0.4188  1.1464
 7417TIP3    H243667   1.117   4.643   6.094 -1.6599 -0.2829  1.7954
 7418TIP3   OH243668   2.528   5.264   6.062  0.1592  0.1250  0.6799
 7418TIP3    H143669   2.513   5.320   5.986  0.4046 -0.1000  0.4645
 7418TIP3    H243670   2.444   5.223   6.079  0.1566  0.0164  0.4021
 7419TIP3   OH243671   4.972   5.839  14.030  0.3664  0.2502 -0.3230
 7419TIP3    H143672   4.911   5.908  14.003 -0.2416 -0.6381 -1.3275
 7419TIP3    H243673   5.013   5.872  14.110 -1.2992  0.9549  0.2756
 7420TIP3   OH243674   2.466   1.899   2.114  0.1102 -0.2254 -0.1589
 7420TIP3    H143675   2.532   1.892   2.183  0.5789 -0.2650 -0.5994
 7420TIP3    H243676   2.421   1.815   2.115 -0.0579 -0.1303  0.2680
 7421TIP3   OH243677   3.191   6.317  10.870 -0.3835 -0.3693  0.2908
 7421TIP3    H143678   3.137   6.240  10.885  0.9788 -1.2645  0.7955
 7421TIP3    H243679   3.167   6.347  10.783 -0.5144 -1.7307 -0.1628
 7422TIP3   OH243680   2.128   2.471   5.797 -0.1470  0.4862 -0.4328
 7422TIP3    H143681   2.047   2.459   5.746  0.8236 -0.3176 -1.8562
 7422TIP3    H243682   2.100   2.520   5.875 -1.8876  0.7952 -1.1967
 7423TIP3   OH243683   0.884   3.932   4.774  0.5975  0.1264 -0.2343
 7423TIP3    H143684   0.962   3.882   4.750  0.0836 -0.8638  0.0849
 7423TIP3    H243685   0.826   3.923   4.699  0.5476  0.3283 -0.2182
 7424TIP3   OH243686   1.009   5.850   5.677  0.0916 -0.3639  0.0872
 7424TIP3    H143687   1.048   5.922   5.627  0.5208 -0.9806 -0.4854
 7424TIP3    H243688   0.996   5.886   5.765 -0.3738  0.6297 -0.3797
 7425TIP3   OH243689   3.702   5.009  15.001 -0.2327  0.0791 -0.0209
 7425TIP3    H143690   3.751   4.928  15.018 -1.7478 -1.1581 -1.2709
 7425TIP3    H243691   3.716   5.025  14.908 -0.8362  0.6648 -0.0123
 7426TIP3   OH243692   1.405   2.644   1.712 -0.5198 -0.4231  0.2135
 7426TIP3    H143693   1.415   2.736   1.687 -1.0496 -0.5779 -0.6154
 7426TIP3    H243694   1.492   2.606   1.697 -0.4334 -0.1728  0.0676
 7427TIP3   OH243695   2.115   6.396   1.157  0.3069 -0.4231  0.1301
 7427TIP3    H143696   2.149   6.384   1.068  1.5435  0.7462  0.4195
 7427TIP3    H243697   2.028   6.356   1.154  1.0326 -2.0206 -1.0893
 7428TIP3   OH243698   1.734   6.748   3.647 -0.0213 -0.3566 -0.2679
 7428TIP3    H143699   1.783   6.780   3.723  0.4518 -2.1444  0.2212
 7428TIP3    H243700   1.678   6.822   3.622  2.1044  1.3714 -0.1921
 7429TIP3   OH243701   2.054   5.864   3.566 -0.1105  0.6289  0.2024
 7429TIP3    H143702   2.040   5.948   3.522  1.2967  1.1090  0.6025
 7429TIP3    H243703   2.100   5.887   3.646  0.6495 -0.5608  0.1293
 7430TIP3   OH243704   2.283   4.365  14.480 -0.4782  0.0376 -0.7430
 7430TIP3    H143705   2.283   4.461  14.472 -0.6344  0.1272  0.1501
 7430TIP3    H243706   2.259   4.334  14.393 -1.4606  0.8484 -0.7924
 7431TIP3   OH243707   0.372   1.891  16.686  0.4104 -0.2224 -0.6985
 7431TIP3    H143708   0.397   1.947  16.612 -0.7047  0.0312 -0.9041
 7431TIP3    H243709   0.282   1.866  16.668  0.5819 -1.3134 -0.1157
 7432TIP3   OH243710   2.448   1.344   3.685 -0.3334  0.3173 -0.2469
 7432TIP3    H143711   2.423   1.257   3.654  1.4475 -0.6947  0.9623
 7432TIP3    H243712   2.368   1.395   3.680 -1.4947 -1.4612 -0.7760
 7433TIP3   OH243713   5.038   3.446   1.135 -0.3801 -0.0863  0.0406
 7433TIP3    H143714   4.989   3.526   1.153 -0.0732  0.1209 -0.0598
 7433TIP3    H243715   4.970   3.378   1.132 -0.7803  0.3416 -1.0332
 7434TIP3   OH243716   4.724   3.952  13.525  0.9666  0.1424  0.2962
 7434TIP3    H143717   4.709   3.972  13.433 -0.2656 -0.3577  0.3776
 7434TIP3    H243718   4.752   3.861  13.526  0.1203 -0.1234  0.4803
 7435TIP3   OH243719   3.187   5.482   3.054  0.0815  0.1629 -0.5052
 7435TIP3    H143720   3.155   5.572   3.059 -0.7467 -0.0363 -1.6892
 7435TIP3    H243721   3.108   5.429   3.044  0.6595 -0.3574 -3.3517
 7436TIP3   OH243722   3.596   6.599  15.814 -0.0448  0.2196  0.5269
 7436TIP3    H143723   3.595   6.635  15.902  4.3888  0.4460  0.7059
 7436TIP3    H243724   3.599   6.504  15.827 -0.3675  0.2150  0.5719
 7437TIP3   OH243725   3.872   1.497  13.854  0.2863 -0.1854 -0.1393
 7437TIP3    H143726   3.814   1.453  13.792  0.9024 -2.1149  0.5712
 7437TIP3    H243727   3.953   1.447  13.852  0.1337 -0.7428  2.6332
 7438TIP3   OH243728   6.326   4.909   5.778 -0.2365  0.1331  0.0812
 7438TIP3    H143729   6.351   4.991   5.822  0.4940 -0.0729  0.0666
 7438TIP3    H243730   6.267   4.936   5.709 -2.3264  0.3687  1.8612
 7439TIP3   OH243731   5.615   2.467   4.407  0.4558  0.0323 -0.0178
 7439TIP3    H143732   5.625   2.531   4.478  0.2554  1.0861 -0.9029
 7439TIP3    H243733   5.550   2.405   4.439  1.8326 -0.6738  1.4999
 7440TIP3   OH243734   2.953   6.163   4.927  0.4532  0.0833  0.6115
 7440TIP3    H143735   2.928   6.081   4.970 -2.2013  1.0420  1.0766
 7440TIP3    H243736   3.000   6.212   4.994 -3.1345  1.3228  2.4783
 7441TIP3   OH243737   5.820   6.310  16.696  0.4059  0.3035 -0.1851
 7441TIP3    H143738   5.899   6.363  16.686  1.2532 -0.6899  0.9670
 7441TIP3    H243739   5.804   6.307  16.790  0.0005 -0.9403 -0.2761
 7442TIP3   OH243740   3.156   2.436   1.223 -0.3129  0.0520  0.4017
 7442TIP3    H143741   3.114   2.357   1.188 -0.7951  1.0226 -1.3846
 7442TIP3    H243742   3.143   2.431   1.317 -2.6026 -0.7695  0.1141
 7443TIP3   OH243743   4.881   3.025  12.070  0.1848  1.3218 -0.0383
 7443TIP3    H143744   4.938   2.949  12.074 -1.4422  0.0813  0.3702
 7443TIP3    H243745   4.936   3.098  12.099  1.4458  0.1165  0.6949
 7444TIP3   OH243746   3.634   3.793   3.548  0.0716  0.2361 -0.7015
 7444TIP3    H143747   3.546   3.798   3.584  0.6175 -0.4867  0.8496
 7444TIP3    H243748   3.691   3.790   3.625  1.3019 -1.7066 -1.6085
 7445TIP3   OH243749   4.922   5.536  14.668  0.1302 -0.2110 -0.2894
 7445TIP3    H143750   4.962   5.562  14.585  1.1009 -0.6780  0.0177
 7445TIP3    H243751   4.828   5.549  14.654  0.2835 -0.2083 -1.4352
 7446TIP3   OH243752   4.812   0.333  15.128  0.3306  0.0259 -0.6293
 7446TIP3    H143753   4.859   0.250  15.134  1.0430  0.2474 -2.4848
 7446TIP3    H243754   4.721   0.308  15.112  0.2578 -0.3772  0.3034
 7447TIP3   OH243755   2.610   2.816  11.610  0.3284 -0.4502 -0.1210
 7447TIP3    H143756   2.521   2.820  11.574  0.4321  0.3677 -0.3051
 7447TIP3    H243757   2.663   2.786  11.537  0.2279 -0.7939 -0.0542
 7448TIP3   OH243758   6.560   2.318  12.942 -0.5870 -0.6751 -0.2157
 7448TIP3    H143759   6.574   2.233  12.983 -0.7648 -1.5049 -1.7770
 7448TIP3    H243760   6.510   2.369  13.006  1.1617 -1.0447  1.5257
 7449TIP3   OH243761   0.927   6.770  14.250 -0.6054  0.0489  0.1699
 7449TIP3    H143762   0.899   6.842  14.306 -0.3230 -0.4784  1.0176
 7449TIP3    H243763   1.019   6.755  14.275  0.2460  1.2083 -1.9549
 7450TIP3   OH243764   6.165   4.913   2.550  0.2997  0.3755  0.2939
 7450TIP3    H143765   6.228   4.984   2.540  0.6208  0.1117  0.4451
 7450TIP3    H243766   6.186   4.852   2.479  0.4445  0.1137  0.5626
 7451TIP3   OH243767   2.834   3.065   6.297 -0.4399  0.9705 -0.1205
 7451TIP3    H143768   2.910   3.035   6.248 -0.2536  2.3443 -0.7339
 7451TIP3    H243769   2.869   3.090   6.383 -0.5825 -0.3960  0.3593
 7452TIP3   OH243770   5.007   3.985  17.114 -0.1373 -0.0142  0.5297
 7452TIP3    H143771   5.074   3.917  17.113  1.4116  1.4566 -0.3240
 7452TIP3    H243772   4.969   3.979  17.201  1.6494 -0.4031  1.3377
 7453TIP3   OH243773   0.869   3.847   3.249  0.8180 -0.3876  0.1205
 7453TIP3    H143774   0.917   3.928   3.232  1.5974 -1.1683 -1.7128
 7453TIP3    H243775   0.847   3.851   3.342 -0.7489  2.7405 -0.2425
 7454TIP3   OH243776   1.072   3.045   4.862  0.4988  0.3185 -0.0365
 7454TIP3    H143777   1.052   3.037   4.955 -1.4598  1.0361 -0.3468
 7454TIP3    H243778   1.063   2.956   4.828  0.0948  0.2332  0.2832
 7455TIP3   OH243779   3.461   2.313  15.954  0.4934 -0.1706 -0.1115
 7455TIP3    H143780   3.399   2.244  15.978  1.1265 -0.7623 -0.1570
 7455TIP3    H243781   3.489   2.351  16.037  1.2788 -0.9808  0.0097
 7456TIP3   OH243782   3.941   3.837  15.145  0.4029 -0.3996  0.0996
 7456TIP3    H143783   3.922   3.812  15.054 -0.8287 -0.2867  0.2999
 7456TIP3    H243784   3.958   3.931  15.141  1.7748 -0.6503 -0.2027
 7457TIP3   OH243785   3.996   1.160  11.538  0.2015 -0.1573  0.5574
 7457TIP3    H143786   3.946   1.236  11.508 -2.2787 -2.1698 -0.8165
 7457TIP3    H243787   4.088   1.185  11.525 -0.5806  1.5947 -2.5121
 7458TIP3   OH243788   4.478   5.445   5.590 -0.2491 -0.1372  0.7915
 7458TIP3    H143789   4.386   5.468   5.588 -0.1341  0.2741 -0.4296
 7458TIP3    H243790   4.521   5.518   5.635 -0.2376  0.8196 -0.6911
 7459TIP3   OH243791   2.700   5.357   0.254  0.4410  0.0961 -0.3208
 7459TIP3    H143792   2.775   5.327   0.203 -0.7219 -1.6737 -1.0920
 7459TIP3    H243793   2.660   5.424   0.199  0.3035 -0.4177 -0.8593
 7460TIP3   OH243794   0.660   2.186  15.370 -0.6890 -0.0545 -0.3780
 7460TIP3    H143795   0.736   2.157  15.420 -0.1299 -1.5027 -1.9901
 7460TIP3    H243796   0.658   2.281  15.384 -0.2762 -0.3127  1.9300
 7461TIP3   OH243797   3.700   6.685   3.183  0.1491  0.1363  1.0215
 7461TIP3    H143798   3.748   6.603   3.169  1.4828  1.0116  0.2896
 7461TIP3    H243799   3.690   6.692   3.278 -0.0548 -0.8986  1.0894
 7462TIP3   OH243800   1.016   3.204  12.583 -0.4004  0.1565  0.5310
 7462TIP3    H143801   1.088   3.141  12.576  0.4533  1.1248  0.1882
 7462TIP3    H243802   0.943   3.164  12.536  0.0855 -0.6275  0.4350
 7463TIP3   OH243803   3.019   4.533  14.882  0.3008 -0.2515  0.4461
 7463TIP3    H143804   3.100   4.483  14.888 -0.1105 -0.8332  1.2427
 7463TIP3    H243805   3.044   4.622  14.906  0.6473 -0.4935  0.9889
 7464TIP3   OH243806   5.084   4.305  10.516  0.0756 -0.3502 -0.0653
 7464TIP3    H143807   5.062   4.282  10.606  2.1928 -0.2399  0.5302
 7464TIP3    H243808   5.027   4.379  10.496 -0.4251 -0.3795  1.1798
 7465TIP3   OH243809   4.267   0.279   1.039 -0.4669  0.4023  0.0087
 7465TIP3    H143810   4.269   0.224   1.117  0.0416 -0.5871 -0.6892
 7465TIP3    H243811   4.355   0.273   1.003 -0.8513  0.3897 -0.9578
 7466TIP3   OH243812   3.972   6.171   3.785 -0.1944 -0.4856  0.3676
 7466TIP3    H143813   3.896   6.206   3.831  0.5238  0.1962  1.0528
 7466TIP3    H243814   3.966   6.209   3.697 -0.9027 -0.8362  0.2525
 7467TIP3   OH243815   1.131   0.355  12.035  0.8098 -0.1760  0.1690
 7467TIP3    H143816   1.051   0.369  12.086  0.4511 -0.1276 -0.4056
 7467TIP3    H243817   1.159   0.266  12.060  0.6661 -0.1342  0.4877
 7468TIP3   OH243818   2.452   0.721  15.941 -0.0059 -0.8942 -0.3356
 7468TIP3    H143819   2.426   0.631  15.922  0.5295 -1.0166 -0.5067
 7468TIP3    H243820   2.536   0.713  15.987 -0.8383 -0.5698  1.3535
 7469TIP3   OH243821   4.195   3.757   3.992 -0.2101 -0.0574 -0.1246
 7469TIP3    H143822   4.263   3.809   3.949 -2.0728  1.0479 -1.8938
 7469TIP3    H243823   4.173   3.807   4.070 -0.2969  0.5760 -0.5441
 7470TIP3   OH243824   2.826   0.537   3.488  0.0914 -0.0728 -0.0964
 7470TIP3    H143825   2.866   0.611   3.532  0.2485  0.4684 -1.1246
 7470TIP3    H243826   2.804   0.569   3.401 -0.9489 -0.8836 -0.1512
 7471TIP3   OH243827   2.366   1.738   1.130 -0.5993  0.8420  0.4349
 7471TIP3    H143828   2.392   1.818   1.176  2.7913 -0.4891  1.0882
 7471TIP3    H243829   2.435   1.723   1.066  0.1383 -2.6259  1.7849
 7472TIP3   OH243830   6.614   1.630  13.589  0.5575  0.4623 -0.4930
 7472TIP3    H143831   6.540   1.670  13.634  0.9971 -0.6127  1.2762
 7472TIP3    H243832   6.661   1.704  13.550 -0.2033  1.3661  0.2657
 7473TIP3   OH243833   5.066   1.263  15.238 -0.0528 -0.8946 -0.4600
 7473TIP3    H143834   5.159   1.263  15.262 -0.1767 -1.3950  0.0310
 7473TIP3    H243835   5.066   1.272  15.143  0.4787 -0.0310 -0.3936
 7474TIP3   OH243836   5.430   6.341   2.623  0.2536 -0.4944  0.4652
 7474TIP3    H143837   5.337   6.320   2.623 -0.0916  0.8026  2.4151
 7474TIP3    H243838   5.471   6.268   2.671 -0.1210  0.1708  1.8311
 7475TIP3   OH243839   3.410   1.646  14.058  0.0610  0.0159 -0.4186
 7475TIP3    H143840   3.461   1.709  14.107  0.0344  0.0242 -0.4015
 7475TIP3    H243841   3.458   1.634  13.976 -0.2488  0.5117 -0.6789
 7476TIP3   OH243842   6.444   2.793  13.851  0.3658 -0.2516  0.1167
 7476TIP3    H143843   6.516   2.851  13.826  2.7398 -3.7493 -2.2034
 7476TIP3    H243844   6.367   2.829  13.807  1.4241  1.8009 -0.1413
 7477TIP3   OH243845   5.161   0.367  11.340  0.0820 -0.0339 -0.4375
 7477TIP3    H143846   5.192   0.437  11.398  0.1887 -0.3360 -0.1227
 7477TIP3    H243847   5.083   0.404  11.298 -0.5321 -0.1134  0.5803
 7478TIP3   OH243848   6.029   3.146   6.770  0.6372  0.0682 -0.4965
 7478TIP3    H143849   5.949   3.195   6.752 -0.6705 -2.2421 -1.2794
 7478TIP3    H243850   6.099   3.209   6.750 -0.9308  1.4117 -2.1592
 7479TIP3   OH243851   2.532   2.099  16.303  0.1052  0.6243  0.2431
 7479TIP3    H143852   2.486   2.146  16.372 -0.2333 -1.2798  1.3818
 7479TIP3    H243853   2.563   2.167  16.244 -1.3983  2.1654  1.1610
 7480TIP3   OH243854   4.994   1.817  11.250  0.2513  0.3829 -0.2673
 7480TIP3    H143855   4.957   1.839  11.165  0.3133  1.3596 -0.0490
 7480TIP3    H243856   5.006   1.901  11.294 -0.0068 -0.1191  0.8062
 7481TIP3   OH243857   1.232   5.740   0.151 -0.3571  0.8896 -0.0043
 7481TIP3    H143858   1.215   5.816   0.206 -0.1307 -1.2239  3.2552
 7481TIP3    H243859   1.319   5.709   0.179 -0.8397 -1.0904 -0.5072
 7482TIP3   OH243860   1.672   0.649   0.911  0.1037 -0.2462 -0.1784
 7482TIP3    H143861   1.618   0.651   0.989 -0.1128  0.3694 -0.3378
 7482TIP3    H243862   1.623   0.700   0.846  1.5557  1.6750  0.1355
 7483TIP3   OH243863   0.250   1.149  13.131  0.3073  0.4063 -0.0631
 7483TIP3    H143864   0.254   1.216  13.064 -1.0539 -0.2174 -0.7988
 7483TIP3    H243865   0.190   1.183  13.197  1.4025  0.8837  0.7247
 7484TIP3   OH243866   3.748   3.798  11.639  0.0133  0.0942  1.1221
 7484TIP3    H143867   3.706   3.779  11.555  2.4552  0.0755 -0.1886
 7484TIP3    H243868   3.676   3.804  11.701 -1.8756 -0.0894 -0.9281
 7485TIP3   OH243869   6.005   2.132  13.315 -0.1829 -0.7383 -0.2332
 7485TIP3    H143870   6.031   2.042  13.333  0.9679 -0.1897  1.0034
 7485TIP3    H243871   5.915   2.126  13.284 -0.0427 -2.3204 -0.4008
 7486TIP3   OH243872   4.623   2.191   0.173 -0.8091 -0.6544 -0.1446
 7486TIP3    H143873   4.615   2.251   0.098  1.0157 -0.2194 -0.0358
 7486TIP3    H243874   4.539   2.198   0.218  0.2013  4.3177  1.6756
 7487TIP3   OH243875   4.495   0.920  16.346 -0.8460  0.0753  0.2321
 7487TIP3    H143876   4.543   0.886  16.421 -0.0972 -0.4735 -0.4715
 7487TIP3    H243877   4.438   0.848  16.319 -1.0449  0.2371  0.2166
 7488TIP3   OH243878   0.440   4.937  14.567  0.2446  0.0630  0.1734
 7488TIP3    H143879   0.396   5.006  14.617 -1.2665  0.3203 -1.4417
 7488TIP3    H243880   0.504   4.901  14.629 -0.3808  1.4777  1.7380
 7489TIP3   OH243881   1.017   3.542   2.615  0.0427  0.2781  0.4108
 7489TIP3    H143882   1.026   3.637   2.620 -2.9393  0.6797  0.3683
 7489TIP3    H243883   1.008   3.524   2.521  4.2739 -0.6327  0.0062
 7490TIP3   OH243884   2.867   0.562   0.298 -0.3931  0.5427  0.3170
 7490TIP3    H143885   2.871   0.548   0.392  1.3831  3.7432  0.8724
 7490TIP3    H243886   2.934   0.629   0.281 -2.3094  1.9026 -2.8154
 7491TIP3   OH243887   0.244   6.571   4.318 -0.1809  0.2906  0.7495
 7491TIP3    H143888   0.298   6.629   4.372  0.7421 -1.6405  2.0278
 7491TIP3    H243889   0.297   6.492   4.308 -1.6432 -0.6021 -0.3598
 7492TIP3   OH243890   6.547   3.741  13.470 -0.0314 -0.3550  0.4835
 7492TIP3    H143891   6.498   3.670  13.429 -1.2237  1.1370 -0.7650
 7492TIP3    H243892   6.487   3.777  13.536 -0.4057  1.0042 -0.5478
 7493TIP3   OH243893   6.648   1.667  15.698 -0.1042 -0.1392  0.0196
 7493TIP3    H143894   6.722   1.613  15.726  0.6858  1.4713  1.2477
 7493TIP3    H243895   6.664   1.753  15.739 -2.8577  0.1553  0.6936
 7494TIP3   OH243896   3.272   3.105  16.360 -0.0729 -0.8623  0.5932
 7494TIP3    H143897   3.305   3.195  16.358 -1.7371 -0.2170 -1.0448
 7494TIP3    H243898   3.224   3.100  16.442  1.3682 -0.8020  1.4678
 7495TIP3   OH243899   3.417   4.442   0.216 -0.8370  0.0071  0.3843
 7495TIP3    H143900   3.345   4.475   0.270 -1.7218 -0.6740 -0.3562
 7495TIP3    H243901   3.488   4.428   0.279 -0.6390  2.5641  0.8520
 7496TIP3   OH243902   4.402   3.869   4.179 -0.2359  0.1863 -0.2794
 7496TIP3    H143903   4.381   3.961   4.166  1.2130  0.2640 -2.4848
 7496TIP3    H243904   4.444   3.841   4.098  0.3680 -2.1412  0.7282
 7497TIP3   OH243905   2.859   5.972   2.536  0.0466 -0.0560  0.0699
 7497TIP3    H143906   2.860   6.007   2.447 -0.3274  2.6962  1.0466
 7497TIP3    H243907   2.783   5.915   2.539  1.1353 -1.7644 -1.8446
 7498TIP3   OH243908   1.519   6.546  13.405  0.4711  0.0777 -0.1849
 7498TIP3    H143909   1.482   6.540  13.493 -2.4755  1.9838 -1.1479
 7498TIP3    H243910   1.462   6.492  13.351  0.7965  0.8293 -1.3021
 7499TIP3   OH243911   6.284   6.336  14.869  0.2765 -0.2059 -0.4377
 7499TIP3    H143912   6.322   6.414  14.828  0.2019  0.1425  0.1492
 7499TIP3    H243913   6.254   6.283  14.796  0.2093  0.3777 -0.8401
 7500TIP3   OH243914   5.703   2.588   3.579  0.2266 -0.3416 -0.3783
 7500TIP3    H143915   5.735   2.501   3.602  0.4364  0.1138  1.1684
 7500TIP3    H243916   5.667   2.623   3.661  1.9031  1.7607 -0.4413
 7501TIP3   OH243917   5.832   5.055  15.629 -0.1289  0.3676  0.7892
 7501TIP3    H143918   5.869   4.982  15.581 -0.1496 -0.6723  2.2840
 7501TIP3    H243919   5.805   5.018  15.713 -0.1951  2.0697  1.5750
 7502TIP3   OH243920   6.775   2.885  12.343 -0.0589  0.6713 -0.2243
 7502TIP3    H143921   6.706   2.822  12.365  0.6582  0.2583  0.8938
 7502TIP3    H243922   6.801   2.861  12.254 -0.5810  0.1250 -0.2419
 7503TIP3   OH243923   1.037   5.491   4.455  0.0072 -0.6628 -0.5624
 7503TIP3    H143924   0.943   5.485   4.472 -0.1545 -0.4582 -1.3478
 7503TIP3    H243925   1.060   5.581   4.478  0.0562 -0.7733 -0.1708
 7504TIP3   OH243926   4.394   5.607  13.909 -0.3248 -0.1384  0.0481
 7504TIP3    H143927   4.459   5.676  13.893 -0.6374  0.1351 -0.0366
 7504TIP3    H243928   4.433   5.529  13.871  0.5732 -0.2772  1.1953
 7505TIP3   OH243929   3.812   4.386   5.454  0.3573  0.3942 -0.0644
 7505TIP3    H143930   3.882   4.439   5.491 -1.8378  2.5456  1.3122
 7505TIP3    H243931   3.799   4.420   5.366  0.8948  0.0963 -0.2657
 7506TIP3   OH243932   5.043   5.557  12.579 -0.2258  0.4263 -0.0195
 7506TIP3    H143933   5.028   5.652  12.581  0.8704  0.6085  1.9831
 7506TIP3    H243934   5.129   5.546  12.620 -0.5234 -1.4796  0.1710
 7507TIP3   OH243935   6.013   3.938  16.947 -0.0011 -0.3094  0.1226
 7507TIP3    H143936   5.943   3.997  16.974 -0.1232 -0.7088  0.7055
 7507TIP3    H243937   5.983   3.900  16.864 -0.1436  0.0709  0.0004
 7508TIP3   OH243938   5.306   3.008   4.255  0.3001 -0.3623  0.0990
 7508TIP3    H143939   5.285   2.987   4.164 -0.9972 -0.3718  0.3773
 7508TIP3    H243940   5.339   2.926   4.292 -1.5832 -1.0982  0.2906
 7509TIP3   OH243941   0.635   6.069   6.329 -0.2536  0.0892 -0.1103
 7509TIP3    H143942   0.572   6.063   6.258  1.8544  0.1433 -2.1164
 7509TIP3    H243943   0.700   6.132   6.298  0.5673  0.3941  2.0414
 7510TIP3   OH243944   0.186   5.281  12.161  0.0072 -0.3132 -0.5342
 7510TIP3    H143945   0.218   5.370  12.148 -0.9258 -0.2665 -3.1155
 7510TIP3    H243946   0.233   5.229  12.095 -1.5602 -1.1542 -1.0422
 7511TIP3   OH243947   2.402   5.720  16.629 -0.5433  0.0289  0.1867
 7511TIP3    H143948   2.390   5.812  16.653 -1.3524 -0.3945  1.5277
 7511TIP3    H243949   2.317   5.679  16.650  0.0381 -1.1500  0.3104
 7512TIP3   OH243950   5.333   3.735  14.375  0.0007 -0.5449  0.0608
 7512TIP3    H143951   5.332   3.831  14.377  1.9781 -0.4288  3.3727
 7512TIP3    H243952   5.274   3.712  14.303  0.4010  3.1309 -1.6997
 7513TIP3   OH243953   0.169   3.618  14.766  0.0016  0.5191 -0.0976
 7513TIP3    H143954   0.140   3.668  14.843  0.9520  0.2276  0.4696
 7513TIP3    H243955   0.213   3.684  14.711  0.3017  0.5208  0.1406
 7514TIP3   OH243956   2.580   5.071   0.560 -0.5867  0.3509  0.6388
 7514TIP3    H143957   2.568   5.069   0.655 -0.2939  0.2210  0.6773
 7514TIP3    H243958   2.506   5.121   0.527  1.4723  4.2351  1.2731
 7515TIP3   OH243959   1.884   6.028   1.660 -0.1908  0.0027 -0.5669
 7515TIP3    H143960   1.883   5.949   1.605 -0.4830  0.4820 -1.2599
 7515TIP3    H243961   1.975   6.036   1.688  0.2480  0.4806 -2.0533
 7516TIP3   OH243962   6.689   3.637   5.304  0.5508  0.9980  0.3443
 7516TIP3    H143963   6.675   3.602   5.216 -0.9239  1.0386  0.5429
 7516TIP3    H243964   6.601   3.648   5.340  1.1271  1.0938  1.7892
 7517TIP3   OH243965   2.744   4.996   0.235  0.0916 -0.1477 -0.0909
 7517TIP3    H143966   2.824   5.048   0.229 -0.4546  0.9371  1.2318
 7517TIP3    H243967   2.751   4.951   0.319 -1.5271  1.5693  1.0636
 7518TIP3   OH243968   2.901   5.421   5.608  0.7578  0.4147 -0.5481
 7518TIP3    H143969   2.870   5.510   5.586  1.3692  0.3755 -1.6394
 7518TIP3    H243970   2.914   5.379   5.523 -1.1602 -1.3211 -0.0598
 7519TIP3   OH243971   1.007   4.148   0.215 -0.1864 -0.0117 -0.2770
 7519TIP3    H143972   0.953   4.227   0.209 -1.5717 -0.9444 -0.5431
 7519TIP3    H243973   1.042   4.138   0.126  0.0054  0.3049 -0.2399
 7520TIP3   OH243974   1.600   1.021  12.478  0.1650 -0.0159  0.0808
 7520TIP3    H143975   1.649   0.940  12.460 -0.6123 -0.3308 -0.7184
 7520TIP3    H243976   1.561   1.006  12.564 -0.1216 -0.5734 -0.1387
 7521TIP3   OH243977   1.317   0.588   4.713 -0.0498 -0.5729 -0.6747
 7521TIP3    H143978   1.294   0.542   4.632 -0.7261 -0.8803 -0.3112
 7521TIP3    H243979   1.286   0.531   4.783  1.3130 -0.7324 -0.1724
 7522TIP3   OH243980   1.986   2.728  16.640 -0.0110  0.0490 -0.2085
 7522TIP3    H143981   2.055   2.780  16.681  0.1190 -1.7801  2.1093
 7522TIP3    H243982   1.918   2.719  16.708 -0.0131 -2.7114 -0.4462
 7523TIP3   OH243983   0.862   5.614  11.384  0.2046 -0.0178 -0.2157
 7523TIP3    H143984   0.834   5.550  11.318 -1.2923 -0.5451  0.8818
 7523TIP3    H243985   0.830   5.698  11.351  1.5228  0.0902 -1.2942
 7524TIP3   OH243986   5.370   2.859  14.303 -0.1468 -0.0926  0.5391
 7524TIP3    H143987   5.329   2.858  14.389  1.9861 -1.0406  1.6283
 7524TIP3    H243988   5.456   2.898  14.318 -0.4749  1.6637 -1.6030
 7525TIP3   OH243989   4.843   1.935   5.811  0.2327 -0.7757  0.1066
 7525TIP3    H143990   4.852   1.854   5.861  1.2842 -0.3890  0.5596
 7525TIP3    H243991   4.923   1.940   5.759  0.3720  0.1738  0.3913
 7526TIP3   OH243992   2.455   2.211  12.917 -0.3642 -0.0757  0.0271
 7526TIP3    H143993   2.448   2.133  12.862 -0.3225  0.1375 -0.2866
 7526TIP3    H243994   2.372   2.256  12.905  0.7833  1.6199 -2.4264
 7527TIP3   OH243995   6.757   1.027   3.587 -0.0570 -0.5419  0.4281
 7527TIP3    H143996   6.818   1.085   3.542 -2.4371  1.8374  0.0143
 7527TIP3    H243997   6.810   0.982   3.652  2.3686  0.3115 -0.8256
 7528TIP3   OH243998   3.278   2.559  12.009  0.1153  0.3474  0.0948
 7528TIP3    H143999   3.235   2.599  11.933  1.1733 -0.3780 -0.9386
 7528TIP3    H244000   3.298   2.469  11.980  0.8686  0.1689  1.1032
 7529TIP3   OH244001   0.721   5.409   0.633 -0.2448 -0.7990 -0.0328
 7529TIP3    H144002   0.784   5.456   0.579 -0.0838 -0.4960  0.4139
 7529TIP3    H244003   0.669   5.478   0.675 -1.7756 -1.0407 -1.4336
 7530TIP3   OH244004   3.744   6.449  15.311  0.1164 -0.1478  0.2337
 7530TIP3    H144005   3.814   6.514  15.305  1.9789 -2.1512 -1.0513
 7530TIP3    H244006   3.782   6.378  15.362 -1.5611 -0.6429  0.8516
 7531TIP3   OH244007   5.935   3.299  14.011  0.6972 -0.7550  0.5042
 7531TIP3    H144008   5.959   3.228  13.951 -1.2766 -0.3604 -0.8107
 7531TIP3    H244009   5.930   3.377  13.955  0.2778 -0.0810  1.4674
 7532TIP3   OH244010   5.196   6.033  11.778 -0.1754 -0.0126 -0.1045
 7532TIP3    H144011   5.238   5.999  11.858 -0.1100  0.1068 -0.0877
 7532TIP3    H244012   5.248   6.110  11.755 -1.2066  0.9619  0.6964
 7533TIP3   OH244013   4.104   4.491   1.446  0.0677 -0.4718 -0.0607
 7533TIP3    H144014   4.052   4.522   1.521  0.2385  0.9580 -0.5140
 7533TIP3    H244015   4.038   4.468   1.380 -0.0354 -0.0778 -0.0971
 7534TIP3   OH244016   4.974   5.990   5.491 -0.4511  0.5483  0.0929
 7534TIP3    H144017   4.908   6.055   5.464  0.8666  1.0797 -2.1508
 7534TIP3    H244018   5.039   6.041   5.539 -0.0361  0.6616 -0.5840
 7535TIP3   OH244019   3.552   2.925   2.500 -0.5099  0.4072 -0.0258
 7535TIP3    H144020   3.485   2.876   2.546  0.2692  0.2322  0.9641
 7535TIP3    H244021   3.509   2.956   2.420 -1.9390  0.8494  0.8853
 7536TIP3   OH244022   2.254   0.139   4.860  0.2644 -0.8251  0.7611
 7536TIP3    H144023   2.316   0.110   4.794  0.3668 -2.9652  1.7053
 7536TIP3    H244024   2.303   0.199   4.915  1.0575 -1.2946  0.5802
 7537TIP3   OH244025   2.889   3.531  12.541  0.5070 -0.2260  0.3778
 7537TIP3    H144026   2.926   3.450  12.504  0.1944 -0.2032  0.0134
 7537TIP3    H244027   2.865   3.507  12.631  2.0692 -0.0504  0.8843
 7538TIP3   OH244028   1.718   1.510  16.120  0.1281 -0.0474  0.0316
 7538TIP3    H144029   1.674   1.530  16.038 -2.6666 -2.3292  0.8307
 7538TIP3    H244030   1.804   1.476  16.094 -0.4648 -0.1540 -1.9051
 7539TIP3   OH244031   6.156   5.283   5.673  0.1975  0.1270 -0.5733
 7539TIP3    H144032   6.184   5.325   5.592  1.3486 -1.3572 -0.9968
 7539TIP3    H244033   6.200   5.333   5.742 -1.7140  2.1373 -0.7056
 7540TIP3   OH244034   3.581   0.601  14.602  0.3659 -0.0510  0.5702
 7540TIP3    H144035   3.629   0.534  14.650 -1.3569 -0.9949  1.0353
 7540TIP3    H244036   3.514   0.553  14.553 -0.9648  1.3103  0.9709
 7541TIP3   OH244037   4.351   0.574   3.981 -0.8753 -0.4175  0.1601
 7541TIP3    H144038   4.319   0.528   4.059  1.2073 -1.2143  0.6141
 7541TIP3    H244039   4.424   0.520   3.951 -0.3516  0.9818 -1.1515
 7542TIP3   OH244040   0.333   0.818   4.207 -0.6635 -0.3171 -0.1464
 7542TIP3    H144041   0.418   0.783   4.180 -0.4089  0.5206 -0.4779
 7542TIP3    H244042   0.269   0.768   4.158 -0.3615 -0.9168  0.0614
 7543TIP3   OH244043   2.746   2.743   5.119  0.3347  0.9780 -0.3683
 7543TIP3    H144044   2.762   2.698   5.202  0.4361 -1.8637 -1.8040
 7543TIP3    H244045   2.800   2.822   5.124 -0.9175  1.7760  2.8588
 7544TIP3   OH244046   5.808   2.132  11.929 -0.1038  0.3883  0.1240
 7544TIP3    H144047   5.900   2.137  11.955 -0.1502  0.5436  0.2611
 7544TIP3    H244048   5.763   2.105  12.009  0.0325 -1.4427 -0.3638
 7545TIP3   OH244049   1.047   1.919  15.848 -0.8486 -0.1325  0.1492
 7545TIP3    H144050   1.032   2.013  15.845 -0.1174 -0.0223 -2.4465
 7545TIP3    H244051   1.140   1.910  15.868 -0.8286 -0.2782 -0.0071
 7546TIP3   OH244052   4.029   2.886   5.618 -0.2129  0.3641  0.1755
 7546TIP3    H144053   4.070   2.965   5.652  1.4801 -0.5981  0.4881
 7546TIP3    H244054   4.052   2.886   5.525  0.2104 -0.0028  0.2784
 7547TIP3   OH244055   4.550   4.457   1.877  0.0452 -0.3807 -0.3632
 7547TIP3    H144056   4.496   4.379   1.862 -0.7856 -0.5238  2.7787
 7547TIP3    H244057   4.563   4.494   1.789 -3.8671 -1.1665 -1.4438
 7548TIP3   OH244058   2.990   3.591   5.062 -0.6718  0.1741  0.3560
 7548TIP3    H144059   2.951   3.667   5.019 -0.4937  0.6052  0.9489
 7548TIP3    H244060   3.081   3.616   5.078 -0.4445 -0.4014 -0.0097
 7549TIP3   OH244061   6.742   6.285  13.733  0.0859 -0.1678 -0.2171
 7549TIP3    H144062   6.800   6.211  13.751  0.0574 -0.0529  0.3617
 7549TIP3    H244063   6.704   6.307  13.818 -0.5291 -0.0090 -0.5286
 7550TIP3   OH244064   0.554   6.588   3.925 -0.1529  0.0791 -0.5280
 7550TIP3    H144065   0.493   6.634   3.983 -0.7908 -2.3380  0.8545
 7550TIP3    H244066   0.634   6.639   3.928  0.0308 -0.1800  2.9983
 7551TIP3   OH244067   2.953   5.912   0.047 -0.0529  0.7549 -0.8263
 7551TIP3    H144068   2.974   5.863  -0.033 -1.4466 -2.3712  0.5916
 7551TIP3    H244069   2.859   5.900   0.058 -0.1778  2.5765  0.4254
 7552TIP3   OH244070   5.350   3.828  15.785  0.1978 -0.0142  0.0014
 7552TIP3    H144071   5.382   3.738  15.789  0.3873  0.0851  1.9108
 7552TIP3    H244072   5.255   3.820  15.794  0.3296  0.0005  1.8478
 7553TIP3   OH244073   5.406   6.347  16.269 -0.6396 -0.0636  0.1830
 7553TIP3    H144074   5.367   6.337  16.356 -0.4225 -0.1528  0.2687
 7553TIP3    H244075   5.478   6.285  16.268 -0.3181  0.3097  0.1243
 7554TIP3   OH244076   0.251   6.534  17.081  0.1326 -0.5149  0.0169
 7554TIP3    H144077   0.344   6.544  17.103 -0.4336  0.0611  2.5146
 7554TIP3    H244078   0.227   6.616  17.038  0.4095  0.0876  0.9777
 7555TIP3   OH244079   2.374   1.188  14.094  0.3855  0.1965 -0.3057
 7555TIP3    H144080   2.461   1.171  14.057  0.9405  0.8846  0.6338
 7555TIP3    H244081   2.384   1.171  14.188 -0.0226  1.9082  0.0914
 7556TIP3   OH244082   2.871   1.720   1.427 -0.3841  0.0040 -0.0606
 7556TIP3    H144083   2.842   1.641   1.472 -0.4236 -0.3683 -0.7123
 7556TIP3    H244084   2.836   1.711   1.338 -0.7809  0.9800 -0.0156
 7557TIP3   OH244085   5.435   5.714   2.270  0.1134 -0.0116  0.0279
 7557TIP3    H144086   5.528   5.728   2.249  0.0011 -0.4473 -0.8263
 7557TIP3    H244087   5.407   5.646   2.208 -0.8215  0.2345  0.1681
 7558TIP3   OH244088   2.161   1.363  14.124 -0.0342 -0.1394  0.2093
 7558TIP3    H144089   2.135   1.398  14.039 -0.4231  0.6331  0.6371
 7558TIP3    H244090   2.245   1.320  14.107 -0.4620 -0.6275 -0.7064
 7559TIP3   OH244091   3.246   0.649   4.800 -0.5774 -0.3215 -0.2229
 7559TIP3    H144092   3.234   0.557   4.825  1.8793 -0.5547  0.3182
 7559TIP3    H244093   3.255   0.647   4.705  1.7121 -1.0040 -0.0508
 7560TIP3   OH244094   2.405   2.408  15.905  0.4647 -0.6592 -0.4930
 7560TIP3    H144095   2.328   2.371  15.862 -0.1449  0.8018 -0.7301
 7560TIP3    H244096   2.375   2.432  15.993  0.5501  0.1557 -0.6737
 7561TIP3   OH244097   0.308   1.390  11.044  0.2369  0.0920 -0.2041
 7561TIP3    H144098   0.240   1.398  11.112  0.4616 -0.1399  0.0544
 7561TIP3    H244099   0.279   1.316  10.991  1.7159 -1.9464  1.6304
 7562TIP3   OH244100   6.114   6.770  13.903  0.2805 -0.3247  0.0416
 7562TIP3    H144101   6.032   6.729  13.874  0.3319  0.3501 -1.1235
 7562TIP3    H244102   6.154   6.803  13.823 -0.2831  2.9556  0.9810
 7563TIP3   OH244103   6.710   2.706   2.560  0.3320 -0.1885 -0.2784
 7563TIP3    H144104   6.701   2.689   2.654 -2.9707 -0.8809 -0.5847
 7563TIP3    H244105   6.646   2.775   2.542  1.4349  0.4680 -1.9513
 7564TIP3   OH244106   5.710   3.524   4.768  0.1652 -0.1368 -0.0333
 7564TIP3    H144107   5.647   3.586   4.805  1.3338  1.0642  0.0198
 7564TIP3    H244108   5.796   3.561   4.790  0.8973 -1.5949 -0.3250
 7565TIP3   OH244109   0.454   3.370  11.847 -0.1638 -0.1766  0.0009
 7565TIP3    H144110   0.511   3.296  11.828  1.5584  0.4412  2.2709
 7565TIP3    H244111   0.397   3.339  11.918 -1.3769 -0.1673 -0.9339
 7566TIP3   OH244112   3.339   5.971  10.971  0.0798  0.1354 -0.9111
 7566TIP3    H144113   3.418   5.932  10.931 -0.0119 -1.4470  0.3320
 7566TIP3    H244114   3.314   5.908  11.038  0.5040  2.8691  2.0270
 7567TIP3   OH244115   1.603   4.556   2.752 -0.3547 -0.3964  0.1784
 7567TIP3    H144116   1.560   4.557   2.666  0.3732  0.6615 -0.1986
 7567TIP3    H244117   1.691   4.589   2.734 -0.6812  1.4077  1.5666
 7568TIP3   OH244118   5.060   2.811  12.046 -0.0059 -0.1433  0.2808
 7568TIP3    H144119   5.130   2.753  12.015  0.1393  0.3399 -0.3108
 7568TIP3    H244120   5.103   2.866  12.112 -0.0432 -0.4287  0.5453
 7569TIP3   OH244121   1.514   0.900   6.049  0.5331  0.5893 -0.1006
 7569TIP3    H144122   1.486   0.989   6.027  2.6055  1.3559  0.1859
 7569TIP3    H244123   1.446   0.868   6.109  0.4927  2.5344  0.9757
 7570TIP3   OH244124   1.937   4.990   1.685  0.4633 -0.1692  0.2336
 7570TIP3    H144125   1.959   5.083   1.674 -0.5902  0.1209  0.4794
 7570TIP3    H244126   1.988   4.962   1.762  1.3769 -0.0106 -0.2954
 7571TIP3   OH244127   0.682   4.105  11.874  0.4692  0.0891  0.0253
 7571TIP3    H144128   0.704   4.132  11.785  1.0852  2.6127  0.8609
 7571TIP3    H244129   0.587   4.091  11.872  0.1608  2.0601 -0.6064
 7572TIP3   OH244130   6.212   5.370   3.915  0.5516  0.2349 -0.0373
 7572TIP3    H144131   6.170   5.395   3.833  0.2289  1.1976  0.4111
 7572TIP3    H244132   6.305   5.368   3.895  0.7596  3.2800  0.2308
 7573TIP3   OH244133   0.534   6.473  14.281 -0.1278  0.1965 -0.3409
 7573TIP3    H144134   0.512   6.504  14.193 -0.7192 -1.8413 -0.9616
 7573TIP3    H244135   0.452   6.481  14.330  0.2700  1.5957  0.1553
 7574TIP3   OH244136   4.495   6.737  17.206 -0.1863 -0.2390 -0.3252
 7574TIP3    H144137   4.511   6.727  17.112 -0.7506  0.1486 -0.4760
 7574TIP3    H244138   4.552   6.809  17.233  0.0388 -0.4073 -0.3516
 7575TIP3   OH244139   5.885   3.188  13.036  0.5398  0.2820 -0.0078
 7575TIP3    H144140   5.893   3.104  13.081  0.0746  0.0958 -0.2622
 7575TIP3    H244141   5.809   3.230  13.078 -0.1786 -0.0896 -0.9229
 7576TIP3   OH244142   1.134   1.293  15.555 -0.3978  0.1385 -0.1360
 7576TIP3    H144143   1.124   1.256  15.643  2.0430  1.0738  0.6031
 7576TIP3    H244144   1.062   1.356  15.547  0.0052  0.8738  1.6729
 7577TIP3   OH244145   2.888   2.116  15.786  0.4818 -0.1492  0.7422
 7577TIP3    H144146   2.837   2.043  15.752 -1.5980  0.2569  2.7549
 7577TIP3    H244147   2.939   2.078  15.858  0.2845  0.1432  1.0397
 7578TIP3   OH244148   1.114   1.803  15.028  0.4110  0.1169  0.4342
 7578TIP3    H144149   1.021   1.823  15.016  0.3323 -1.0874 -1.4374
 7578TIP3    H244150   1.160   1.873  14.982  0.2823 -1.0161 -1.5371
 7579TIP3   OH244151   5.112   6.422  14.743  0.3998 -0.6721  0.5378
 7579TIP3    H144152   5.020   6.422  14.717  0.5065  0.5830  0.1098
 7579TIP3    H244153   5.141   6.333  14.726 -0.8299 -1.2131  1.0677
 7580TIP3   OH244154   2.096   1.479   4.888  0.1203  0.5720 -0.5612
 7580TIP3    H144155   2.153   1.411   4.923 -4.2390 -2.7137  0.9976
 7580TIP3    H244156   2.082   1.539   4.962  0.4630  0.6420 -0.5504
 7581TIP3   OH244157   3.827   6.303   2.771  0.0678  0.0726 -0.3167
 7581TIP3    H144158   3.829   6.367   2.700 -0.5559  0.7028  0.2117
 7581TIP3    H244159   3.909   6.317   2.819  0.6458 -0.5820 -1.0936
 7582TIP3   OH244160   0.432   1.436   2.011  0.4602 -0.2303 -0.0672
 7582TIP3    H144161   0.492   1.375   1.968 -0.1978 -0.5035 -0.6030
 7582TIP3    H244162   0.485   1.475   2.081  1.1526 -0.7469 -0.2870
 7583TIP3   OH244163   1.931   3.583   0.307  0.1080 -0.0906  0.2293
 7583TIP3    H144164   1.862   3.627   0.257 -0.1059  0.2206  0.7868
 7583TIP3    H244165   1.989   3.546   0.241 -0.4902 -0.1925 -0.2483
 7584TIP3   OH244166   1.612   2.890  11.313  0.2645  0.1682  0.0054
 7584TIP3    H144167   1.666   2.893  11.235  0.8367 -1.0668  0.3267
 7584TIP3    H244168   1.670   2.858  11.382 -0.7762 -0.8608  0.4408
 7585TIP3   OH244169   5.966   2.577   0.608  0.3489 -0.3180  0.6677
 7585TIP3    H144170   6.042   2.555   0.661  0.0036 -0.0145  1.3051
 7585TIP3    H244171   5.924   2.649   0.655  0.4656  0.4974 -0.4266
 7586TIP3   OH244172   5.513   1.312   5.438  0.0752 -0.5317  0.3114
 7586TIP3    H144173   5.478   1.312   5.527  1.0215  1.2456  0.7134
 7586TIP3    H244174   5.602   1.345   5.447 -0.2059  0.8501 -1.4268
 7587TIP3   OH244175   5.503   3.823  13.087  0.0132  0.1485  0.5123
 7587TIP3    H144176   5.490   3.875  13.166  0.8035  1.2028 -0.0164
 7587TIP3    H244177   5.586   3.777  13.102  0.9815  1.5395 -0.2688
 7588TIP3   OH244178   2.356   4.604  16.245 -0.1938 -0.1186  0.2419
 7588TIP3    H144179   2.266   4.631  16.225  0.4044  2.2990  0.5604
 7588TIP3    H244180   2.401   4.609  16.160 -0.3052 -1.2996  0.0886
 7589TIP3   OH244181   2.480   3.258  12.019 -0.1368 -0.0222 -0.1511
 7589TIP3    H144182   2.432   3.236  12.099  1.9371 -0.0474  1.1550
 7589TIP3    H244183   2.546   3.189  12.011  1.2369  1.2862 -0.5287
 7590TIP3   OH244184   5.129   4.094  11.936  0.2983  0.4350 -0.4262
 7590TIP3    H144185   5.090   4.058  11.857 -0.5212  0.7415 -0.1645
 7590TIP3    H244186   5.092   4.182  11.944 -1.1755 -0.2744  1.3540
 7591TIP3   OH244187   1.426   4.336   1.568  0.3036 -0.1573  0.4158
 7591TIP3    H144188   1.502   4.294   1.609  1.1351  1.7414  0.9501
 7591TIP3    H244189   1.449   4.340   1.475  0.2487 -0.7874  0.3707
 7592TIP3   OH244190   3.295   3.751   0.314 -0.3347  0.5447  0.2585
 7592TIP3    H144191   3.243   3.822   0.351  0.7809  0.7666  1.4798
 7592TIP3    H244192   3.382   3.790   0.302  0.4855 -0.7866  1.6126
 7593TIP3   OH244193   4.995   2.508   3.623 -0.1763 -0.4199  0.1068
 7593TIP3    H144194   4.940   2.561   3.681  1.0425 -0.1616  1.0658
 7593TIP3    H244195   4.981   2.418   3.652 -0.0933 -0.3548  0.3508
 7594TIP3   OH244196   6.004   5.379  13.684 -0.1655 -0.4788 -0.1826
 7594TIP3    H144197   6.053   5.363  13.603  0.1231 -0.5336  0.0040
 7594TIP3    H244198   5.983   5.472  13.681 -0.6320 -0.5916 -0.5869
 7595TIP3   OH244199   3.938   4.474   3.484  0.3764  0.1960  0.3594
 7595TIP3    H144200   3.992   4.422   3.544  1.4779  1.6088  0.6466
 7595TIP3    H244201   3.849   4.462   3.515  0.7769 -0.2766  1.3652
 7596TIP3   OH244202   6.524   6.224  13.277  0.5316  0.7307 -0.4690
 7596TIP3    H144203   6.573   6.211  13.359  1.2783 -0.4189 -1.0808
 7596TIP3    H244204   6.576   6.288  13.228  0.7701  0.4415 -0.5943
 7597TIP3   OH244205   3.037   3.882  12.426 -0.1014 -0.0398  0.6128
 7597TIP3    H144206   2.977   3.826  12.378  0.2346 -0.9351  1.2231
 7597TIP3    H244207   3.045   3.961  12.371  0.9869 -1.3827 -1.2809
 7598TIP3   OH244208   0.456   3.261   6.250 -0.5106  0.1665  0.9909
 7598TIP3    H144209   0.363   3.281   6.260 -0.6639 -0.3718  0.6965
 7598TIP3    H244210   0.461   3.166   6.258  0.2045  0.2929  2.3930
 7599TIP3   OH244211   0.039   6.118  12.310 -0.3434  0.4938 -0.4742
 7599TIP3    H144212   0.092   6.194  12.289  1.9510 -0.6199  0.8747
 7599TIP3    H244213  -0.011   6.144  12.388  1.5408  0.2295  0.8909
 7600TIP3   OH244214   5.808   6.465  14.300  0.2465 -0.6063  0.2214
 7600TIP3    H144215   5.862   6.450  14.223  0.6479 -1.9740  0.7395
 7600TIP3    H244216   5.800   6.560  14.306  1.1295 -0.4466 -0.8711
 7601TIP3   OH244217   4.573   5.885   4.370 -0.2761  0.2468 -0.1150
 7601TIP3    H144218   4.669   5.878   4.369 -0.3269 -0.5651 -0.9882
 7601TIP3    H244219   4.552   5.917   4.457  0.6166 -2.5402  1.2351
 7602TIP3   OH244220   4.389   0.158  11.440 -0.2365  0.3449  0.1101
 7602TIP3    H144221   4.299   0.189  11.446  0.1078  1.3149  0.4359
 7602TIP3    H244222   4.419   0.187  11.354  0.3268  1.6426  0.7104
 7603TIP3   OH244223   6.305   6.744  14.202  0.2167  0.3006  0.1370
 7603TIP3    H144224   6.222   6.697  14.196 -0.0535  0.8912 -1.3115
 7603TIP3    H244225   6.297   6.800  14.278 -1.1362  1.1042 -0.5687
 7604TIP3   OH244226   5.770   0.897   3.838 -0.3643  0.1690 -0.0157
 7604TIP3    H144227   5.781   0.921   3.930 -1.5866  1.6051 -0.1960
 7604TIP3    H244228   5.697   0.835   3.837 -0.0051 -0.2597  0.0237
 7605TIP3   OH244229   3.941   2.092  11.313  0.6975 -0.5624 -0.1148
 7605TIP3    H144230   3.980   2.152  11.250  0.6117 -1.1804 -0.7648
 7605TIP3    H244231   3.846   2.100  11.299  0.6776 -0.6801 -0.0513
 7606TIP3   OH244232   1.615   4.166   4.815  0.0835 -0.5114  0.4566
 7606TIP3    H144233   1.694   4.219   4.804 -1.0740  1.2409  0.1654
 7606TIP3    H244234   1.643   4.077   4.793  1.5756  0.3352 -1.3391
 7607TIP3   OH244235   4.359   0.855   3.987  0.1969 -0.1726  0.6002
 7607TIP3    H144236   4.340   0.764   3.966 -0.7208 -0.5834  2.9287
 7607TIP3    H244237   4.273   0.896   4.000  0.6117  0.9100  0.1377
 7608TIP3   OH244238   4.917   5.370  11.464  0.1533  0.5239 -0.1364
 7608TIP3    H144239   4.884   5.317  11.391 -2.0420  0.2109  0.9947
 7608TIP3    H244240   4.901   5.317  11.541  3.9260  0.1505  0.5552
 7609TIP3   OH244241   2.511   5.820   0.458 -0.5540 -0.0311 -0.6289
 7609TIP3    H144242   2.542   5.882   0.525 -0.0553 -1.1104  0.1728
 7609TIP3    H244243   2.425   5.854   0.433 -0.3714  0.8864 -0.0774
 7610TIP3   OH244244   2.044   5.507  13.963 -0.2648 -0.5494 -0.2574
 7610TIP3    H144245   2.134   5.500  13.995  0.5403 -0.6223 -2.3723
 7610TIP3    H244246   2.002   5.567  14.024  1.7235  0.9106 -0.1969
 7611TIP3   OH244247   4.737   2.590  11.119 -0.4931  0.2110 -0.4754
 7611TIP3    H144248   4.778   2.510  11.088  0.5006  0.1766  0.8696
 7611TIP3    H244249   4.791   2.661  11.082  0.7535  0.1686  1.1541
 7612TIP3   OH244250   5.132   0.391  12.148 -0.2364  0.4177  0.5459
 7612TIP3    H144251   5.154   0.370  12.057 -1.8169  1.2327 -0.0730
 7612TIP3    H244252   5.216   0.408  12.190  0.7848 -2.6128 -0.0090
 7613TIP3   OH244253   1.781   0.755   0.401 -0.9234  0.2487  0.0593
 7613TIP3    H144254   1.875   0.773   0.397 -0.9080 -0.0511 -1.3363
 7613TIP3    H244255   1.740   0.840   0.388 -0.8293  0.0408 -1.8628
 7614TIP3   OH244256   6.646   6.590  15.453 -0.1286 -0.7166 -0.5349
 7614TIP3    H144257   6.686   6.627  15.375  2.0799 -1.8968 -0.0377
 7614TIP3    H244258   6.602   6.665  15.495 -0.0453  0.2349 -2.0775
 7615TIP3   OH244259   3.378   2.425   1.086 -1.1137  0.5848 -0.0250
 7615TIP3    H144260   3.294   2.444   1.128 -0.9697  0.2124  0.4372
 7615TIP3    H244261   3.375   2.330   1.069  0.0815  0.1456  1.9452
 7616TIP3   OH244262   0.915   0.788   6.145  0.2164 -0.2559 -0.5997
 7616TIP3    H144263   0.967   0.845   6.201  0.0705  0.5942 -1.3004
 7616TIP3    H244264   0.846   0.755   6.202 -1.4313  2.5623 -0.7623
 7617TIP3   OH244265   2.056   3.978   3.226  0.2226 -0.4355 -0.3783
 7617TIP3    H144266   2.103   4.043   3.174  0.0999  1.8463  2.1367
 7617TIP3    H244267   1.964   3.994   3.209  0.0460  2.0549  2.2154
 7618TIP3   OH244268   4.950   0.372   1.764  0.3738  0.2367 -0.0393
 7618TIP3    H144269   4.944   0.421   1.683 -1.6985 -0.0240 -0.1064
 7618TIP3    H244270   4.925   0.434   1.832 -0.9145 -0.3178  0.0248
 7619TIP3   OH244271   1.382   2.433   5.072 -0.0512  0.0212 -0.1602
 7619TIP3    H144272   1.311   2.470   5.124  0.3918  0.3025  0.2615
 7619TIP3    H244273   1.350   2.434   4.982  0.0547  1.7623 -0.2167
 7620TIP3   OH244274   4.255   3.942   0.440 -0.4632  0.4402  0.1183
 7620TIP3    H144275   4.190   3.903   0.380 -0.3156  0.8705 -0.3293
 7620TIP3    H244276   4.320   3.980   0.382 -1.0208  2.0777  0.5303
 7621TIP3   OH244277   6.361   1.966  13.127 -0.1554 -0.2603 -0.0397
 7621TIP3    H144278   6.457   1.972  13.125 -0.1574 -0.3656 -0.9987
 7621TIP3    H244279   6.336   1.958  13.035 -1.2050  1.5514  0.0522
 7622TIP3   OH244280   0.867   5.538  17.038 -0.3057 -0.2060 -0.1773
 7622TIP3    H144281   0.887   5.579  16.954  0.1883  0.2848  0.1756
 7622TIP3    H244282   0.904   5.597  17.103 -1.0632 -0.3642  0.4096
 7623TIP3   OH244283   4.794   1.929  15.500 -0.1876  0.2945  0.1229
 7623TIP3    H144284   4.805   1.923  15.594  0.2358  0.4328  0.0832
 7623TIP3    H244285   4.702   1.954  15.488 -0.6039 -1.0068  0.4484
 7624TIP3   OH244286   0.337   2.055   5.745  0.7025 -0.5029 -0.2347
 7624TIP3    H144287   0.308   1.978   5.794 -0.0097 -0.3165 -0.3509
 7624TIP3    H244288   0.345   2.124   5.811 -1.1995  0.0075 -0.4917
 7625TIP3   OH244289   4.882   1.432  16.389  0.5607  0.0933  0.0813
 7625TIP3    H144290   4.851   1.343  16.374  1.1732 -0.1726  0.3627
 7625TIP3    H244291   4.955   1.443  16.326 -0.4967  0.9424 -1.0525
 7626TIP3   OH244292   3.526   0.699  11.003  0.3434  0.3732 -0.0919
 7626TIP3    H144293   3.509   0.678  10.911  1.8081 -0.1379 -0.2758
 7626TIP3    H244294   3.444   0.737  11.035 -1.0353 -1.7826 -0.9003
 7627TIP3   OH244295   6.390   0.578  10.464 -0.2033 -0.2811 -0.0126
 7627TIP3    H144296   6.474   0.535  10.479 -0.1233 -1.4512 -3.0844
 7627TIP3    H244297   6.325   0.516  10.496  0.0401  0.3056  1.6936
 7628TIP3   OH244298   4.546   3.811  13.289 -0.0883  0.6466 -0.4347
 7628TIP3    H144299   4.484   3.881  13.266 -0.4372  0.5234  0.1250
 7628TIP3    H244300   4.514   3.777  13.372  0.2300 -0.0155 -0.5805
 7629TIP3   OH244301   0.678   5.506  11.098  0.0696  0.0273  0.5293
 7629TIP3    H144302   0.672   5.596  11.065  1.4504  0.6601  1.8730
 7629TIP3    H244303   0.612   5.503  11.168  0.5865  0.2748  1.0373
 7630TIP3   OH244304   6.242   5.458   6.221 -0.0586  0.0690 -0.3848
 7630TIP3    H144305   6.164   5.476   6.274 -1.0053  0.4230 -1.8459
 7630TIP3    H244306   6.315   5.466   6.282 -1.2258 -1.3111  1.2622
 7631TIP3   OH244307   1.256   2.083   5.123 -0.0083  0.0996 -0.1017
 7631TIP3    H144308   1.345   2.081   5.159  0.3124  1.2525 -0.7680
 7631TIP3    H244309   1.201   2.113   5.196  0.3699  0.7369 -0.0691
 7632TIP3   OH244310   2.244   4.514   0.312  0.1050  0.1043 -0.3127
 7632TIP3    H144311   2.214   4.491   0.400  0.5942 -0.0467 -0.1792
 7632TIP3    H244312   2.338   4.497   0.314 -0.2567 -2.5147 -1.7019
 7633TIP3   OH244313   0.803   4.569   4.473 -0.0535  0.1737 -0.9391
 7633TIP3    H144314   0.842   4.482   4.480  1.9622  0.9270 -2.0223
 7633TIP3    H244315   0.716   4.554   4.437 -0.5654 -1.5226  0.8348
 7634TIP3   OH244316   6.770   5.778  15.744 -0.4062 -0.2400 -0.0268
 7634TIP3    H144317   6.824   5.703  15.769 -1.0102 -0.7813 -0.3379
 7634TIP3    H244318   6.710   5.789  15.818 -0.3125 -0.0497  0.0220
 7635TIP3   OH244319   2.405   1.510  15.617  0.5471 -0.0851 -0.1721
 7635TIP3    H144320   2.396   1.415  15.608  0.6810 -0.1553  0.3842
 7635TIP3    H244321   2.499   1.526  15.614  0.6829 -0.2263  1.9561
 7636TIP3   OH244322   0.975   3.476   5.657  0.6134 -0.1458 -0.3433
 7636TIP3    H144323   0.902   3.437   5.705  0.8345 -0.7943 -0.5119
 7636TIP3    H244324   1.051   3.464   5.715  1.2833 -2.7296 -1.5992
 7637TIP3   OH244325   2.938   2.599  14.742 -0.3529  0.3499 -0.9571
 7637TIP3    H144326   2.930   2.604  14.837 -0.5875 -0.8128 -0.9000
 7637TIP3    H244327   2.852   2.567  14.713 -0.2375  0.5683 -1.5471
 7638TIP3   OH244328   6.786   3.833   4.424 -0.4303 -0.8146 -0.0305
 7638TIP3    H144329   6.774   3.924   4.395 -0.1146 -0.6247  0.4204
 7638TIP3    H244330   6.806   3.840   4.518  1.3022 -1.2302 -0.3421
 7639TIP3   OH244331   2.348   1.661   2.116  0.1694 -0.1068 -0.1352
 7639TIP3    H144332   2.342   1.604   2.039  1.5674  1.8205 -1.7968
 7639TIP3    H244333   2.400   1.611   2.179 -1.6966 -2.0620 -0.0333
 7640TIP3   OH244334   5.870   0.511   6.373 -0.1845  0.0876  0.0848
 7640TIP3    H144335   5.850   0.428   6.417  1.2601  0.0105  0.6395
 7640TIP3    H244336   5.965   0.509   6.360 -0.3501  0.8737 -1.5148
 7641TIP3   OH244337   6.767   2.348   3.157  0.8805  0.2440  0.2818
 7641TIP3    H144338   6.788   2.407   3.230 -0.6712  0.4644  0.5807
 7641TIP3    H244339   6.791   2.261   3.190 -0.8450  0.1897  1.5408
 7642TIP3   OH244340   5.768   1.714  13.459  0.1023 -0.0551 -0.1014
 7642TIP3    H144341   5.783   1.806  13.481 -0.1635 -0.5106  2.2223
 7642TIP3    H244342   5.672   1.706  13.459 -0.0192 -1.1120  4.0036
 7643TIP3   OH244343   5.033   4.709  16.771 -0.2857 -0.3395  0.1784
 7643TIP3    H144344   5.098   4.741  16.710  0.2240  1.6827  1.6765
 7643TIP3    H244345   4.949   4.740  16.736 -0.4789 -2.3292 -1.3578
 7644TIP3   OH244346   1.593   5.098   4.545 -0.1060  0.2224 -0.1628
 7644TIP3    H144347   1.536   5.112   4.470  1.3719  1.3839 -1.1457
 7644TIP3    H244348   1.644   5.179   4.551  0.3344 -0.1455  1.6411
 7645TIP3   OH244349   3.479   2.370  14.170  0.1392  0.5942  0.1605
 7645TIP3    H144350   3.423   2.292  14.178  2.2343 -0.9928  0.1128
 7645TIP3    H244351   3.553   2.341  14.117  0.1648  3.1422 -1.3397
 7646TIP3   OH244352   1.946   4.385  17.064  0.1134  0.0094  0.4242
 7646TIP3    H144353   1.968   4.456  17.124 -2.1535  1.9162 -0.8200
 7646TIP3    H244354   1.926   4.311  17.121  0.2524  1.0642  1.9090
 7647TIP3   OH244355   0.673   1.836   4.704 -0.1108 -0.8935 -0.2322
 7647TIP3    H144356   0.644   1.770   4.642  0.6042 -0.3359 -1.1849
 7647TIP3    H244357   0.598   1.895   4.713  0.0537 -0.5055 -1.2366
 7648TIP3   OH244358   6.459   3.780  12.994 -0.2089  0.7824 -0.4732
 7648TIP3    H144359   6.385   3.819  12.948  0.1531 -0.5181 -2.2866
 7648TIP3    H244360   6.514   3.855  13.018 -0.3383  1.5516 -2.3610
 7649TIP3   OH244361   0.087   3.230   5.987  0.2268  0.0990 -0.3948
 7649TIP3    H144362   0.100   3.244   5.893 -0.2858  0.0062 -0.4823
 7649TIP3    H244363  -0.006   3.209   5.995  0.2727  0.0965  0.1339
 7650TIP3   OH244364   1.538   4.040  15.738  0.4155 -0.6355  0.1420
 7650TIP3    H144365   1.584   3.971  15.691  3.4184  0.2732  1.4834
 7650TIP3    H244366   1.507   3.998  15.818 -0.7416 -1.1374 -0.5421
 7651TIP3   OH244367   0.411   0.321  10.794 -0.2981 -0.9267  0.3398
 7651TIP3    H144368   0.361   0.365  10.863 -0.5406 -0.5684 -0.0583
 7651TIP3    H244369   0.410   0.382  10.721  1.1631 -0.7046  0.4819
 7652TIP3   OH244370   4.957   3.317   4.782 -0.4312 -0.1898 -0.7967
 7652TIP3    H144371   4.998   3.268   4.710 -0.8109 -1.7131 -0.0200
 7652TIP3    H244372   5.010   3.295   4.859 -1.5610 -0.6869 -0.1399
 7653TIP3   OH244373   4.055   5.382  16.576 -0.4595 -0.3040  0.5579
 7653TIP3    H144374   4.031   5.410  16.664 -0.3598 -0.6638  0.7022
 7653TIP3    H244375   4.144   5.346  16.586  0.0239  0.7340  0.0931
 7654TIP3   OH244376   3.312   6.470  13.514 -0.0405 -0.0907 -0.2200
 7654TIP3    H144377   3.322   6.443  13.422  2.1914 -2.4755  0.5907
 7654TIP3    H244378   3.359   6.553  13.520 -1.2830  0.7558 -1.4286
 7655TIP3   OH244379   3.404   3.413   2.370 -0.3834  0.1257 -0.1625
 7655TIP3    H144380   3.476   3.353   2.353  0.3445  0.3448  1.8815
 7655TIP3    H244381   3.339   3.392   2.303  1.2691 -0.5593 -1.6145
 7656TIP3   OH244382   2.123   2.156  15.280 -0.0405  0.2466  0.2925
 7656TIP3    H144383   2.129   2.061  15.279 -1.5035  0.1279  0.2297
 7656TIP3    H244384   2.166   2.184  15.199 -0.0752 -0.3908  0.0517
 7657TIP3   OH244385   3.195   3.995  15.181  0.2020  0.1055  0.0132
 7657TIP3    H144386   3.107   4.003  15.219  0.2633  0.6419  0.0582
 7657TIP3    H244387   3.185   3.935  15.108 -0.6248  1.6797 -1.2204
 7658TIP3   OH244388   2.873   4.038   5.915 -1.1555  0.2362 -0.0466
 7658TIP3    H144389   2.871   3.994   6.000 -1.2257  0.2857 -0.0224
 7658TIP3    H244390   2.961   4.024   5.882 -0.3529  2.2345  1.0781
 7659TIP3   OH244391   3.628   1.027  11.900  0.1872  0.2054  0.1188
 7659TIP3    H144392   3.603   1.095  11.962 -0.4821 -0.2519  0.3620
 7659TIP3    H244393   3.670   1.074  11.829  0.0709  0.8379  0.4584
 7660TIP3   OH244394   0.103   0.390  15.047 -0.2622 -0.6814 -0.3369
 7660TIP3    H144395   0.090   0.474  15.002 -2.0613  0.2940  1.8276
 7660TIP3    H244396   0.028   0.337  15.019 -0.9982 -0.3184  0.8850
 7661TIP3   OH244397   5.000   3.814  16.250  0.0403  0.1963 -0.3645
 7661TIP3    H144398   4.988   3.724  16.281  1.3245 -0.3552 -1.3335
 7661TIP3    H244399   5.069   3.849  16.306 -0.6157  0.6638  0.1586
 7662TIP3   OH244400   0.087   5.410  14.617 -0.3602 -0.4379  0.4595
 7662TIP3    H144401   0.107   5.476  14.550  1.1256  0.8141  2.0303
 7662TIP3    H244402   0.080   5.328  14.569 -1.7441  0.7420 -1.5120
 7663TIP3   OH244403   2.048   0.567   1.730  0.4797  0.1046  0.3416
 7663TIP3    H144404   2.071   0.656   1.705  0.8452  0.6534  2.4405
 7663TIP3    H244405   1.970   0.576   1.785  0.0575 -0.9631 -0.0368
 7664TIP3   OH244406   2.863   3.399  12.781 -0.1044  0.2919  0.3040
 7664TIP3    H144407   2.925   3.328  12.768  1.6160  2.0993 -2.3115
 7664TIP3    H244408   2.780   3.364  12.745  0.0490 -1.1490  1.2474
 7665TIP3   OH244409   0.093   2.071  12.541 -0.4096 -0.5929 -0.8125
 7665TIP3    H144410   0.109   2.051  12.633 -0.1171 -2.4040 -1.2293
 7665TIP3    H244411   0.087   2.167  12.538 -0.4917 -0.5064  1.0848
 7666TIP3   OH244412   2.677   0.666   5.655  0.0778  0.3164 -0.5180
 7666TIP3    H144413   2.620   0.733   5.616 -1.9438 -0.4717  0.8902
 7666TIP3    H244414   2.636   0.583   5.630  0.2642 -0.2608  0.9794
 7667TIP3   OH244415   0.184   2.297  10.981  0.2339 -0.7101  0.5861
 7667TIP3    H144416   0.145   2.310  10.894  0.3059 -0.0190  0.6497
 7667TIP3    H244417   0.143   2.217  11.014  0.3384 -1.0786 -0.1570
 7668TIP3   OH244418   5.774   0.219  13.836 -0.1468 -0.1425  0.4540
 7668TIP3    H144419   5.697   0.270  13.811 -0.0042  0.6545  1.6236
 7668TIP3    H244420   5.799   0.174  13.755 -1.3887  0.1667 -0.1273
 7669TIP3   OH244421   0.310   3.839   5.041 -0.0069 -0.1994 -0.0206
 7669TIP3    H144422   0.292   3.778   4.969 -2.4620  0.5835 -0.1370
 7669TIP3    H244423   0.350   3.784   5.108  2.4739 -0.9430 -1.9193
 7670TIP3   OH244424   2.631   2.480   0.793  0.8849  0.0857  0.1837
 7670TIP3    H144425   2.568   2.413   0.820  2.1316 -0.4230  2.0339
 7670TIP3    H244426   2.706   2.431   0.760  0.2987  0.6896 -2.2627
 7671TIP3   OH244427   3.666   3.857  11.036  0.4463 -0.0670 -0.0870
 7671TIP3    H144428   3.700   3.788  10.979 -1.4764 -1.5366  0.4198
 7671TIP3    H244429   3.735   3.871  11.101  2.2625  0.9522 -2.1297
 7672TIP3   OH244430   2.239   4.024  11.907  0.2238  0.4385  0.6478
 7672TIP3    H144431   2.199   4.055  11.988 -0.3154 -0.9363  0.9400
 7672TIP3    H244432   2.328   4.000  11.933 -0.7347 -2.5748  1.5501
 7673TIP3   OH244433   0.307   6.516   2.247  0.4678  0.1010 -0.1196
 7673TIP3    H144434   0.399   6.532   2.227  0.7055  1.5118  1.7260
 7673TIP3    H244435   0.308   6.476   2.334 -0.6490  2.0845  0.9029
 7674TIP3   OH244436   4.993   1.055  11.928 -0.0525 -0.1517 -0.1126
 7674TIP3    H144437   4.973   0.961  11.933 -0.5297 -0.1359 -1.3341
 7674TIP3    H244438   4.929   1.089  11.865  0.1227  0.9954  0.3190
 7675TIP3   OH244439   1.792   4.497  13.952  0.1918  0.0973  0.1583
 7675TIP3    H144440   1.854   4.521  14.020  1.0768  0.2103 -0.6771
 7675TIP3    H244441   1.829   4.532  13.872 -0.7058 -0.2603 -0.4280
 7676TIP3   OH244442   4.846   1.893  15.777 -0.2728  0.2090  0.4293
 7676TIP3    H144443   4.890   1.880  15.861  0.2908 -2.2001 -0.1860
 7676TIP3    H244444   4.805   1.809  15.757 -0.1006  0.5937 -1.8812
 7677TIP3   OH244445   0.167   4.971  14.879  0.1327 -0.3027 -0.4034
 7677TIP3    H144446   0.111   5.037  14.838 -2.2942 -2.6308 -1.0935
 7677TIP3    H244447   0.234   5.022  14.925  0.6469  2.5369 -3.8768
 7678TIP3   OH244448   4.657   2.099  11.662 -0.1591 -0.0624  0.1196
 7678TIP3    H144449   4.628   2.110  11.571  0.3076  2.4522  0.2022
 7678TIP3    H244450   4.753   2.094  11.656 -0.1673 -0.6401  0.4280
 7679TIP3   OH244451   3.140   3.349  15.721 -0.3649  0.9911  0.2702
 7679TIP3    H144452   3.147   3.256  15.701 -0.6095  0.4983  2.2911
 7679TIP3    H244453   3.215   3.389  15.676  1.4320 -0.6264  1.7174
 7680TIP3   OH244454   5.893   5.235  10.620 -0.0532  0.2673  0.4338
 7680TIP3    H144455   5.869   5.274  10.536 -0.4110  0.8771  0.8105
 7680TIP3    H244456   5.842   5.155  10.625 -0.6237  0.6202  0.4053
 7681TIP3   OH244457   4.901   4.473   0.870 -0.0512  0.2803 -0.4579
 7681TIP3    H144458   4.941   4.539   0.926  2.0613 -0.6315 -0.8009
 7681TIP3    H244459   4.897   4.515   0.784  0.9498  0.1118 -0.5972
 7682TIP3   OH244460   0.093   1.550  13.882 -0.8163  0.3693 -0.0394
 7682TIP3    H144461   0.116   1.457  13.870 -0.3549  0.4161  0.4468
 7682TIP3    H244462   0.168   1.597  13.846  1.5991  0.5322  4.4252
 7683TIP3   OH244463   3.706   5.480   4.953 -0.1714  0.1114 -0.6504
 7683TIP3    H144464   3.801   5.475   4.956 -0.1269  1.1764  0.3340
 7683TIP3    H244465   3.687   5.563   4.911 -0.6814 -0.2816 -1.2116
 7684TIP3   OH244466   5.081   6.017  15.898  0.3467  0.4680 -0.9001
 7684TIP3    H144467   5.068   6.110  15.916 -0.0939 -0.0691  2.1158
 7684TIP3    H244468   5.121   6.015  15.811  2.0097  3.5530 -0.3595
 7685TIP3   OH244469   1.915   6.275   1.979 -0.2634 -0.0743  0.2323
 7685TIP3    H144470   1.973   6.206   2.009 -0.9389 -1.8213 -2.1366
 7685TIP3    H244471   1.860   6.295   2.054  0.2823 -1.7740  1.1332
 7686TIP3   OH244472   1.969   5.860  11.517  0.2207  0.8135  0.8117
 7686TIP3    H144473   2.039   5.802  11.547  0.3587  0.1663 -0.7213
 7686TIP3    H244474   1.907   5.861  11.590  0.9115 -0.0939  1.4388
 7687TIP3   OH244475   5.820   1.924   2.779  0.1200  0.7159  0.2543
 7687TIP3    H144476   5.884   1.908   2.710 -2.3853  1.8119 -2.5232
 7687TIP3    H244477   5.762   1.848   2.776 -0.8297  1.4281  0.1328
 7688TIP3   OH244478   5.281   1.918   3.423  0.2053  0.3486  0.6261
 7688TIP3    H144479   5.369   1.882   3.433 -0.3369 -0.5751  2.5361
 7688TIP3    H244480   5.234   1.855   3.369  0.8502  1.2014 -1.0286
 7689TIP3   OH244481   2.372   0.571   5.016  0.5901 -1.0002 -0.4596
 7689TIP3    H144482   2.451   0.598   5.063 -0.5035  1.9211 -0.1252
 7689TIP3    H244483   2.356   0.640   4.952 -2.6826 -0.4657  0.7149
 7690TIP3   OH244484   2.676   2.906  16.063  0.3239  0.1390  0.5862
 7690TIP3    H144485   2.686   3.001  16.076 -0.7473  0.5645 -1.3186
 7690TIP3    H244486   2.683   2.895  15.968  0.5407 -1.7271  0.7961
 7691TIP3   OH244487   4.881   3.306  12.124  0.3224  0.4366 -0.3328
 7691TIP3    H144488   4.870   3.389  12.077 -0.1969  0.1537 -0.7267
 7691TIP3    H244489   4.794   3.289  12.161  0.2747 -0.2192 -0.7426
 7692TIP3   OH244490   5.880   4.961  12.408  0.0438  0.1356 -0.2913
 7692TIP3    H144491   5.815   5.006  12.354 -0.0894 -0.4149 -0.5987
 7692TIP3    H244492   5.832   4.890  12.451  0.5562 -0.7160 -1.0645
 7693TIP3   OH244493   1.798   2.765  11.479  0.3598  0.2172 -0.0486
 7693TIP3    H144494   1.875   2.709  11.480  0.3554  0.2064 -0.2046
 7693TIP3    H244495   1.748   2.738  11.556  0.0126 -0.4918 -0.5029
 7694TIP3   OH244496   0.555   1.047   3.728  0.3239  0.0820 -0.3815
 7694TIP3    H144497   0.492   1.088   3.668  1.7189 -0.2425 -2.1692
 7694TIP3    H244498   0.626   1.110   3.735  0.9651 -0.6113 -0.4899
 7695TIP3   OH244499   5.247   4.207   5.634  0.6174 -0.6530 -0.3536
 7695TIP3    H144500   5.158   4.173   5.623  0.7742 -1.0462 -0.4397
 7695TIP3    H244501   5.285   4.151   5.701 -0.0799  1.2528  1.7526
 7696TIP3   OH244502   3.389   3.669  11.366 -0.0123  0.5150 -0.1788
 7696TIP3    H144503   3.377   3.757  11.332 -0.2658  0.4592 -0.2390
 7696TIP3    H244504   3.484   3.654  11.363  0.0563  0.8965  0.1237
 7697TIP3   OH244505   5.613   2.462  15.387 -0.4520 -0.0003  0.0288
 7697TIP3    H144506   5.643   2.523  15.454 -0.9293 -0.0943  0.3344
 7697TIP3    H244507   5.682   2.462  15.322  1.7379 -2.4989  2.1141
 7698TIP3   OH244508   3.786   0.188   4.194 -0.0483 -0.3472 -0.2594
 7698TIP3    H144509   3.749   0.106   4.161 -0.9993  0.0663 -0.2344
 7698TIP3    H244510   3.711   0.235   4.230  0.6187  0.1947  0.4366
 7699TIP3   OH244511   5.965   3.562   4.671 -0.5124  0.6431  0.0589
 7699TIP3    H144512   6.055   3.536   4.653 -0.7285 -0.0095 -0.1350
 7699TIP3    H244513   5.918   3.545   4.589 -1.0074 -0.0036  0.4543
 7700TIP3   OH244514   2.560   6.454   6.323  0.2300  0.1606 -0.3468
 7700TIP3    H144515   2.546   6.540   6.361  0.4496  0.0275  0.0396
 7700TIP3    H244516   2.480   6.405   6.344  0.7817 -0.2493  0.8910
 7701TIP3   OH244517   2.673   0.317   4.902  0.1804 -0.0370  0.0232
 7701TIP3    H144518   2.668   0.337   4.808  1.0024  1.4711  0.2849
 7701TIP3    H244519   2.709   0.228   4.905 -1.7794 -0.9392 -1.1218
 7702TIP3   OH244520   0.426   1.569  16.137  0.6209  0.0887 -0.1219
 7702TIP3    H144521   0.506   1.520  16.118 -0.0869 -0.9812 -0.4446
 7702TIP3    H244522   0.357   1.502  16.142 -0.0435  0.8400  1.5133
 7703TIP3   OH244523   5.696   3.305  13.227 -0.2212 -0.2712  0.2652
 7703TIP3    H144524   5.711   3.228  13.282  0.5361 -0.2370  0.1081
 7703TIP3    H244525   5.601   3.318  13.231 -0.3195 -1.0141  0.5552
 7704TIP3   OH244526   6.217   5.604  16.376 -0.1782 -0.6339  0.0693
 7704TIP3    H144527   6.244   5.615  16.285 -0.8302 -0.4085 -0.1085
 7704TIP3    H244528   6.287   5.554  16.417  0.5798  0.0932 -0.3186
 7705TIP3   OH244529   0.215   6.619   3.586  0.5236 -0.3418  0.6704
 7705TIP3    H144530   0.249   6.687   3.528  0.9997  0.8265  2.2486
 7705TIP3    H244531   0.242   6.537   3.545  1.0033  0.4383 -0.6500
 7706TIP3   OH244532   1.472   1.457   4.381 -0.5582 -0.1200 -0.2029
 7706TIP3    H144533   1.388   1.477   4.339 -0.6294  1.0870  0.4576
 7706TIP3    H244534   1.538   1.490   4.319 -0.6108  0.1367 -0.1226
 7707TIP3   OH244535   0.023   3.686   3.879  0.1583 -0.5331 -0.0550
 7707TIP3    H144536  -0.064   3.702   3.843 -0.5748 -1.0888  1.3752
 7707TIP3    H244537   0.039   3.760   3.939  1.1069  0.0805 -1.0332
 7708TIP3   OH244538   5.409   2.557   4.668 -0.2578  0.3315 -0.4358
 7708TIP3    H144539   5.455   2.474   4.662 -1.0326 -0.1258 -0.0733
 7708TIP3    H244540   5.318   2.534   4.686  0.1179  1.3137  3.6513
 7709TIP3   OH244541   3.716   1.146  17.117 -0.2048  0.5701  0.0308
 7709TIP3    H144542   3.704   1.237  17.145  0.3284  0.7783 -0.3900
 7709TIP3    H244543   3.763   1.105  17.189 -0.7929  0.5174  0.3931
 7710TIP3   OH244544   2.368   1.866  10.582  0.1248  0.0714  0.8130
 7710TIP3    H144545   2.420   1.869  10.502 -0.1430 -0.3656  0.6204
 7710TIP3    H244546   2.310   1.941  10.576 -0.5881 -0.5268  0.1212
 7711TIP3   OH244547   3.316   4.042  12.206  0.7011 -0.1865  0.3185
 7711TIP3    H144548   3.273   3.967  12.165 -1.2120  0.8913  0.2150
 7711TIP3    H244549   3.341   4.011  12.293  0.2048 -1.0212  0.1731
 7712TIP3   OH244550   2.225   1.171   3.245  0.4274  0.4833 -0.0127
 7712TIP3    H144551   2.131   1.183   3.257  0.0927  0.0368 -1.7973
 7712TIP3    H244552   2.263   1.256   3.266 -0.6714  1.4297 -1.6425
 7713TIP3   OH244553   5.250   6.581  16.157 -0.3164  0.3439  0.1965
 7713TIP3    H144554   5.307   6.505  16.155 -1.2080 -0.4757  2.4228
 7713TIP3    H244555   5.165   6.548  16.126  0.2175  1.4483 -2.6887
 7714TIP3   OH244556   5.719   1.060   0.741  0.5346 -0.0051 -0.4300
 7714TIP3    H144557   5.785   1.052   0.673  0.9974  1.0938 -0.1328
 7714TIP3    H244558   5.765   1.100   0.815 -0.4130  0.5946 -0.1476
 7715TIP3   OH244559   6.355   3.155  13.647  0.4559  0.1724  0.3431
 7715TIP3    H144560   6.288   3.120  13.706 -1.1424 -0.4613 -1.7446
 7715TIP3    H244561   6.338   3.249  13.643 -0.4329 -0.0110 -0.3085
 7716TIP3   OH244562   1.086   6.624   2.428 -0.2706  0.3138  0.1733
 7716TIP3    H144563   1.114   6.677   2.503 -0.3848 -0.9965  1.1837
 7716TIP3    H244564   1.135   6.542   2.438 -0.5386 -0.0033 -1.0157
 7717TIP3   OH244565   1.413   3.999   5.840  0.5256 -0.2880  0.1244
 7717TIP3    H144566   1.481   4.038   5.786 -0.9634 -1.0155 -2.4885
 7717TIP3    H244567   1.334   4.048   5.819  0.0115  0.0662  2.5191
 7718TIP3   OH244568   0.106   6.488   4.599  0.0355  0.4324  0.6084
 7718TIP3    H144569   0.110   6.583   4.608 -0.8000  0.5279  0.0337
 7718TIP3    H244570   0.167   6.469   4.527 -1.3746  0.7683 -0.7226
 7719TIP3   OH244571   5.370   3.589   3.043  0.5962 -0.1937 -0.6313
 7719TIP3    H144572   5.366   3.564   3.136  0.3376  0.6868 -0.3951
 7719TIP3    H244573   5.443   3.651   3.039 -0.1235  0.6533 -0.7945
 7720TIP3   OH244574   0.977   3.427   1.201 -0.1562  0.1416  0.0376
 7720TIP3    H144575   0.926   3.373   1.141 -0.4641  0.7249 -0.2281
 7720TIP3    H244576   1.040   3.366   1.240 -1.5815 -0.7801  0.9965
 7721TIP3   OH244577   4.871   2.117   0.287 -0.1843 -0.4775 -0.5550
 7721TIP3    H144578   4.784   2.127   0.248 -0.4540  0.9480  0.3535
 7721TIP3    H244579   4.922   2.189   0.250 -0.3904  0.7925  1.4568
 7722TIP3   OH244580   5.322   1.332   3.664  0.3422  0.0448  0.2675
 7722TIP3    H144581   5.262   1.390   3.711  0.2605  0.3371 -0.1948
 7722TIP3    H244582   5.275   1.307   3.585 -0.1812 -1.7572  1.0877
 7723TIP3   OH244583   4.826   1.524  14.485  0.2758  0.4504 -0.6708
 7723TIP3    H144584   4.754   1.544  14.545  0.1433  3.6772 -1.6729
 7723TIP3    H244585   4.878   1.458  14.531 -1.8393  0.0039  1.2763
 7724TIP3   OH244586   1.605   2.737   5.032  0.7088 -0.4158  0.0756
 7724TIP3    H144587   1.586   2.704   5.120  0.3787 -0.0745  0.1332
 7724TIP3    H244588   1.664   2.811   5.047 -1.2552  1.1974  0.1962
 7725TIP3   OH244589   0.785   3.087  15.201  0.0370 -0.0069 -0.2833
 7725TIP3    H144590   0.780   3.008  15.147  0.7040 -0.2492  0.0031
 7725TIP3    H244591   0.878   3.097  15.220  0.2144  1.8898 -1.8549
 7726TIP3   OH244592   5.821   6.685   0.093 -0.2230  0.2912  0.0914
 7726TIP3    H144593   5.906   6.701   0.134 -1.8868  2.1811  3.1824
 7726TIP3    H244594   5.788   6.773   0.072 -2.0508 -0.2573  0.4658
 7727TIP3   OH244595   2.233   2.726  14.155  0.0386 -0.6205 -0.1949
 7727TIP3    H144596   2.209   2.668  14.228 -0.8217 -0.9028 -0.6879
 7727TIP3    H244597   2.219   2.673  14.077  1.0048 -0.3358 -0.5791
 7728TIP3   OH244598   6.353   4.663   1.986  0.4259  0.2019  0.1726
 7728TIP3    H144599   6.338   4.643   1.894 -1.0360  1.0874  0.1956
 7728TIP3    H244600   6.442   4.700   1.988  1.0423 -1.1602 -0.6325
 7729TIP3   OH244601   6.603   4.613  15.372  0.4676 -0.1337  0.3978
 7729TIP3    H144602   6.672   4.624  15.307  1.0198  1.4715  1.2127
 7729TIP3    H244603   6.647   4.576  15.448  0.3511  0.4249  0.7453
 7730TIP3   OH244604   1.390   5.270   5.101 -0.2050  0.5252  0.6887
 7730TIP3    H144605   1.387   5.355   5.056 -0.2329  0.5432  0.7242
 7730TIP3    H244606   1.371   5.291   5.192  0.4333  0.5610  0.8146
 7731TIP3   OH244607   3.625   5.867   1.881 -0.1589 -0.0169  0.2211
 7731TIP3    H144608   3.606   5.853   1.788  0.7790  1.2008 -0.1794
 7731TIP3    H244609   3.668   5.786   1.908  0.9306  0.1771 -0.8158
 7732TIP3   OH244610   4.410   6.654   6.278  0.1407  0.3569 -0.6148
 7732TIP3    H144611   4.317   6.675   6.267  0.1587  0.3590 -0.7601
 7732TIP3    H244612   4.429   6.679   6.369 -0.4438 -1.3480  0.0152
 7733TIP3   OH244613   2.506   0.407   0.268  0.0282 -0.1186  0.3047
 7733TIP3    H144614   2.513   0.490   0.221  1.4260 -0.6190 -0.4200
 7733TIP3    H244615   2.493   0.432   0.359 -1.3724  0.8700 -0.1164
 7734TIP3   OH244616   1.433   1.494   1.344  0.1882 -0.2880 -0.0510
 7734TIP3    H144617   1.498   1.534   1.286 -0.3734  0.8663  0.0939
 7734TIP3    H244618   1.353   1.491   1.292 -0.2792  0.6135  0.6023
 7735TIP3   OH244619   6.085   5.846  12.178  0.4227 -0.5497  0.1511
 7735TIP3    H144620   6.051   5.909  12.243  0.4011 -0.1994 -0.1953
 7735TIP3    H244621   6.080   5.893  12.095  2.3162 -0.2605  0.1514
 7736TIP3   OH244622   6.020   3.070  10.863 -0.2736  0.7418  0.8755
 7736TIP3    H144623   5.980   3.134  10.803  0.7541  1.1104  0.5499
 7736TIP3    H244624   6.022   2.988  10.813  1.9814  1.3957 -0.2580
 7737TIP3   OH244625   2.054   4.363   1.399 -0.5934 -0.0078  0.3064
 7737TIP3    H144626   2.053   4.366   1.304  0.0173  2.3231  0.3145
 7737TIP3    H244627   1.985   4.301   1.422 -2.3907  1.1295 -1.6351
 7738TIP3   OH244628   1.608   0.079  14.838 -0.1345  0.0756 -0.0252
 7738TIP3    H144629   1.616   0.167  14.875  1.1027  0.2110 -0.5647
 7738TIP3    H244630   1.548   0.033  14.897 -0.7737  1.2580  0.2836
 7739TIP3   OH244631   4.071   2.261  12.727 -0.4349  0.5696 -0.1081
 7739TIP3    H144632   4.021   2.187  12.761 -0.7247  0.4069 -0.8684
 7739TIP3    H244633   4.024   2.288  12.648 -1.0802  2.4257  0.8587
 7740TIP3   OH244634   1.194   1.555   4.686  0.5465  0.1447  0.8181
 7740TIP3    H144635   1.289   1.549   4.672  0.3155  0.5463 -1.3042
 7740TIP3    H244636   1.170   1.640   4.648 -0.8645 -0.6619 -0.2056
 7741TIP3   OH244637   0.786   0.316   4.616  0.9848 -0.4345 -0.4135
 7741TIP3    H144638   0.765   0.233   4.572  2.3331 -1.7314  1.2230
 7741TIP3    H244639   0.761   0.301   4.707  3.7433 -0.1041  0.4875
 7742TIP3   OH244640   2.881   5.957  10.491  0.0376 -0.3633 -0.4241
 7742TIP3    H144641   2.915   5.888  10.434  0.6117 -0.7687  0.4034
 7742TIP3    H244642   2.840   5.911  10.564  1.6321  0.1625  0.8483
 7743TIP3   OH244643   3.484   6.018  14.238 -0.3945 -0.1852  0.0629
 7743TIP3    H144644   3.502   5.934  14.279 -1.3895  0.4009  1.8205
 7743TIP3    H244645   3.525   6.082  14.297 -0.4403  0.6259 -0.7611
 7744TIP3   OH244646   5.716   0.018   2.140 -0.2559 -0.7795 -0.6022
 7744TIP3    H144647   5.706  -0.051   2.074 -2.7544  1.0167 -2.3426
 7744TIP3    H244648   5.659   0.089   2.108  0.3588  1.1755  2.2685
 7745TIP3   OH244649   0.254   5.544  13.450 -0.2873 -0.0647 -0.0351
 7745TIP3    H144650   0.243   5.499  13.367  0.1506 -0.6969  0.2385
 7745TIP3    H244651   0.313   5.616  13.431 -0.3576 -0.0790 -0.3108
 7746TIP3   OH244652   4.220   3.614   2.986 -1.0673  0.2023  0.1701
 7746TIP3    H144653   4.204   3.635   2.894  0.4665 -2.1279 -0.7421
 7746TIP3    H244654   4.139   3.574   3.016 -1.7960  1.5371  0.0623
 7747TIP3   OH244655   4.446   6.059  15.090  0.4050 -0.3055  0.6490
 7747TIP3    H144656   4.486   5.985  15.136  0.7001  0.8543  2.3368
 7747TIP3    H244657   4.513   6.088  15.029  1.1984 -0.0044  1.6257
 7748TIP3   OH244658   6.763   5.162   2.888  0.1589 -0.1475 -0.0052
 7748TIP3    H144659   6.820   5.235   2.913 -0.3452  0.4547 -0.5839
 7748TIP3    H244660   6.821   5.085   2.889  0.8519  0.3615 -0.0243
 7749TIP3   OH244661   0.909   6.341   1.877  0.4129  0.2062  0.4491
 7749TIP3    H144662   0.878   6.252   1.893  0.0569  0.3575  0.6071
 7749TIP3    H244663   1.001   6.330   1.852  0.2556 -0.2399  0.0404
 7750TIP3   OH244664   5.605   4.146  11.884  0.8398  0.3196  0.3553
 7750TIP3    H144665   5.539   4.210  11.854  0.8366  1.5142  2.6703
 7750TIP3    H244666   5.558   4.063  11.886 -0.6609  1.1355  1.8835
 7751TIP3   OH244667   5.850   4.138   4.763 -0.7626 -0.0126 -0.1508
 7751TIP3    H144668   5.895   4.177   4.688 -0.7085 -0.8372 -0.5585
 7751TIP3    H244669   5.871   4.045   4.758 -0.0433  0.0362  1.3919
 7752TIP3   OH244670   3.578   0.884   0.900 -0.0036  0.7120  0.4068
 7752TIP3    H144671   3.497   0.869   0.948  0.3521  1.7706  1.3750
 7752TIP3    H244672   3.648   0.872   0.965  0.5700  0.6168 -0.2113
 7753TIP3   OH244673   0.219   0.594  15.713  0.7216  0.4773 -0.2254
 7753TIP3    H144674   0.125   0.581  15.726  0.9504  1.3216  3.5889
 7753TIP3    H244675   0.230   0.689  15.708  1.5470  0.6540  2.9726
 7754TIP3   OH244676   6.138   6.593   5.725 -0.4261 -0.4874 -0.0462
 7754TIP3    H144677   6.150   6.516   5.670  0.9365 -0.4305  0.1506
 7754TIP3    H244678   6.085   6.562   5.799 -0.4093 -1.0725 -0.2782
 7755TIP3   OH244679   6.534   5.157   6.106 -0.3150 -0.3415 -0.4936
 7755TIP3    H144680   6.481   5.124   6.178 -2.1388  0.6252 -1.3331
 7755TIP3    H244681   6.576   5.236   6.141 -0.8568 -0.1104 -0.3623
 7756TIP3   OH244682   6.329   0.008   2.980  1.1705  0.0335  0.5830
 7756TIP3    H144683   6.257   0.027   2.921  0.2851 -0.9367  1.3194
 7756TIP3    H244684   6.398   0.071   2.955 -0.3343  1.8045  0.6460
 7757TIP3   OH244685   0.372   3.366  16.126 -0.5029  0.5775  0.0909
 7757TIP3    H144686   0.288   3.404  16.150 -0.3257  0.3339  1.1633
 7757TIP3    H244687   0.350   3.288  16.076 -0.8975  0.9212 -0.2813
 7758TIP3   OH244688   2.456   5.990  16.782 -0.3962  0.0090  0.1298
 7758TIP3    H144689   2.384   6.000  16.844 -1.3199  1.0874 -1.0748
 7758TIP3    H244690   2.465   6.076  16.742  1.9933  0.0939  0.6667
 7759TIP3   OH244691   6.771   5.990  14.624  0.1050  0.5887  0.2198
 7759TIP3    H144692   6.702   5.969  14.560  1.5964  1.1101 -1.6690
 7759TIP3    H244693   6.826   5.912  14.625 -0.9417 -0.1997  2.4315
 7760TIP3   OH244694   5.715   3.945   1.144 -0.4812 -0.3172 -0.0615
 7760TIP3    H144695   5.783   3.998   1.102 -0.2544  0.3093  1.0446
 7760TIP3    H244696   5.633   3.974   1.104 -0.3252  0.6469  0.3151
 7761TIP3   OH244697   4.969   4.702  14.676 -0.1969 -0.7724 -0.4568
 7761TIP3    H144698   4.968   4.621  14.624  0.3626 -1.1448  0.0919
 7761TIP3    H244699   5.057   4.705  14.714 -0.1248  0.2314 -0.6709
 7762TIP3   OH244700   6.279   4.828   1.046  0.0070 -0.3067  0.1930
 7762TIP3    H144701   6.205   4.777   1.081 -0.5306 -0.6890 -1.4236
 7762TIP3    H244702   6.357   4.785   1.082 -0.5085 -0.7625  0.7920
 7763TIP3   OH244703   5.066   2.953  13.220  0.0141  0.5176  0.0796
 7763TIP3    H144704   5.138   2.964  13.282  0.6275  0.4290 -0.6021
 7763TIP3    H244705   5.070   3.030  13.164 -1.5825  1.4452  1.1464
 7764TIP3   OH244706   4.906   6.066   5.089 -0.0394  0.1702 -0.2223
 7764TIP3    H144707   4.823   6.037   5.052 -0.3374  0.4667  0.2085
 7764TIP3    H244708   4.884   6.142   5.142  0.6570  0.8557 -0.8893
 7765TIP3   OH244709   5.426   4.891  16.229 -0.4034 -0.2691  0.5370
 7765TIP3    H144710   5.496   4.925  16.285  0.0124  0.7943 -0.5989
 7765TIP3    H244711   5.469   4.825  16.175 -0.6196 -0.6805  0.8592
 7766TIP3   OH244712   1.789   6.763  14.139 -0.2235  0.4751 -0.2886
 7766TIP3    H144713   1.814   6.850  14.169  0.6152  0.1699 -0.0479
 7766TIP3    H244714   1.776   6.772  14.045 -0.8233  1.0024 -0.1578
 7767TIP3   OH244715   1.075   0.249   4.481  0.1779  0.2573 -0.0361
 7767TIP3    H144716   1.057   0.315   4.549  0.7684 -0.4182  0.7882
 7767TIP3    H244717   1.081   0.167   4.528  2.5183  0.0175 -0.6244
 7768TIP3   OH244718   1.142   0.881  15.698 -0.0414 -0.8722 -0.8858
 7768TIP3    H144719   1.190   0.964  15.690  0.5168 -0.8368  1.7661
 7768TIP3    H244720   1.210   0.814  15.693  0.0755 -0.9237  0.7140
 7769TIP3   OH244721   3.451   0.037   0.455  0.3201  0.5823  0.4026
 7769TIP3    H144722   3.362   0.028   0.490  0.2596  1.6822  0.5647
 7769TIP3    H244723   3.470  -0.048   0.416 -1.1658  0.6013 -0.4439
 7770TIP3   OH244724   0.823   0.195   6.580 -0.0678  0.1724 -0.1052
 7770TIP3    H144725   0.878   0.140   6.636 -1.2341 -1.4752 -0.4973
 7770TIP3    H244726   0.855   0.179   6.491  0.1146  0.7913 -0.1579
 7771TIP3   OH244727   6.344   5.033  16.757  0.0342 -0.0723 -0.0922
 7771TIP3    H144728   6.415   5.070  16.705  1.2286 -0.2239  1.3666
 7771TIP3    H244729   6.303   5.108  16.798 -1.7440  0.1842 -2.1503
 7772TIP3   OH244730   1.623   4.508   4.570  0.3277  0.4547 -0.3870
 7772TIP3    H144731   1.534   4.485   4.541  0.1050  1.0683 -0.2234
 7772TIP3    H244732   1.625   4.604   4.565  0.7267  0.4935  0.3581
 7773TIP3   OH244733   5.084   1.889   4.556 -0.1757  0.8192  0.1133
 7773TIP3    H144734   5.098   1.795   4.543  1.4135  0.9831  0.3549
 7773TIP3    H244735   5.057   1.897   4.647  0.8526  0.6604  0.4525
 7774TIP3   OH244736   4.075   5.834   1.127 -0.4043  0.4677  0.0562
 7774TIP3    H144737   4.084   5.842   1.032 -0.6192  0.4852  0.0362
 7774TIP3    H244738   4.161   5.807   1.157 -0.4335  0.1015 -0.1836
 7775TIP3   OH244739   3.963   6.650  16.502  0.3839 -0.3394  0.4969
 7775TIP3    H144740   3.937   6.701  16.578  1.4129  0.8689  0.0731
 7775TIP3    H244741   3.971   6.560  16.534 -0.6743 -0.1093  1.4457
 7776TIP3   OH244742   6.186   1.750   4.088 -0.4282 -0.0758  0.2297
 7776TIP3    H144743   6.239   1.685   4.134 -0.8401  0.2303  1.1476
 7776TIP3    H244744   6.118   1.774   4.150 -0.2649  1.2710 -0.0882
 7777TIP3   OH244745   3.045   4.321  15.138 -0.1544 -0.1028  0.0171
 7777TIP3    H144746   3.112   4.336  15.205 -2.4296  2.2899  1.9471
 7777TIP3    H244747   3.095   4.297  15.059  2.7466 -1.2126  2.0213
 7778TIP3   OH244748   5.171   5.680  13.985 -0.4339  0.5182  0.3835
 7778TIP3    H144749   5.104   5.746  13.966  0.0254  0.9792  0.3172
 7778TIP3    H244750   5.135   5.598  13.951 -2.8533 -0.1831  4.0976
 7779TIP3   OH244751   5.557   0.822   1.783  0.1689 -0.2283 -0.7053
 7779TIP3    H144752   5.506   0.879   1.840  0.4206 -0.2181 -0.4910
 7779TIP3    H244753   5.594   0.756   1.841  0.0731 -0.4735 -0.9188
 7780TIP3   OH244754   2.251   5.090   1.784 -0.1332 -0.3496  0.0951
 7780TIP3    H144755   2.243   5.084   1.688  1.5570  1.0518 -0.2010
 7780TIP3    H244756   2.161   5.095   1.816 -0.7830 -1.9295 -1.3025
 7781TIP3   OH244757   3.700   5.741   4.850 -0.7373  0.6232 -0.4912
 7781TIP3    H144758   3.793   5.761   4.839 -0.8917  0.8232 -1.4485
 7781TIP3    H244759   3.654   5.811   4.804 -1.3679  0.4442 -0.1475
 7782TIP3   OH244760   1.329   0.090  15.870 -0.3066  0.1683 -0.0385
 7782TIP3    H144761   1.368   0.123  15.788  0.1182 -0.9243 -0.2999
 7782TIP3    H244762   1.237   0.117  15.865 -0.2187  0.3768 -0.7416
 7783TIP3   OH244763   5.240   4.771   2.118  0.4378  0.8028 -0.2238
 7783TIP3    H144764   5.188   4.844   2.152  3.7144  2.4584  1.8364
 7783TIP3    H244765   5.248   4.711   2.193  0.1487 -0.2367 -1.0126
 7784TIP3   OH244766   6.323   4.912  15.115 -0.0526 -0.0039  0.1374
 7784TIP3    H144767   6.229   4.930  15.118 -0.2369 -0.9816  1.2257
 7784TIP3    H244768   6.352   4.919  15.207  0.7560 -0.5905 -0.0568
 7785TIP3   OH244769   0.297   0.870  13.167  0.2003 -0.0786  0.2972
 7785TIP3    H144770   0.375   0.873  13.222  0.4257  1.9250 -0.0449
 7785TIP3    H244771   0.278   0.962  13.147 -1.2586 -0.6133 -1.0213
 7786TIP3   OH244772   3.385   2.011   2.697 -0.6231  0.2056  0.0955
 7786TIP3    H144773   3.455   1.959   2.656 -1.4501  0.2941 -1.5231
 7786TIP3    H244774   3.328   1.946   2.737 -1.0212 -0.0883 -0.9039
 7787TIP3   OH244775   1.321   1.371  14.366 -0.3293 -0.0549 -0.0971
 7787TIP3    H144776   1.391   1.411  14.315 -0.1860 -1.0365 -0.6965
 7787TIP3    H244777   1.319   1.421  14.448 -0.5060  1.4968 -1.0087
 7788TIP3   OH244778   4.111   0.777  13.636 -0.2270  0.6445 -0.3816
 7788TIP3    H144779   4.046   0.825  13.585 -2.7479  0.6843  2.5110
 7788TIP3    H244780   4.071   0.768  13.723  3.5883  0.4191  1.5838
 7789TIP3   OH244781   3.939   0.765   3.470 -0.4234 -0.0885  0.5252
 7789TIP3    H144782   3.854   0.737   3.436  0.4013 -1.2352 -0.6416
 7789TIP3    H244783   3.991   0.784   3.393  0.0848  1.6214  1.2413
 7790TIP3   OH244784   2.827   0.631   4.709  0.3784 -0.1194 -0.3253
 7790TIP3    H144785   2.732   0.641   4.714  0.3091 -0.3798 -1.0036
 7790TIP3    H244786   2.855   0.695   4.644  0.9193  1.3403  1.2578
 7791TIP3   OH244787   4.529   6.164   0.417 -0.4384  0.1770  0.1197
 7791TIP3    H144788   4.439   6.165   0.386  0.0343  0.7319 -1.3080
 7791TIP3    H244789   4.544   6.253   0.451  0.5907  1.3015 -2.9171
 7792TIP3   OH244790   5.139   0.319  14.751  0.3657  0.4811  0.0852
 7792TIP3    H144791   5.177   0.248  14.699  2.1319  0.1091  1.7603
 7792TIP3    H244792   5.106   0.275  14.829  0.9342  1.4094  0.8652
 7793TIP3   OH244793   4.557   0.822   4.188 -0.2143 -0.3210  0.2859
 7793TIP3    H144794   4.546   0.831   4.283  0.0186  0.8283  0.2188
 7793TIP3    H244795   4.468   0.805   4.155 -0.5224  0.6356  0.5825
 7794TIP3   OH244796   2.214   2.247   4.166 -0.0460  0.3105 -0.0514
 7794TIP3    H144797   2.240   2.296   4.244  0.5621  1.0917 -0.7271
 7794TIP3    H244798   2.293   2.243   4.112 -0.0294 -1.5986  0.0491
 7795TIP3   OH244799   5.366   6.135   5.080 -0.2256  0.1244 -0.5013
 7795TIP3    H144800   5.279   6.123   5.040 -0.3410  0.6746 -0.4283
 7795TIP3    H244801   5.351   6.197   5.151  0.4276  1.1269 -1.2184
 7796TIP3   OH244802   5.661   4.477  12.573  0.2341 -0.7023  0.3846
 7796TIP3    H144803   5.704   4.423  12.639  0.4178 -0.6190  0.3349
 7796TIP3    H244804   5.731   4.498  12.510  0.1092 -0.6079  0.2780
 7797TIP3   OH244805   4.540   6.465  12.975  0.1461  0.0515 -0.3992
 7797TIP3    H144806   4.591   6.402  13.026  0.7954  0.7163 -0.2162
 7797TIP3    H244807   4.604   6.527  12.942 -0.8131  2.8116  2.5117
 7798TIP3   OH244808   0.996   1.383   0.763  0.0800 -0.3600 -0.7620
 7798TIP3    H144809   0.910   1.358   0.798 -0.0430 -0.0316 -0.8248
 7798TIP3    H244810   0.978   1.405   0.671  0.9170 -4.5122 -2.1552
 7799TIP3   OH244811   1.636   1.628  16.344 -0.6526  0.0145  0.1121
 7799TIP3    H144812   1.564   1.685  16.317 -0.1080  0.5513 -0.2351
 7799TIP3    H244813   1.662   1.582  16.264  0.2974  0.8641 -0.0994
 7800TIP3   OH244814   0.690   4.366   1.267 -0.1948  0.1510 -0.4626
 7800TIP3    H144815   0.777   4.400   1.245 -0.2585  0.6031 -0.0393
 7800TIP3    H244816   0.693   4.274   1.240  0.3487  0.2089 -0.6271
 7801TIP3   OH244817   4.300   1.480   5.318  0.5411 -0.2058  0.0978
 7801TIP3    H144818   4.299   1.432   5.401  0.7178 -0.4804 -0.0600
 7801TIP3    H244819   4.391   1.508   5.308  0.5162 -0.1608  0.0032
 7802TIP3   OH244820   4.511   2.121   5.234  0.3848  0.1631 -0.2197
 7802TIP3    H144821   4.428   2.080   5.208  1.2202 -2.5781  1.0979
 7802TIP3    H244822   4.570   2.104   5.160  0.3102  0.3935 -0.3334
 7803TIP3   OH244823   5.398   1.086   2.717  0.3082 -0.4933 -0.4232
 7803TIP3    H144824   5.472   1.145   2.701 -1.5516  2.2414  0.4105
 7803TIP3    H244825   5.407   1.061   2.809  0.0960  0.0114 -0.2625
 7804TIP3   OH244826   6.116   0.124  16.745 -0.4532 -0.1410 -0.2297
 7804TIP3    H144827   6.028   0.099  16.773 -0.5600 -1.5996 -1.6833
 7804TIP3    H244828   6.127   0.081  16.660  1.7994 -0.2753  0.0686
 7805TIP3   OH244829   6.740   4.040   1.233 -0.3801 -0.0893  0.3720
 7805TIP3    H144830   6.665   3.993   1.270 -0.3596 -2.6565 -2.5289
 7805TIP3    H244831   6.815   3.984   1.251 -0.0092 -0.1639 -1.2543
 7806TIP3   OH244832   4.830   4.061  16.410 -0.1034 -0.1725  0.2400
 7806TIP3    H144833   4.907   4.052  16.466  0.6309  1.0512 -0.5330
 7806TIP3    H244834   4.772   3.990  16.438  1.5599 -1.5335  0.3878
 7807TIP3   OH244835   0.287   2.217   4.305  0.2786 -0.0505  0.3285
 7807TIP3    H144836   0.278   2.311   4.315 -0.4940 -0.2516  1.7479
 7807TIP3    H244837   0.198   2.183   4.319  0.7240 -1.0623  0.7786
 7808TIP3   OH244838   0.631   2.531   1.377 -0.1790 -0.0204 -0.2179
 7808TIP3    H144839   0.642   2.467   1.307  1.9038 -1.2625  1.1331
 7808TIP3    H244840   0.618   2.614   1.332 -3.5557 -1.3512 -2.0469
 7809TIP3   OH244841   4.168   6.746   1.720 -0.4364  0.0939 -0.3621
 7809TIP3    H144842   4.156   6.833   1.757  0.7523 -0.0754  0.4783
 7809TIP3    H244843   4.211   6.761   1.636  0.9744  0.2702  0.3706
 7810TIP3   OH244844   0.508   3.828  15.554  0.3889 -0.2064  0.4874
 7810TIP3    H144845   0.478   3.899  15.611  0.7073 -0.4638  0.9831
 7810TIP3    H244846   0.429   3.779  15.532 -0.0064  0.8692 -0.6875
 7811TIP3   OH244847   2.550   6.448  13.177 -0.1199  0.1228 -1.0583
 7811TIP3    H144848   2.542   6.488  13.090  1.2175  2.0125 -0.3832
 7811TIP3    H244849   2.578   6.359  13.160  1.8116  0.9540 -2.5668
 7812TIP3   OH244850   4.689   1.417  15.225  0.0281 -0.2481  0.0545
 7812TIP3    H144851   4.622   1.456  15.169 -2.1227 -0.8873  2.0090
 7812TIP3    H244852   4.746   1.369  15.165 -2.2391 -1.0524 -1.5840
 7813TIP3   OH244853   1.189   4.763  13.281  0.4789  0.3382  0.0801
 7813TIP3    H144854   1.282   4.787  13.286  0.1746  1.4995  0.5934
 7813TIP3    H244855   1.162   4.752  13.372  1.0364 -4.1113 -0.0758
 7814TIP3   OH244856   5.469   2.286   3.840  0.1015 -0.7861 -0.3268
 7814TIP3    H144857   5.388   2.336   3.843  0.0251 -0.8931  2.9935
 7814TIP3    H244858   5.444   2.198   3.868  1.2611 -0.9599  0.2276
 7815TIP3   OH244859   3.152   1.589  12.325 -0.3695 -0.0286  0.0107
 7815TIP3    H144860   3.198   1.557  12.402  0.0193 -0.6517 -0.4672
 7815TIP3    H244861   3.089   1.653  12.359  0.5702  0.5450  0.7179
 7816TIP3   OH244862   0.840   3.772   3.890 -0.4461 -0.6194  0.1196
 7816TIP3    H144863   0.781   3.773   3.815  0.4956  0.9270 -0.6488
 7816TIP3    H244864   0.820   3.852   3.938  0.2973 -0.6046  0.4186
 7817TIP3   OH244865   1.551   3.534  14.130 -0.0314 -0.2355 -0.5710
 7817TIP3    H144866   1.516   3.537  14.041  0.6435  0.8811 -0.8136
 7817TIP3    H244867   1.571   3.441  14.145 -1.9071 -0.7263 -0.8604
 7818TIP3   OH244868   5.664   2.205  11.108  0.2713  0.1006 -0.4984
 7818TIP3    H144869   5.660   2.198  11.204 -2.2132  0.8224 -0.4587
 7818TIP3    H244870   5.603   2.139  11.077  0.8888  0.0258 -1.5909
 7819TIP3   OH244871   1.741   1.941  16.146 -0.1675  0.4373 -0.1654
 7819TIP3    H144872   1.664   1.987  16.112 -1.0375 -0.7662  0.1495
 7819TIP3    H244873   1.807   1.951  16.077 -0.6093  1.4093 -0.4710
 7820TIP3   OH244874   1.039   4.755   2.301 -0.2263 -0.4020  0.3119
 7820TIP3    H144875   1.075   4.678   2.256 -0.3843 -1.2146  1.5188
 7820TIP3    H244876   0.945   4.747   2.290 -0.2658 -0.6082  0.7741
 7821TIP3   OH244877   0.501   2.552  16.821  0.0388 -0.0361 -0.6042
 7821TIP3    H144878   0.563   2.491  16.862  0.2563  1.1512  0.9296
 7821TIP3    H244879   0.545   2.581  16.741  0.1934 -1.3826 -1.0401
 7822TIP3   OH244880   6.583   4.008  14.446  0.3084 -0.3023  0.1631
 7822TIP3    H144881   6.636   4.011  14.525 -1.1529  1.2241  1.1603
 7822TIP3    H244882   6.510   3.950  14.469 -0.4733  0.6721  0.2113
 7823TIP3   OH244883   4.664   2.064  11.351 -0.5590 -0.6863 -0.2589
 7823TIP3    H144884   4.623   2.150  11.346  1.4015  0.2666 -0.7263
 7823TIP3    H244885   4.681   2.040  11.260 -0.4995 -1.2839 -0.0975
 7824TIP3   OH244886   2.153   5.280  15.806 -0.1516  0.4233  0.3688
 7824TIP3    H144887   2.117   5.260  15.892  0.2615  0.0076  0.4524
 7824TIP3    H244888   2.088   5.247  15.744  0.6866 -1.6121  0.4957
 7825TIP3   OH244889   1.882   1.787  12.318 -0.1686  0.0743 -0.6726
 7825TIP3    H144890   1.846   1.876  12.313 -0.4629 -0.0341 -0.4749
 7825TIP3    H244891   1.862   1.757  12.406  2.8121  1.0249  0.4566
 7826TIP3   OH244892   1.765   3.997  16.928  0.1408 -0.3259  0.8912
 7826TIP3    H144893   1.693   3.944  16.894 -1.1755  0.1268  2.8063
 7826TIP3    H244894   1.844   3.959  16.890 -0.9585 -2.1625  0.3649
 7827TIP3   OH244895   5.615   5.729   5.718  0.0517 -0.0018  0.1996
 7827TIP3    H144896   5.689   5.735   5.778 -1.0771  1.6898  1.5312
 7827TIP3    H244897   5.636   5.792   5.648 -0.2586  0.7559  0.7710
 7828TIP3   OH244898   3.483   4.784   5.324  0.2500  0.1120  0.4948
 7828TIP3    H144899   3.410   4.727   5.346  1.3417 -1.8208 -0.6159
 7828TIP3    H244900   3.497   4.837   5.403 -2.1299  0.3689  0.8164
 7829TIP3   OH244901   4.060   5.825   1.813  0.4445  0.0902  0.0217
 7829TIP3    H144902   4.108   5.781   1.883  1.5682  1.7907  0.3624
 7829TIP3    H244903   4.117   5.816   1.736  0.7026  0.9517  0.1038
 7830TIP3   OH244904   2.778   2.495  13.585 -0.1190 -0.4469 -0.1674
 7830TIP3    H144905   2.694   2.508  13.629  0.0139  0.5517 -0.1951
 7830TIP3    H244906   2.760   2.427  13.520 -0.9384 -0.1633 -0.2537
 7831TIP3   OH244907   0.714   4.193   3.270 -0.0772  0.4074 -0.3813
 7831TIP3    H144908   0.780   4.186   3.338 -0.3202  0.0255 -0.1828
 7831TIP3    H244909   0.705   4.287   3.255  1.1685  0.4362 -1.0605
 7832TIP3   OH244910   3.359   0.469  14.404 -0.6060  0.2874  0.1168
 7832TIP3    H144911   3.294   0.458  14.334 -0.9825 -1.6806  0.7072
 7832TIP3    H244912   3.394   0.381  14.418  3.4395  1.4610 -1.2745
 7833TIP3   OH244913   2.390   1.110  15.873  0.5578 -0.1493 -0.3567
 7833TIP3    H144914   2.366   1.203  15.867  0.8256 -0.0019  0.6479
 7833TIP3    H244915   2.339   1.068  15.804  0.3729  0.7308 -0.7764
 7834TIP3   OH244916   0.223   6.756  13.394 -0.2885  0.1476 -0.0518
 7834TIP3    H144917   0.241   6.675  13.442  2.1293  0.0653 -0.9795
 7834TIP3    H244918   0.190   6.727  13.309 -0.0002  0.1512 -0.1655
 7835TIP3   OH244919   5.142   4.627  12.314 -0.1808 -0.3975 -0.3975
 7835TIP3    H144920   5.120   4.602  12.225 -0.7502  0.2834 -0.4546
 7835TIP3    H244921   5.210   4.564  12.341 -0.2846 -0.8435 -1.1631
 7836TIP3   OH244922   2.393   2.403   5.893 -0.1994 -0.3035 -0.2958
 7836TIP3    H144923   2.302   2.411   5.863 -1.1723 -0.2287  2.3798
 7836TIP3    H244924   2.389   2.334   5.960  1.5374  0.3536  0.5273
 7837TIP3   OH244925   1.059   3.760   1.697 -0.8277 -0.2799  0.1884
 7837TIP3    H144926   1.069   3.764   1.601  1.3555 -1.0263  0.3328
 7837TIP3    H244927   1.022   3.674   1.714  0.9846 -1.1377  0.0877
 7838TIP3   OH244928   5.510   2.438  13.488  0.2246  0.2841 -0.4998
 7838TIP3    H144929   5.432   2.440  13.544  0.9458  2.8577  0.5576
 7838TIP3    H244930   5.574   2.493  13.533  1.3811  1.2548 -3.0921
 7839TIP3   OH244931   6.525   0.261   2.287  0.2331  0.5046  0.2587
 7839TIP3    H144932   6.452   0.319   2.309 -0.5821 -0.1966 -0.5401
 7839TIP3    H244933   6.600   0.298   2.334 -0.9907  0.2014  2.5911
 7840TIP3   OH244934   3.587   1.095  16.226  0.0253  0.0191  0.1106
 7840TIP3    H144935   3.618   1.183  16.244  0.2374  0.1530 -0.8634
 7840TIP3    H244936   3.550   1.100  16.138 -0.9637 -0.6066  0.4670
 7841TIP3   OH244937   5.406   2.426   1.448 -0.1140 -0.7169  0.4292
 7841TIP3    H144938   5.401   2.503   1.505 -2.6616 -0.4390 -0.0470
 7841TIP3    H244939   5.379   2.353   1.505 -0.4314 -0.7978  0.1779
 7842TIP3   OH244940   3.880   3.023   1.123 -0.3204  0.4062  0.1729
 7842TIP3    H144941   3.849   2.994   1.208 -0.0461  0.7392  0.3906
 7842TIP3    H244942   3.966   2.981   1.113 -0.9139 -0.6883 -0.5214
 7843TIP3   OH244943   4.670   4.978   4.298 -0.0041 -0.4486 -0.3427
 7843TIP3    H144944   4.713   4.982   4.383  0.2966 -1.5264 -0.4276
 7843TIP3    H244945   4.740   4.994   4.234 -0.1404 -0.1068 -0.4102
 7844TIP3   OH244946   1.358   3.652   6.189  0.0945 -0.0363  0.0786
 7844TIP3    H144947   1.448   3.622   6.189  0.0010 -0.3421  1.1654
 7844TIP3    H244948   1.320   3.617   6.270 -0.8582  0.4935 -0.1178
 7845TIP3   OH244949   0.045   0.355  14.309  0.0784 -0.1147  0.3152
 7845TIP3    H144950   0.078   0.298  14.241  1.0101 -0.6656  1.1936
 7845TIP3    H244951   0.093   0.437  14.297 -0.4612  0.1246 -0.2688
 7846TIP3   OH244952   3.569   0.486   1.527 -0.4498  0.3755 -0.7282
 7846TIP3    H144953   3.532   0.438   1.601  0.5536  0.1797 -0.3428
 7846TIP3    H244954   3.595   0.570   1.563 -0.4932  0.5053 -0.9937
 7847TIP3   OH244955   6.731   2.777  13.590  0.3078  0.6803 -0.0279
 7847TIP3    H144956   6.666   2.821  13.646 -0.4081 -0.8259  0.3860
 7847TIP3    H244957   6.749   2.841  13.521  0.0815  2.0111  1.0819
 7848TIP3   OH244958   3.617   1.428  13.747 -0.5896  0.5390  0.0723
 7848TIP3    H144959   3.593   1.510  13.788 -0.3287  0.9790 -0.6431
 7848TIP3    H244960   3.615   1.364  13.818 -0.1719  1.2792  0.7537
 7849TIP3   OH244961   4.407   0.171  14.000  0.3907 -0.9438  0.0868
 7849TIP3    H144962   4.454   0.087  14.002  0.9819 -0.6222 -0.1662
 7849TIP3    H244963   4.326   0.154  14.049  1.0433 -1.3350  1.0624
 7850TIP3   OH244964   0.512   2.183  14.832 -0.7800 -0.2663  0.1077
 7850TIP3    H144965   0.582   2.177  14.897 -1.7165 -1.8710  1.0543
 7850TIP3    H244966   0.517   2.272  14.799  2.3309 -0.5932 -0.6066
 7851TIP3   OH244967   4.000   0.766   0.322 -0.0216 -0.3690 -0.3577
 7851TIP3    H144968   4.089   0.783   0.292  0.5797 -0.8817  1.0430
 7851TIP3    H244969   3.960   0.853   0.330  0.2127 -0.1570 -1.3447
 7852TIP3   OH244970   1.477   5.426   2.359 -0.2313 -0.0766  0.0994
 7852TIP3    H144971   1.548   5.364   2.345  0.3736  0.7681 -0.6990
 7852TIP3    H244972   1.513   5.490   2.419 -0.3307  0.3226 -0.2611
 7853TIP3   OH244973   2.451   1.595  11.521 -0.4005 -0.1499 -0.3251
 7853TIP3    H144974   2.456   1.671  11.463 -1.5203  0.3423  0.1881
 7853TIP3    H244975   2.540   1.558  11.521 -0.7919 -1.6470 -4.2775
 7854TIP3   OH244976   4.491   4.014  10.468  0.1345 -0.7120  0.7370
 7854TIP3    H144977   4.552   4.081  10.438  0.4519 -1.2617  0.1389
 7854TIP3    H244978   4.541   3.932  10.464 -0.6413 -1.1749  0.2130
 7855TIP3   OH244979   4.378   5.870  12.715  0.0755 -0.4868 -0.2365
 7855TIP3    H144980   4.445   5.872  12.646 -1.0514  0.3132 -1.3567
 7855TIP3    H244981   4.373   5.960  12.746 -1.4166 -0.2257 -1.1398
 7856TIP3   OH244982   0.642   3.828  15.816  0.6942 -0.2827  0.1390
 7856TIP3    H144983   0.731   3.796  15.830  0.0479 -1.9696  0.7066
 7856TIP3    H244984   0.625   3.812  15.724  0.5671 -1.1143  0.3005
 7857TIP3   OH244985   3.274   1.020   2.173  0.1032  0.0972 -0.1106
 7857TIP3    H144986   3.204   0.961   2.200 -0.8957  0.3896 -1.9386
 7857TIP3    H244987   3.293   1.071   2.252 -1.3666 -0.3462  0.5726
 7858TIP3   OH244988   4.356   1.557   5.015  0.0263  0.5379  0.0387
 7858TIP3    H144989   4.430   1.496   5.025  0.6158  1.4860  1.8424
 7858TIP3    H244990   4.304   1.545   5.094 -0.7997  1.1459 -0.3994
 7859TIP3   OH244991   2.746   4.148   4.566  0.4285 -0.4505 -0.4055
 7859TIP3    H144992   2.660   4.148   4.524  0.2254  0.9331 -0.0544
 7859TIP3    H244993   2.726   4.151   4.660  0.8543  0.1620 -0.3320
 7860TIP3   OH244994   1.422   5.780  15.135  0.0331 -0.3249  0.2591
 7860TIP3    H144995   1.488   5.740  15.191 -0.4272 -1.5063 -0.0015
 7860TIP3    H244996   1.349   5.800  15.194  0.2509  0.1136  0.3842
 7861TIP3   OH244997   4.258   4.142   3.656  0.8382  0.3188 -0.2164
 7861TIP3    H144998   4.197   4.214   3.673  1.1514  0.7984 -1.0382
 7861TIP3    H244999   4.202   4.069   3.629  0.6353  0.9762 -1.7173
 7862TIP3   OH245000   2.489   0.810  11.826  0.3237 -0.4304 -0.2217
 7862TIP3    H145001   2.522   0.811  11.916  2.2317 -0.4976 -0.8681
 7862TIP3    H245002   2.397   0.833  11.834  0.8405  1.3440  1.6086
 7863TIP3   OH245003   6.322   0.607   1.650 -0.3917 -0.2279  0.5079
 7863TIP3    H145004   6.354   0.567   1.730  0.6117  0.2567  0.3709
 7863TIP3    H245005   6.350   0.699   1.656  0.1889 -0.3069 -0.6351
 7864TIP3   OH245006   6.412   1.896  11.296 -0.0089 -0.1759  0.4141
 7864TIP3    H145007   6.375   1.809  11.283 -0.4267  0.1543 -0.7213
 7864TIP3    H245008   6.490   1.897  11.240  0.4868 -0.1141  1.0957
 7865TIP3   OH245009   3.804   0.435   2.990  0.5813 -0.5412 -0.2759
 7865TIP3    H145010   3.712   0.454   3.007  0.3778 -0.9060 -0.9333
 7865TIP3    H245011   3.838   0.403   3.074  0.9543  2.5899  0.8661
 7866TIP3   OH245012   1.051   4.391   2.307  0.2140 -0.3831  0.2823
 7866TIP3    H145013   1.064   4.398   2.402  1.7235 -1.0856  0.1491
 7866TIP3    H245014   1.110   4.321   2.280 -0.7791 -0.7363 -1.0741
 7867TIP3   OH245015   5.300   5.177  16.549 -0.6609  0.2787 -0.5140
 7867TIP3    H145016   5.226   5.139  16.597 -0.8379  1.2959  0.0520
 7867TIP3    H245017   5.267   5.189  16.460 -0.7353 -0.4882 -0.5949
 7868TIP3   OH245018   3.748   4.320   1.055 -0.2350  0.4463  0.0665
 7868TIP3    H145019   3.795   4.338   0.974 -0.9538  0.8934 -0.2648
 7868TIP3    H245020   3.747   4.224   1.061  1.2233  0.4300  0.4011
 7869TIP3   OH245021   0.985   0.091  17.113 -0.1649 -0.0694  0.0800
 7869TIP3    H145022   1.041   0.018  17.137  0.4698  0.4710  0.2823
 7869TIP3    H245023   1.031   0.168  17.147 -0.5710  0.4666 -0.5657
 7870TIP3   OH245024   1.414   1.661  12.549  0.2515 -0.0987 -0.3671
 7870TIP3    H145025   1.359   1.703  12.615 -0.2864 -1.1272 -0.1252
 7870TIP3    H245026   1.429   1.573  12.584 -0.0646 -0.6722 -1.6299
 7871TIP3   OH245027   4.744   1.064   1.569  0.0050  0.0279 -0.0567
 7871TIP3    H145028   4.792   0.996   1.522 -1.4260 -1.2514  0.2583
 7871TIP3    H245029   4.742   1.138   1.508 -1.4365 -1.4264 -1.8826
 7872TIP3   OH245030   1.999   0.601  13.789 -0.5313 -0.1689 -0.6244
 7872TIP3    H145031   1.935   0.670  13.805  0.3130  0.4301  0.3012
 7872TIP3    H245032   1.991   0.543  13.865  0.4681  0.2860 -0.1464
 7873TIP3   OH245033   4.000   4.582  13.803  0.4227 -0.3017  0.3868
 7873TIP3    H145034   4.034   4.601  13.716  1.2005 -0.3113  0.6829
 7873TIP3    H245035   4.058   4.514  13.837 -0.0305 -0.4811  0.8149
 7874TIP3   OH245036   0.716   2.597  14.089 -0.1694  0.2408 -0.9518
 7874TIP3    H145037   0.641   2.547  14.056  0.4946  0.0889 -2.2937
 7874TIP3    H245038   0.789   2.534  14.087  0.5336  1.0588 -2.0461
 7875TIP3   OH245039   5.900   2.936  13.166 -0.2680  0.1567  0.0073
 7875TIP3    H145040   5.832   2.887  13.119 -0.1723  0.1931 -0.1715
 7875TIP3    H245041   5.855   2.975  13.240 -0.1934 -0.8354  0.5851
 7876TIP3   OH245042   1.775   4.907  12.158  0.0646  0.2697 -0.2882
 7876TIP3    H145043   1.733   4.977  12.208 -1.2870 -0.3737 -0.4652
 7876TIP3    H245044   1.774   4.831  12.217 -2.6391 -0.8412 -1.5888
 7877TIP3   OH245045   4.192   1.467  13.064 -0.1108 -0.4361 -0.2419
 7877TIP3    H145046   4.212   1.432  12.978 -1.1993 -1.4697 -0.1049
 7877TIP3    H245047   4.143   1.397  13.108 -0.0547  0.2741  1.0115
 7878TIP3   OH245048   2.621   1.426   2.709 -0.3561 -0.2444  0.4711
 7878TIP3    H145049   2.665   1.434   2.794 -1.2386 -0.4648  0.9574
 7878TIP3    H245050   2.693   1.418   2.646  0.3892  1.8447  0.9509
 7879TIP3   OH245051   1.355   3.082  11.260  0.1946  0.0314 -0.4933
 7879TIP3    H145052   1.307   3.001  11.279 -2.1530  1.4065 -0.1415
 7879TIP3    H245053   1.424   3.085  11.325 -0.3190 -1.1909  0.1378
 7880TIP3   OH245054   3.103   0.853   2.295 -0.5194 -0.1359  0.4128
 7880TIP3    H145055   3.066   0.771   2.264 -0.2014 -0.4846  0.9598
 7880TIP3    H245056   3.165   0.828   2.363  0.8055  0.4216 -0.5356
 7881TIP3   OH245057   6.426   1.939   3.332  0.4086  0.1836 -0.2993
 7881TIP3    H145058   6.436   1.923   3.425  1.2359  0.1030 -0.3947
 7881TIP3    H245059   6.344   1.896   3.308  0.0736  0.4087  0.4311
 7882TIP3   OH245060   4.659   6.544   0.103  0.0630  0.3458 -0.2552
 7882TIP3    H145061   4.708   6.597   0.166  1.8891 -1.1301 -0.3495
 7882TIP3    H245062   4.611   6.608   0.050  0.3042  1.7382  1.1328
 7883TIP3   OH245063   1.520   6.593   5.237  0.2672 -0.3751 -0.3188
 7883TIP3    H145064   1.455   6.663   5.226 -0.0723 -0.5865  0.2944
 7883TIP3    H245065   1.554   6.605   5.325  0.3686 -0.8541 -0.2912
 7884TIP3   OH245066   0.843   0.900  14.918  0.5602 -0.2356  0.7089
 7884TIP3    H145067   0.899   0.941  14.984 -1.7971  1.4524  1.7896
 7884TIP3    H245068   0.760   0.884  14.962 -0.1438 -1.8693 -1.0519
 7885TIP3   OH245069   4.702   4.654   1.028 -0.5592  0.5101 -0.2276
 7885TIP3    H145070   4.732   4.739   0.996  2.5350 -0.1916  0.5008
 7885TIP3    H245071   4.725   4.592   0.959 -0.0614 -0.1168  0.4911
 7886TIP3   OH245072   3.581   2.348   3.490 -0.2709  0.3903  0.2244
 7886TIP3    H145073   3.505   2.300   3.523 -0.5071  1.5175  1.3881
 7886TIP3    H245074   3.609   2.402   3.563  2.2897 -0.7164  0.1419
 7887TIP3   OH245075   4.619   1.238   0.641 -0.3738 -0.1272  0.0744
 7887TIP3    H145076   4.647   1.245   0.733 -1.6428 -0.7561  0.5322
 7887TIP3    H245077   4.686   1.285   0.592 -1.0216  2.5972  1.5710
 7888TIP3   OH245078   6.692   2.311  12.127 -0.0465  0.8188 -0.2090
 7888TIP3    H145079   6.620   2.259  12.091  0.2775  0.1939  0.0346
 7888TIP3    H245080   6.767   2.292  12.069  0.2568  0.4579  0.2903
 7889TIP3   OH245081   4.932   0.406   2.671  0.2412  0.1907  0.2992
 7889TIP3    H145082   4.843   0.436   2.650 -0.2535 -0.4642  1.3430
 7889TIP3    H245083   4.962   0.363   2.592 -0.3873  0.3974 -0.0596
 7890TIP3   OH245084   3.465   0.062  15.460  0.3065  0.3100  0.0018
 7890TIP3    H145085   3.440   0.070  15.552 -0.9464  1.5138 -0.4263
 7890TIP3    H245086   3.559   0.078  15.460  0.2789  0.5676  1.0330
 7891TIP3   OH245087   5.367   3.698   1.875 -0.6049  0.1989  0.1722
 7891TIP3    H145088   5.340   3.734   1.790 -3.5973 -1.1611  0.4308
 7891TIP3    H245089   5.366   3.603   1.861 -1.1529 -0.0365  1.7221
 7892TIP3   OH245090   3.962   5.507   3.938  0.1521 -0.4420  0.5284
 7892TIP3    H145091   3.964   5.601   3.917 -0.0836 -0.5422  0.0613
 7892TIP3    H245092   3.899   5.501   4.011 -0.5666 -0.3578 -0.0736
 7893TIP3   OH245093   6.136   4.078  12.667 -0.3800  0.4637  0.3708
 7893TIP3    H145094   6.109   4.149  12.609  2.2369  1.7918  0.6509
 7893TIP3    H245095   6.209   4.113  12.717  1.0100 -2.3901  0.5701
 7894TIP3   OH245096   3.644   3.257  11.722 -0.3322  0.4689  0.1892
 7894TIP3    H145097   3.722   3.228  11.675 -0.6277 -0.8141  0.4337
 7894TIP3    H245098   3.600   3.317  11.662 -0.3967 -0.6692 -0.9340
 7895TIP3   OH245099   2.083   0.386   4.793  0.1475  0.1508  0.2629
 7895TIP3    H145100   2.139   0.309   4.802 -1.0155 -0.5473  2.2140
 7895TIP3    H245101   2.069   0.416   4.883 -0.6090  1.7626 -0.3576
 7896TIP3   OH245102   3.687   2.795   3.614 -0.1696 -0.4488  0.0989
 7896TIP3    H145103   3.715   2.789   3.522  0.3825  1.7075  0.0773
 7896TIP3    H245104   3.592   2.806   3.609 -0.0806  0.2088 -0.2577
 7897TIP3   OH245105   1.679   5.940  11.146  0.6086  0.2342 -0.8142
 7897TIP3    H145106   1.764   5.933  11.190  1.1546  0.2190 -1.8450
 7897TIP3    H245107   1.647   6.027  11.171  0.0761 -0.4366  1.0267
 7898TIP3   OH245108   2.959   3.812  15.630  0.4759  0.7036  0.2657
 7898TIP3    H145109   2.953   3.724  15.594  1.4472  0.2962  1.0745
 7898TIP3    H245110   2.911   3.866  15.567 -1.3233 -0.5836  0.4425
 7899TIP3   OH245111   5.560   6.058   4.515 -0.8662  0.1279  0.1843
 7899TIP3    H145112   5.637   6.001   4.518 -1.0887 -0.3797 -2.1550
 7899TIP3    H245113   5.517   6.045   4.600  0.8243 -0.6793  0.9632
 7900TIP3   OH245114   6.373   2.152  15.362  0.5937  0.6389  0.1908
 7900TIP3    H145115   6.330   2.069  15.378  1.0059  0.3056 -0.4128
 7900TIP3    H245116   6.441   2.157  15.430  1.6339 -0.2802 -0.7389
 7901TIP3   OH245117   4.554   3.388   5.203  0.1504 -0.1850  0.1671
 7901TIP3    H145118   4.585   3.455   5.264 -0.5316 -0.1906  0.5391
 7901TIP3    H245119   4.564   3.306   5.251 -0.1103 -0.2215  0.1598
 7902TIP3   OH245120   6.496   1.535  17.177 -0.3186 -0.6355  0.1680
 7902TIP3    H145121   6.526   1.625  17.187  0.5615 -0.4044 -3.3681
 7902TIP3    H245122   6.401   1.541  17.177 -0.2954  0.0579  1.2993
 7903TIP3   OH245123   1.955   1.038   1.513 -0.4103  0.5219  0.2287
 7903TIP3    H145124   2.023   1.104   1.499  1.2984 -1.3807 -0.8465
 7903TIP3    H245125   1.895   1.050   1.439 -0.0114  0.7378 -0.0652
 7904TIP3   OH245126   1.886   5.069   6.719 -0.3261 -0.6932  0.4869
 7904TIP3    H145127   1.897   5.124   6.797  0.3707  0.2316 -0.2281
 7904TIP3    H245128   1.964   5.088   6.666 -0.1039 -2.3493  0.1882
 7905TIP3   OH245129   5.527   0.894   0.582 -0.0488  0.6276 -0.1312
 7905TIP3    H145130   5.552   0.889   0.490  0.7465 -0.1328  0.1090
 7905TIP3    H245131   5.590   0.956   0.620  0.6258 -0.2483  0.2036
 7906TIP3   OH245132   4.062   5.428  13.711  0.5404  0.4398  0.0523
 7906TIP3    H145133   4.100   5.435  13.799  0.1908  0.8224  0.1739
 7906TIP3    H245134   4.138   5.421  13.653  0.7760  0.1703  0.3819
 7907TIP3   OH245135   0.925   3.384   0.126  0.4226  0.5219 -0.5232
 7907TIP3    H145136   0.991   3.453   0.135  0.9884 -0.0355 -0.2593
 7907TIP3    H245137   0.953   3.334   0.049 -1.0049  1.6521 -1.8161
 7908TIP3   OH245138   0.579   4.994   0.506 -0.2996  0.4092 -0.5173
 7908TIP3    H145139   0.506   5.025   0.560 -2.0417 -1.1525 -1.8608
 7908TIP3    H245140   0.583   5.055   0.433  0.2445  0.9171 -0.0725
 7909TIP3   OH245141   2.900   6.062  14.497 -0.3308  0.0332  0.7520
 7909TIP3    H145142   2.879   5.983  14.447  1.6302  0.0919 -0.2390
 7909TIP3    H245143   2.876   6.135  14.438 -0.2326  0.1468  0.8528
 7910TIP3   OH245144   6.513   0.092   4.566 -0.2904 -0.3336  0.3484
 7910TIP3    H145145   6.468   0.097   4.481 -0.3287 -1.8638  0.2556
 7910TIP3    H245146   6.442   0.083   4.629 -0.2229 -0.1116  0.4552
 7911TIP3   OH245147   1.079   2.802  12.046  0.3756 -0.1420  0.4355
 7911TIP3    H145148   1.005   2.862  12.053  0.1771 -0.4092  0.6501
 7911TIP3    H245149   1.097   2.796  11.952 -0.8648 -1.2710  0.2406
 7912TIP3   OH245150   3.292   4.584  15.739 -0.1901 -0.0902  0.5365
 7912TIP3    H145151   3.309   4.643  15.666 -0.6950  0.6370  0.9955
 7912TIP3    H245152   3.235   4.633  15.798 -0.0334 -0.7667  1.2857
 7913TIP3   OH245153   0.045   1.251   5.632 -0.0646 -0.2651  0.4751
 7913TIP3    H145154  -0.037   1.299   5.622 -0.0635  0.0404  1.8280
 7913TIP3    H245155   0.105   1.313   5.673 -0.1003 -1.4393  2.4073
 7914TIP3   OH245156   5.719   3.516   2.594 -0.3462  0.0534 -0.1099
 7914TIP3    H145157   5.737   3.484   2.682  2.3460 -0.3808 -0.7240
 7914TIP3    H245158   5.752   3.606   2.594  1.4938 -0.5715 -1.1457
 7915TIP3   OH245159   5.241   1.906  13.931 -0.4516  0.3763 -0.4305
 7915TIP3    H145160   5.275   1.987  13.893 -0.3999  0.6586  0.2138
 7915TIP3    H245161   5.147   1.910  13.913 -0.9415  1.9614  2.0266
 7916TIP3   OH245162   5.220   1.457   4.838  0.7022  0.1819  0.5451
 7916TIP3    H145163   5.284   1.396   4.876  0.1804  0.5882  2.1703
 7916TIP3    H245164   5.209   1.428   4.748  1.3620 -1.3881  0.9401
 7917TIP3   OH245165   1.918   2.143   1.765  0.5114 -0.0354 -0.1312
 7917TIP3    H145166   1.994   2.086   1.767  0.9859  0.5702 -0.7104
 7917TIP3    H245167   1.877   2.131   1.851  1.0525 -0.6333  0.0498
 7918TIP3   OH245168   2.007   6.140  17.169  0.0279 -0.0680  0.1328
 7918TIP3    H145169   1.923   6.131  17.215 -0.2241 -0.8066 -0.4563
 7918TIP3    H245170   2.058   6.200  17.224 -0.4669 -0.5009  1.0937
 7919TIP3   OH245171   6.619   6.013  11.336 -0.3868 -0.3286  0.4128
 7919TIP3    H145172   6.652   6.088  11.285 -2.0815  0.6077  0.6162
 7919TIP3    H245173   6.686   5.999  11.403  0.5112  0.2759 -0.3350
 7920TIP3   OH245174   1.743   4.264   6.352  0.6787  0.7377  0.6214
 7920TIP3    H145175   1.655   4.290   6.380  0.4332  1.6559 -0.8808
 7920TIP3    H245176   1.780   4.220   6.428 -0.2484  2.3058  2.0592
 7921TIP3   OH245177   5.858   1.717  15.129  0.0525 -0.1944  0.1899
 7921TIP3    H145178   5.772   1.675  15.135  0.2602 -0.4555  1.5326
 7921TIP3    H245179   5.863   1.747  15.038 -1.6552  0.2568  0.2142
 7922TIP3   OH245180   1.888   1.959   2.718  0.7602  0.2688  0.0429
 7922TIP3    H145181   1.806   2.006   2.727 -0.4508 -0.6380 -3.8926
 7922TIP3    H245182   1.863   1.866   2.714  1.7300  0.0166 -2.0493
 7923TIP3   OH245183   1.066   6.706   5.115  0.9091 -0.5499  0.4790
 7923TIP3    H145184   1.076   6.746   5.029 -1.3786  0.8489  0.7759
 7923TIP3    H245185   1.057   6.612   5.097  1.8316 -0.4457 -0.6459
 7924TIP3   OH245186   6.515   3.917   3.873  0.2050 -0.1897  0.2197
 7924TIP3    H145187   6.442   3.863   3.842 -0.7916  0.4568  1.3548
 7924TIP3    H245188   6.563   3.859   3.932 -0.7320  0.0761  1.2622
 7925TIP3   OH245189   6.170   1.083   4.982 -0.0810  0.4953  0.2259
 7925TIP3    H145190   6.144   1.140   5.055  1.5461  0.9906  0.4476
 7925TIP3    H245191   6.119   1.003   4.995 -1.1456  1.2501  0.8737
 7926TIP3   OH245192   2.105   1.859  13.814  0.4369 -0.8686 -0.5579
 7926TIP3    H145193   2.069   1.780  13.853 -4.3648  0.9167 -0.7885
 7926TIP3    H245194   2.128   1.833  13.725  1.8568 -2.5859  0.2349
 7927TIP3   OH245195   3.202   3.514  12.841 -0.4845  0.4538 -0.3873
 7927TIP3    H145196   3.202   3.595  12.789  3.4139 -0.1885 -1.8054
 7927TIP3    H245197   3.207   3.444  12.775  2.1048 -0.5280  0.7119
 7928TIP3   OH245198   3.880   3.563   3.621 -0.5741  0.0877 -0.4343
 7928TIP3    H145199   3.931   3.594   3.695  3.1896  0.3601 -2.9070
 7928TIP3    H245200   3.861   3.472   3.642  1.1658 -0.0941  0.5442
 7929TIP3   OH245201   4.452   4.907   1.109 -0.0797  0.4500 -0.5941
 7929TIP3    H145202   4.446   4.999   1.135 -2.3571 -0.0235  0.8451
 7929TIP3    H245203   4.429   4.858   1.188  0.6411 -1.3679 -1.4437
 7930TIP3   OH245204   5.089   4.635   5.207 -0.1015  0.3183 -0.0755
 7930TIP3    H145205   5.116   4.580   5.134  0.1211 -1.1613  1.0879
 7930TIP3    H245206   5.127   4.594   5.285 -3.2590 -0.2785  1.3320
 7931TIP3   OH245207   6.308   2.135  11.450 -0.0186  0.0410 -0.2767
 7931TIP3    H145208   6.348   2.130  11.537  0.2945 -1.4807 -0.4910
 7931TIP3    H245209   6.374   2.099  11.391 -1.4972 -2.1958 -0.6787
 7932TIP3   OH245210   3.566   6.597   0.376 -0.1750 -0.3942  0.2418
 7932TIP3    H145211   3.493   6.583   0.436  0.4178  1.5583  1.4905
 7932TIP3    H245212   3.634   6.537   0.407 -1.1608 -2.2135 -0.9199
 7933TIP3   OH245213   2.959   1.039  12.308  0.2637  0.8734  0.7260
 7933TIP3    H145214   3.054   1.053  12.300  0.2029  0.6225 -0.7010
 7933TIP3    H245215   2.922   1.127  12.312  0.3041  1.1567 -2.6193
 7934TIP3   OH245216   5.727   0.475  11.509 -0.0543 -0.2912  0.1787
 7934TIP3    H145217   5.802   0.513  11.463  0.6911 -0.8006  0.9254
 7934TIP3    H245218   5.683   0.550  11.549  0.4431 -0.0457  0.2773
 7935TIP3   OH245219   4.328   0.274  12.054  0.1328 -0.1561 -0.0483
 7935TIP3    H145220   4.369   0.200  12.010 -0.8245  0.0248 -1.2945
 7935TIP3    H245221   4.392   0.345  12.044  0.8215 -0.6608  0.6905
 7936TIP3   OH245222   4.980   2.872   5.651 -0.4210  0.4986 -0.3621
 7936TIP3    H145223   4.932   2.926   5.713  0.1357  0.8804 -0.2563
 7936TIP3    H245224   4.992   2.928   5.574  2.5817  1.6147  0.7429
 7937TIP3   OH245225   4.465   5.403  16.289 -0.3684 -0.2341  0.8519
 7937TIP3    H145226   4.384   5.413  16.340  0.5583  1.2134  2.1517
 7937TIP3    H245227   4.512   5.331  16.333 -0.0537  0.2986  1.4111
 7938TIP3   OH245228   2.394   3.763   3.942 -0.2168  0.2560  0.4020
 7938TIP3    H145229   2.378   3.821   3.868  0.8707  0.2495  0.1581
 7938TIP3    H245230   2.430   3.684   3.903 -1.0690 -0.3450  0.8013
 7939TIP3   OH245231   5.298   4.448   1.426  0.2416 -0.2147  0.5161
 7939TIP3    H145232   5.288   4.544   1.431 -0.5466 -0.2884  0.5655
 7939TIP3    H245233   5.233   4.421   1.361  1.0497 -0.6382 -0.1243
 7940TIP3   OH245234   2.022   0.040  16.993 -0.4550 -0.4542 -0.3575
 7940TIP3    H145235   1.957   0.046  17.063  1.6349  2.3261  1.5992
 7940TIP3    H245236   2.102   0.009  17.036  0.6067  0.1743 -1.7643
 7941TIP3   OH245237   5.710   6.253  13.848 -0.0702 -1.0087  0.7356
 7941TIP3    H145238   5.711   6.348  13.836 -1.2695 -1.1220 -0.5123
 7941TIP3    H245239   5.781   6.222  13.791 -0.2663 -0.9170  0.4371
 7942TIP3   OH245240   0.535   1.065   6.027 -0.1352 -0.1092  0.8174
 7942TIP3    H145241   0.544   1.130   6.096  2.2044  0.3505  0.1916
 7942TIP3    H245242   0.590   1.098   5.956 -2.1395 -0.7467 -1.1529
 7943TIP3   OH245243   0.496   0.311   3.041 -0.3930  0.0743 -0.6850
 7943TIP3    H145244   0.521   0.363   3.117 -0.5714  0.0640 -0.6188
 7943TIP3    H245245   0.545   0.229   3.051 -0.5373  0.0098 -0.4965
 7944TIP3   OH245246   5.061   1.434  14.276  0.0558  0.6214 -0.1332
 7944TIP3    H145247   5.112   1.355  14.294 -0.8977 -0.2840 -1.2016
 7944TIP3    H245248   5.011   1.449  14.356 -0.8140 -0.7168 -0.3954
 7945TIP3   OH245249   5.890   5.201  11.714  0.1464 -0.6049 -0.5262
 7945TIP3    H145250   5.814   5.240  11.672  0.6152  0.3883 -0.4839
 7945TIP3    H245251   5.963   5.257  11.689  0.3754  0.3933  2.0294
 7946TIP3   OH245252   2.147   6.520  11.165 -0.2909  0.4559  0.2810
 7946TIP3    H145253   2.109   6.444  11.210 -0.4374 -0.1339 -0.8277
 7946TIP3    H245254   2.218   6.549  11.223  0.9717 -1.6427 -0.1224
 7947TIP3   OH245255   0.022   5.030   2.181  0.5551  0.0625 -0.1131
 7947TIP3    H145256   0.012   5.125   2.173  0.2430  0.0346 -0.0368
 7947TIP3    H245257  -0.037   5.005   2.252  0.8399 -0.1522  0.0514
 7948TIP3   OH245258   6.730   3.592  12.156  0.2633 -1.3042  0.2542
 7948TIP3    H145259   6.733   3.687  12.162 -0.6142 -1.3021  0.9074
 7948TIP3    H245260   6.753   3.562  12.245 -0.1493 -1.6794  0.2376
 7949TIP3   OH245261   2.290   4.974  13.397  0.2664  0.1880 -0.3115
 7949TIP3    H145262   2.360   5.031  13.429  1.0742 -1.0974  0.2439
 7949TIP3    H245263   2.247   4.941  13.475 -0.3561  0.2052 -0.6366
 7950TIP3   OH245264   1.243   6.596  15.808 -0.3629  0.0911  0.6553
 7950TIP3    H145265   1.294   6.555  15.737 -0.9520 -0.7032  0.6695
 7950TIP3    H245266   1.300   6.665  15.841  0.8026 -0.8927  0.8025
 7951TIP3   OH245267   2.109   5.109   4.009 -0.7849  0.6048  0.0415
 7951TIP3    H145268   2.107   5.026   4.057  2.8757  0.0488 -0.4846
 7951TIP3    H245269   2.081   5.175   4.073 -1.8215 -0.7511  1.0582
 7952TIP3   OH245270   4.719   2.294   5.594 -0.2797  0.6099  0.0800
 7952TIP3    H145271   4.656   2.366   5.592 -0.8930  0.1478  1.5718
 7952TIP3    H245272   4.802   2.336   5.618 -0.0416  1.1702 -1.5768
 7953TIP3   OH245273   1.640   3.377   6.057  0.0405 -0.0276  0.9365
 7953TIP3    H145274   1.702   3.393   6.129 -1.5592 -1.5189  2.7826
 7953TIP3    H245275   1.559   3.419   6.086 -0.2881  0.5229 -0.6812
 7954TIP3   OH245276   4.432   2.919  15.190  0.5028 -0.0663 -0.3528
 7954TIP3    H145277   4.492   2.909  15.115  0.3740 -0.9409 -0.3544
 7954TIP3    H245278   4.467   2.859  15.256  2.5441  3.0121  1.5964
 7955TIP3   OH245279   2.820   3.675  13.938  0.1634 -0.1899  0.3696
 7955TIP3    H145280   2.741   3.656  13.889  1.5584 -0.5571 -1.9038
 7955TIP3    H245281   2.871   3.594  13.934  0.5370 -0.0993  2.1339
 7956TIP3   OH245282   0.540   3.928  14.713 -0.4857  0.4225 -0.0276
 7956TIP3    H145283   0.524   4.013  14.673 -0.8286  0.5279  0.3163
 7956TIP3    H245284   0.628   3.934  14.749  0.8450 -0.5354 -2.8921
 7957TIP3   OH245285   6.309   4.178   2.531 -0.4006  0.0045 -0.4645
 7957TIP3    H145286   6.354   4.150   2.611 -2.5691 -1.3625  0.3512
 7957TIP3    H245287   6.370   4.157   2.461  0.3826 -1.5052  0.6080
 7958TIP3   OH245288   4.374   2.365   2.810 -0.2461  0.4059  0.7706
 7958TIP3    H145289   4.332   2.357   2.725 -0.4585  0.0571  0.9074
 7958TIP3    H245290   4.390   2.275   2.838 -0.0130  0.5229  1.0169
 7959TIP3   OH245291   0.644   2.710   3.030  0.3983  0.3900 -0.1089
 7959TIP3    H145292   0.683   2.786   2.987  0.9235  0.9016  1.2266
 7959TIP3    H245293   0.719   2.656   3.055  0.0671 -0.1832 -0.3414
 7960TIP3   OH245294   2.689   4.137   4.863 -0.3642  0.2917 -0.3194
 7960TIP3    H145295   2.709   4.109   4.952  0.1767 -0.6574 -0.7228
 7960TIP3    H245296   2.595   4.123   4.854 -0.2472 -0.6448 -0.2304
 7961TIP3   OH245297   6.531   1.724   0.302  0.2428 -0.5925 -0.5903
 7961TIP3    H145298   6.549   1.774   0.222  2.3627  0.5562  0.4965
 7961TIP3    H245299   6.609   1.738   0.356 -1.1335 -1.2945  1.6967
 7962TIP3   OH245300   4.450   4.830   1.634  0.0025 -0.0033 -0.2949
 7962TIP3    H145301   4.437   4.896   1.566  1.7268  0.8031  0.1115
 7962TIP3    H245302   4.514   4.869   1.694  0.0241 -1.4967  0.7154
 7963TIP3   OH245303   2.293   2.562   4.889 -0.5122 -0.0666 -0.2518
 7963TIP3    H145304   2.366   2.625   4.887 -0.0640 -0.5725 -0.0776
 7963TIP3    H245305   2.215   2.615   4.875 -0.0974  0.4711 -0.5704
 7964TIP3   OH245306   5.511   1.693   3.677  0.0318 -0.0116  0.1840
 7964TIP3    H145307   5.427   1.740   3.680  0.0205 -0.0190 -0.0094
 7964TIP3    H245308   5.490   1.606   3.712 -0.8285 -1.1860 -2.9525
 7965TIP3   OH245309   6.205   4.468   3.588 -0.8156 -1.1671  0.3052
 7965TIP3    H145310   6.243   4.433   3.669 -1.2795 -0.9067  0.6483
 7965TIP3    H245311   6.159   4.394   3.549  0.2466 -1.5501 -0.2488
 7966TIP3   OH245312   6.734   6.749  14.442 -0.6392  0.2651  0.4057
 7966TIP3    H145313   6.663   6.738  14.506  0.9373 -0.6317  2.0789
 7966TIP3    H245314   6.804   6.791  14.490 -0.0458  1.2666 -1.2630
 7967TIP3   OH245315   5.486   1.287  12.894 -0.0887 -0.4194  0.0415
 7967TIP3    H145316   5.413   1.312  12.836  0.4348  2.4271  0.4821
 7967TIP3    H245317   5.554   1.255  12.835 -0.5758 -0.1638 -0.6668
 7968TIP3   OH245318   5.996   1.309   1.213  0.0998 -0.1268  0.7182
 7968TIP3    H145319   6.024   1.342   1.299  0.8904 -0.9251  0.7801
 7968TIP3    H245320   6.064   1.338   1.152  0.2287 -0.6799  0.5900
 7969TIP3   OH245321   2.485   0.994  16.227 -0.2864 -0.4517 -0.1366
 7969TIP3    H145322   2.480   0.930  16.156  0.6885 -0.2199 -0.4296
 7969TIP3    H245323   2.510   1.076  16.185  0.0863 -0.2596  0.4338
 7970TIP3   OH245324   3.277   0.845   1.334  0.4902 -0.3547  0.0002
 7970TIP3    H145325   3.237   0.762   1.359 -0.9630  0.1996 -0.3791
 7970TIP3    H245326   3.334   0.867   1.407 -0.2744 -0.9371  0.7978
 7971TIP3   OH245327   5.672   0.706  14.363  0.0451 -0.3245  0.6144
 7971TIP3    H145328   5.674   0.801  14.355 -0.8576 -0.1843  1.7640
 7971TIP3    H245329   5.710   0.674  14.282  0.0422  1.0160  0.0652
 7972TIP3   OH245330   5.753   0.665   2.169  0.2086 -0.4640 -0.2253
 7972TIP3    H145331   5.810   0.716   2.228  0.3540  0.4641 -1.1476
 7972TIP3    H245332   5.682   0.634   2.226 -0.0297  1.0009  0.3249
 7973TIP3   OH245333   4.525   2.759   3.372  0.2080 -0.3576  0.0889
 7973TIP3    H145334   4.590   2.731   3.308  2.0885  1.7241  0.9673
 7973TIP3    H245335   4.484   2.836   3.332 -0.1307 -0.3245  0.4962
 7974TIP3   OH245336   1.717   3.891  11.913  0.1919 -0.6311  0.1944
 7974TIP3    H145337   1.622   3.880  11.925 -0.2790  1.8412 -0.6666
 7974TIP3    H245338   1.750   3.911  12.000 -0.2628 -0.4877  0.3397
 7975TIP3   OH245339   2.418   5.717   5.247 -0.8450 -0.1269 -0.1550
 7975TIP3    H145340   2.484   5.772   5.289  0.7038 -1.5614 -0.5902
 7975TIP3    H245341   2.386   5.770   5.174 -0.1648  0.6012  0.0517
 7976TIP3   OH245342   0.719   1.040   3.190 -0.0122  0.2608  0.4468
 7976TIP3    H145343   0.781   1.010   3.256  0.4207 -0.8752 -0.4319
 7976TIP3    H245344   0.693   1.127   3.219  1.6574  0.5965  1.0802
 7977TIP3   OH245345   6.742   4.724  14.976 -0.2308 -0.4007  0.2737
 7977TIP3    H145346   6.800   4.676  15.035  0.2425 -1.1440 -0.7447
 7977TIP3    H245347   6.777   4.812  14.974  0.1640 -0.5491  0.5670
 7978TIP3   OH245348   0.100   5.372  15.127  0.2534 -0.2260 -0.1206
 7978TIP3    H145349   0.054   5.348  15.208  0.0002 -1.8903 -0.7131
 7978TIP3    H245350   0.040   5.430  15.082 -0.7936 -1.4217 -0.3259
 7979TIP3   OH245351   1.211   0.437  16.279 -0.2658 -0.4832  0.1477
 7979TIP3    H145352   1.210   0.347  16.311 -1.4985 -0.1946  0.9999
 7979TIP3    H245353   1.126   0.473  16.304  0.7927  1.4164  1.2971
 7980TIP3   OH245354   1.643   4.925  10.398 -0.1203 -0.4720 -0.1930
 7980TIP3    H145355   1.657   4.991  10.330 -0.8997 -0.1645 -0.0708
 7980TIP3    H245356   1.715   4.938  10.459 -0.2266  0.2324 -0.2032
 7981TIP3   OH245357   0.535   3.913  13.312 -0.1960  0.4061  0.3306
 7981TIP3    H145358   0.544   3.844  13.246  0.2643  0.7078  0.0800
 7981TIP3    H245359   0.480   3.979  13.271 -0.4788  0.2815  0.5034
 7982TIP3   OH245360   0.946   4.332   4.264  0.0305  0.6234  0.3920
 7982TIP3    H145361   0.894   4.384   4.203  2.0186  2.4730  0.1367
 7982TIP3    H245362   0.960   4.249   4.219 -0.0144  1.2973 -0.9224
 7983TIP3   OH245363   3.781   4.788  15.804 -0.1358  0.0515 -0.1487
 7983TIP3    H145364   3.694   4.802  15.767 -0.2069  0.8617  0.2992
 7983TIP3    H245365   3.835   4.762  15.729 -0.7931 -0.6288 -0.3991
 7984TIP3   OH245366   1.059   0.793   5.282 -0.3083  0.0673  0.6168
 7984TIP3    H145367   0.995   0.861   5.304 -0.1760  0.4931 -0.2811
 7984TIP3    H245368   1.144   0.831   5.306  0.1027  1.4875 -2.5661
 7985TIP3   OH245369   6.061   2.307  14.283 -0.3735  0.7336  0.3387
 7985TIP3    H145370   6.016   2.261  14.353 -2.8434  1.1753 -0.8507
 7985TIP3    H245371   6.108   2.239  14.235 -1.1137 -0.0302  0.6756
 7986TIP3   OH245372   0.643   0.796  11.131  0.6646  0.5068  0.0166
 7986TIP3    H145373   0.725   0.745  11.127  0.1134 -0.4092 -0.0050
 7986TIP3    H245374   0.597   0.772  11.051  0.2574  0.8175  0.1582
 7987TIP3   OH245375   5.672   5.915  13.785 -1.1976  0.0107  0.2303
 7987TIP3    H145376   5.588   5.908  13.831 -0.8799 -2.1085  0.5945
 7987TIP3    H245377   5.734   5.944  13.852 -1.4085  0.3950  0.2601
 7988TIP3   OH245378   2.802   3.242  15.603  0.4697  0.0859 -0.6273
 7988TIP3    H145379   2.807   3.326  15.647 -1.0323 -0.5701  0.8940
 7988TIP3    H245380   2.762   3.261  15.518  0.3966  0.9249 -0.4088
 7989TIP3   OH245381   3.377   2.879  14.587 -0.2914  0.4367  0.0648
 7989TIP3    H145382   3.328   2.960  14.577  0.5548  0.8501 -0.9008
 7989TIP3    H245383   3.455   2.891  14.533  0.2665 -0.6851  0.5844
 7990TIP3   OH245384   0.771   1.310  12.405  0.3687  0.0972 -0.0186
 7990TIP3    H145385   0.722   1.239  12.445 -0.7156 -0.5976 -2.3855
 7990TIP3    H245386   0.861   1.279  12.402  0.6938  0.5779  2.6153
 7991TIP3   OH245387   4.692   2.595  13.220  0.3030  0.4016  0.6924
 7991TIP3    H145388   4.700   2.539  13.297  2.3120 -0.4324 -0.0422
 7991TIP3    H245389   4.615   2.561  13.175  0.6234 -0.8490  1.0253
 7992TIP3   OH245390   4.767   2.179   5.064  0.4097 -0.7736 -0.2258
 7992TIP3    H145391   4.831   2.219   5.004 -0.3466 -0.1488 -0.6305
 7992TIP3    H245392   4.793   2.209   5.151 -1.3010  2.3637 -0.6584
 7993TIP3   OH245393   5.201   0.337  12.460 -0.6661  0.0722  0.2373
 7993TIP3    H145394   5.177   0.428  12.446 -1.4189  0.0339  1.1742
 7993TIP3    H245395   5.143   0.287  12.401 -0.1380  0.1948 -0.3997
 7994TIP3   OH245396   3.629   1.511  11.732  0.0395  0.7263  0.4793
 7994TIP3    H145397   3.646   1.579  11.668  1.7225 -0.1133 -0.0145
 7994TIP3    H245398   3.715   1.487  11.766 -0.7706  0.8710  2.8064
 7995TIP3   OH245399   2.111   3.440  16.060  0.1940 -0.1191  0.3912
 7995TIP3    H145400   2.121   3.533  16.037 -0.6007  0.0844  0.8286
 7995TIP3    H245401   2.195   3.401  16.036  0.0548  0.4333 -1.1194
 7996TIP3   OH245402   5.775   5.827  15.953  0.1583  0.2426  0.4976
 7996TIP3    H145403   5.826   5.745  15.946  0.7998  0.2913  3.1642
 7996TIP3    H245404   5.692   5.808  15.910  0.1874 -1.9618  1.2772
 7997TIP3   OH245405   5.888   5.980  12.331  0.2787  0.9001  0.0061
 7997TIP3    H145406   5.857   6.066  12.359  2.1731  1.3211  0.9897
 7997TIP3    H245407   5.816   5.944  12.279 -2.3270  1.2860  3.0593
 7998TIP3   OH245408   2.750   1.893   0.653 -0.5998 -0.4338  0.3686
 7998TIP3    H145409   2.720   1.984   0.655 -1.7370 -0.7975  0.7403
 7998TIP3    H245410   2.690   1.850   0.592  1.2535 -0.5179 -1.5215
 7999TIP3   OH245411   2.093   4.344   0.862  0.1975  0.6582 -0.3802
 7999TIP3    H145412   2.111   4.391   0.781 -1.4254  1.5691 -0.2554
 7999TIP3    H245413   2.104   4.252   0.839 -0.4664  0.8872 -1.6939
 8000TIP3   OH245414   6.233   5.748  13.272 -0.2076  0.6070 -0.6857
 8000TIP3    H145415   6.275   5.827  13.305  2.0409 -0.4990 -0.7036
 8000TIP3    H245416   6.192   5.709  13.349  0.5511  0.6915 -0.2249
 8001TIP3   OH245417   6.369   1.672   1.774 -0.3573 -0.2354  0.3213
 8001TIP3    H145418   6.446   1.648   1.826 -0.3427  0.8950  0.8349
 8001TIP3    H245419   6.361   1.766   1.784  0.0050  0.1539 -2.2191
 8002TIP3   OH245420   3.284   5.049   3.763  0.1527 -0.0013 -0.2587
 8002TIP3    H145421   3.190   5.059   3.749  0.2523 -0.9558 -1.8609
 8002TIP3    H245422   3.293   5.033   3.857 -1.3402 -0.4356 -0.1636
 8003TIP3   OH245423   4.072   2.385   2.070  0.0722  0.0103 -0.5353
 8003TIP3    H145424   4.141   2.437   2.112  0.0015  0.3486 -0.8333
 8003TIP3    H245425   4.117   2.305   2.042  0.0387 -0.3912  0.5159
 8004TIP3   OH245426   2.480   1.790  14.559  0.2140 -0.1758 -0.0168
 8004TIP3    H145427   2.521   1.801  14.473  0.1694  0.0916 -0.0054
 8004TIP3    H245428   2.536   1.840  14.619 -1.1800  1.8465 -0.3030
 8005TIP3   OH245429   3.967   3.284  11.916  0.4865 -0.1741 -0.4272
 8005TIP3    H145430   3.963   3.298  12.011 -2.6300  0.0196 -0.4840
 8005TIP3    H245431   3.928   3.363  11.879 -1.6981 -1.6904 -1.6047
 8006TIP3   OH245432   6.263   0.768  16.375 -0.4827 -0.0327  0.5845
 8006TIP3    H145433   6.287   0.695  16.318 -1.6843 -1.3004  1.6266
 8006TIP3    H245434   6.290   0.846  16.327 -0.9873 -1.0682 -1.4859
 8007TIP3   OH245435   6.152   2.008  15.230  0.2136 -0.2083 -0.0500
 8007TIP3    H145436   6.104   2.015  15.147  1.4965 -1.8534 -0.9792
 8007TIP3    H245437   6.186   1.919  15.231  1.1859  0.1393  1.7427
 8008TIP3   OH245438   3.592   3.701   1.820 -0.5198  0.4721 -0.3489
 8008TIP3    H145439   3.603   3.623   1.766 -1.3216 -0.2636  0.5178
 8008TIP3    H245440   3.504   3.732   1.801 -1.5449 -0.8826  1.8578
 8009TIP3   OH245441   5.464   2.601   2.937 -0.3557 -0.2189  0.3154
 8009TIP3    H145442   5.493   2.666   2.874  2.2023 -1.3575  0.2265
 8009TIP3    H245443   5.494   2.634   3.022 -1.6779  0.1348  0.6685
 8010TIP3   OH245444   2.395   2.753  13.814  0.3466  0.3304  0.8984
 8010TIP3    H145445   2.399   2.690  13.886  0.4498 -2.1034 -1.1127
 8010TIP3    H245446   2.486   2.764  13.787  0.2396  0.6862  0.6794
 8011TIP3   OH245447   5.861   5.493  13.058 -0.4567  0.3000  0.1817
 8011TIP3    H145448   5.827   5.435  12.990 -1.9404  1.1572  0.1644
 8011TIP3    H245449   5.948   5.457  13.077 -0.3668 -0.5084 -1.4960
 8012TIP3   OH245450   6.726   1.384  15.565 -0.9216 -0.1892  0.1648
 8012TIP3    H145451   6.666   1.353  15.632 -0.9209  0.7901  0.6404
 8012TIP3    H245452   6.670   1.418  15.496 -0.9367  0.4986  0.5007
 8013TIP3   OH245453   0.141   2.961   4.135 -0.2166  0.0204 -0.4983
 8013TIP3    H145454   0.195   2.926   4.206  0.6276  0.5294 -0.8867
 8013TIP3    H245455   0.098   2.884   4.098 -1.3227 -0.1765  1.0787
 8014TIP3   OH245456   0.918   0.080   1.034  0.1352 -0.2091  0.1643
 8014TIP3    H145457   0.840   0.084   0.978 -0.7286 -1.5905  1.2014
 8014TIP3    H245458   0.883   0.072   1.123  1.4498 -0.7848  0.6473
 8015TIP3   OH245459   3.947   5.400  13.040 -0.3246  0.6545 -0.3160
 8015TIP3    H145460   3.990   5.473  12.995  0.7835 -0.2140 -0.7360
 8015TIP3    H245461   3.979   5.322  12.994 -1.5220 -0.0987  0.0816
 8016TIP3   OH245462   2.730   5.393   0.876  0.5238  0.1817  0.5415
 8016TIP3    H145463   2.704   5.425   0.962 -0.9695 -1.5740  0.8226
 8016TIP3    H245464   2.814   5.349   0.891  0.3013 -0.0632  1.1040
 8017TIP3   OH245465   4.877   3.088   5.040 -0.3949  0.0996  0.8878
 8017TIP3    H145466   4.837   3.037   5.111 -1.4117  1.8962  1.6735
 8017TIP3    H245467   4.932   3.152   5.085 -0.2624  0.6221 -0.0095
 8018TIP3   OH245468   5.834   4.310   5.674  0.6131 -0.4123 -1.0321
 8018TIP3    H145469   5.813   4.381   5.614 -1.1967 -0.7236 -0.8166
 8018TIP3    H245470   5.796   4.232   5.633 -1.1032 -0.5559  0.6886
 8019TIP3   OH245471   6.283   4.760   4.190 -0.0038 -0.2263  0.0957
 8019TIP3    H145472   6.199   4.805   4.199  0.0028 -0.2493  0.2978
 8019TIP3    H245473   6.298   4.721   4.276 -0.2534 -1.0348 -0.2239
 8020TIP3   OH245474   0.717   4.612  16.569 -0.0085  0.5509 -0.6332
 8020TIP3    H145475   0.674   4.648  16.646  0.4872  0.9653 -0.5436
 8020TIP3    H245476   0.727   4.687  16.510  0.0468  0.3355 -0.9018
 8021TIP3   OH245477   3.960   0.962   2.910 -0.2357 -0.4948  0.1383
 8021TIP3    H145478   4.028   1.014   2.952 -1.5927  1.1929  0.3750
 8021TIP3    H245479   3.913   0.921   2.982 -3.5342  3.6137  0.6804
 8022TIP3   OH245480   4.751   5.273   4.569  0.7571 -0.2567  0.2119
 8022TIP3    H145481   4.799   5.320   4.637 -2.0416  3.1891  0.0987
 8022TIP3    H245482   4.789   5.306   4.487  0.8467 -0.6591  0.0864
 8023TIP3   OH245483   1.539   3.779   5.669  0.3443  0.1683 -0.0987
 8023TIP3    H145484   1.630   3.782   5.697  0.0369  1.0426  0.9051
 8023TIP3    H245485   1.542   3.794   5.574  1.1824  1.4807  0.1072
 8024TIP3   OH245486   6.689   6.107  11.838 -0.4076 -0.0822  1.4430
 8024TIP3    H145487   6.665   6.177  11.777  0.6125 -1.3838 -0.5261
 8024TIP3    H245488   6.665   6.026  11.793  1.3022 -1.1333  2.3374
 8025TIP3   OH245489   4.324   3.880   2.332  0.2543  0.1528  0.1304
 8025TIP3    H145490   4.355   3.790   2.330  0.0394 -0.0332  2.2818
 8025TIP3    H245491   4.404   3.933   2.336  0.3829 -0.1142  1.5976
 8026TIP3   OH245492   6.776   5.082  14.708 -0.4583  0.2752  0.4938
 8026TIP3    H145493   6.712   5.012  14.696 -0.9229  0.7919 -0.1429
 8026TIP3    H245494   6.843   5.065  14.642  0.2525 -0.4599  1.3869
 8027TIP3   OH245495   6.638   5.613   2.929  0.0173 -0.3982  0.0112
 8027TIP3    H145496   6.645   5.573   3.015  0.3720 -1.7559 -0.6072
 8027TIP3    H245497   6.729   5.618   2.898  0.0308  1.4031  0.2705
 8028TIP3   OH245498   4.780   0.518   0.292 -0.4728  0.0349  0.0184
 8028TIP3    H145499   4.748   0.605   0.314 -2.8263 -0.2397 -1.9067
 8028TIP3    H245500   4.784   0.471   0.376  1.0631  1.9664  1.1178
 8029TIP3   OH245501   5.713   3.109  14.887  0.7205 -0.0314 -0.2078
 8029TIP3    H145502   5.748   3.172  14.824 -0.6648  3.0720  1.8487
 8029TIP3    H245503   5.711   3.157  14.970 -3.5008 -1.6333  0.8726
 8030TIP3   OH245504   0.385   1.631   5.425 -0.7300  0.6971 -0.1237
 8030TIP3    H145505   0.317   1.571   5.394 -1.0658  1.1078 -0.1967
 8030TIP3    H245506   0.445   1.575   5.474  0.2915 -0.1366 -2.2005
 8031TIP3   OH245507   0.953   5.373   1.642  0.0752 -0.2078 -0.2803
 8031TIP3    H145508   0.913   5.363   1.728 -1.8203 -1.5615 -1.2314
 8031TIP3    H245509   0.987   5.463   1.641 -2.3693  0.8256  0.9216
 8032TIP3   OH245510   1.023   0.763   0.024 -0.0198 -0.0779  0.2645
 8032TIP3    H145511   0.941   0.794  -0.014  0.0292  0.1505  0.3436
 8032TIP3    H245512   1.013   0.668   0.027  0.0559 -0.1209 -0.5129
 8033TIP3   OH245513   2.153   2.710   0.015  0.7634 -0.6450  0.0966
 8033TIP3    H145514   2.124   2.664  -0.064 -1.7650  0.2341  0.4280
 8033TIP3    H245515   2.203   2.785  -0.018 -1.4594  0.5213 -0.8182
 8034TIP3   OH245516   5.684   5.882   5.478 -0.2444  0.2514  0.0484
 8034TIP3    H145517   5.764   5.882   5.425 -2.0104 -1.2090 -2.8803
 8034TIP3    H245518   5.652   5.972   5.475  0.5344  0.5279  0.0114
 8035TIP3   OH245519   1.434   3.196  12.257  0.1685 -0.2395 -0.5361
 8035TIP3    H145520   1.383   3.202  12.176  2.0655  2.7461 -1.6700
 8035TIP3    H245521   1.491   3.120  12.244  1.0634  0.6841 -2.4845
 8036TIP3   OH245522   2.137   0.228   0.031 -0.2668 -0.3567 -0.3685
 8036TIP3    H145523   2.094   0.244   0.115  0.5328 -0.8115  0.1418
 8036TIP3    H245524   2.182   0.310   0.011 -2.0521  0.4525 -1.3629
 8037TIP3   OH245525   1.370   0.267  14.292  0.7530 -0.6008  0.1385
 8037TIP3    H145526   1.340   0.338  14.235 -0.0678 -1.1208 -0.0852
 8037TIP3    H245527   1.449   0.233  14.249 -0.1657 -1.3585 -1.0098
 8038TIP3   OH245528   1.641   3.501   2.691  0.0632  0.1166  0.0755
 8038TIP3    H145529   1.654   3.596   2.691  1.5174 -0.0687 -0.2140
 8038TIP3    H245530   1.675   3.471   2.775 -0.2521 -0.1782  0.1037
 8039TIP3   OH245531   5.847   4.909  14.033  0.3652  0.3266 -0.0019
 8039TIP3    H145532   5.761   4.951  14.036  0.7605  1.1645 -0.1171
 8039TIP3    H245533   5.828   4.817  14.011 -0.4632  0.6188 -0.5729
 8040TIP3   OH245534   5.995   2.068   5.284 -0.3118  0.7947 -0.1918
 8040TIP3    H145535   5.915   2.070   5.337  0.0833 -1.1182  0.5635
 8040TIP3    H245536   6.034   1.982   5.302  1.1414  1.0778 -1.7039
 8041TIP3   OH245537   1.480   3.427   2.151  0.0450 -0.4535  0.0553
 8041TIP3    H145538   1.458   3.451   2.061  0.9174 -1.1510 -0.3620
 8041TIP3    H245539   1.483   3.331   2.149  0.8558 -0.4448  0.6298
 8042TIP3   OH245540   4.900   6.066   1.203 -0.1359  0.3779 -0.0545
 8042TIP3    H145541   4.907   5.975   1.175 -0.0270  0.9742 -2.1150
 8042TIP3    H245542   4.967   6.075   1.271  0.0611 -0.9859 -0.0391
 8043TIP3   OH245543   4.107   1.644  14.163  0.3708 -0.0153 -0.1125
 8043TIP3    H145544   4.144   1.710  14.104  0.9918 -0.9057 -0.7538
 8043TIP3    H245545   4.177   1.580  14.174 -0.0840 -0.3651  0.8218
 8044TIP3   OH245546   3.632   3.104  12.913  0.3563 -0.1914 -1.1434
 8044TIP3    H145547   3.540   3.080  12.918  0.6123 -1.1598 -0.8634
 8044TIP3    H245548   3.671   3.069  12.994  1.0758 -0.2954 -1.5227
 8045TIP3   OH245549   4.923   2.386  11.490 -0.0242  0.3983  0.5287
 8045TIP3    H145550   4.936   2.400  11.584  0.5170 -0.0696  0.5222
 8045TIP3    H245551   4.877   2.465  11.461 -1.7626 -0.1923  1.5089
 8046TIP3   OH245552   1.992   4.423  13.433  0.1580 -0.3207  0.1735
 8046TIP3    H145553   2.029   4.468  13.357  0.2610 -0.0991  0.3546
 8046TIP3    H245554   2.064   4.372  13.468  0.4731  0.6015  0.9007
 8047TIP3   OH245555   4.436   2.777  14.179 -0.1251  0.0381 -0.5988
 8047TIP3    H145556   4.436   2.682  14.169 -0.6665  0.0003 -0.2560
 8047TIP3    H245557   4.452   2.791  14.272 -1.3540  0.2537 -0.4115
 8048TIP3   OH245558   6.566   5.339  15.620 -0.3917  0.1463  0.0254
 8048TIP3    H145559   6.625   5.335  15.695 -0.7130 -2.4010  0.2533
 8048TIP3    H245560   6.501   5.405  15.643  0.5434  0.6940  1.1775
 8049TIP3   OH245561   4.545   5.560  15.771 -0.0885  0.4906 -0.0042
 8049TIP3    H145562   4.587   5.557  15.684 -1.0484  1.7435 -0.5462
 8049TIP3    H245563   4.460   5.602  15.755 -0.7825 -0.3379  1.3660
 8050TIP3   OH245564   5.676   1.925  12.080  0.4482 -0.0640  0.3030
 8050TIP3    H145565   5.646   1.899  11.993  1.1017 -2.0301  0.6104
 8050TIP3    H245566   5.600   1.912  12.136  0.3955 -0.0181  0.2441
 8051TIP3   OH245567   3.921   1.861   3.749 -0.6858 -0.0375 -0.1675
 8051TIP3    H145568   3.828   1.843   3.736 -0.9833  0.1476  1.4041
 8051TIP3    H245569   3.957   1.870   3.661 -1.9810 -0.9536 -0.8263
 8052TIP3   OH245570   1.444   3.306  11.067 -0.1798 -0.2451 -0.1729
 8052TIP3    H145571   1.525   3.323  11.114  0.3087  0.9436 -1.3873
 8052TIP3    H245572   1.395   3.247  11.125  1.1764 -0.3278  0.9512
 8053TIP3   OH245573   5.235   5.717   2.462 -0.1727 -0.1092 -0.3175
 8053TIP3    H145574   5.303   5.706   2.396 -0.5996 -0.5883 -0.6799
 8053TIP3    H245575   5.228   5.812   2.474  2.0681 -0.0466  1.3020
 8054TIP3   OH245576   3.486   3.585   0.616  0.0890  0.3169 -0.4938
 8054TIP3    H145577   3.468   3.493   0.637  1.7521  0.0678  0.0392
 8054TIP3    H245578   3.539   3.616   0.690  1.1881  1.1347 -1.5862
 8055TIP3   OH245579   5.206   6.525  11.307 -0.4356  0.3675 -0.8252
 8055TIP3    H145580   5.299   6.501  11.303 -0.0366  1.5813  0.4039
 8055TIP3    H245581   5.194   6.582  11.231  0.1022  1.0505 -0.4114
 8056TIP3   OH245582   0.597   2.949  13.832  0.0224 -0.7904  0.0980
 8056TIP3    H145583   0.686   2.983  13.823  0.4608 -1.6580  0.9556
 8056TIP3    H245584   0.604   2.856  13.808 -0.5433 -0.9916  0.6858
 8057TIP3   OH245585   6.138   2.801  14.789 -0.0543 -0.6160  0.3608
 8057TIP3    H145586   6.176   2.754  14.715  1.9632 -0.2270  1.0996
 8057TIP3    H245587   6.079   2.866  14.749  1.3333 -0.1019 -0.9373
 8058TIP3   OH245588   0.276   3.034   0.011  0.3826  0.1171  0.2083
 8058TIP3    H145589   0.299   2.992   0.094 -0.1115 -2.6427 -0.9471
 8058TIP3    H245590   0.181   3.028   0.007  0.4309 -0.1039 -0.7108
 8059TIP3   OH245591   3.674   1.810  13.606  0.5873  0.5769  0.9206
 8059TIP3    H145592   3.734   1.881  13.582  0.5828  0.0537 -0.7646
 8059TIP3    H245593   3.680   1.748  13.534 -1.4697  0.1757  1.0336
 8060TIP3   OH245594   3.111   5.151   5.181 -0.6493 -0.1733 -0.2181
 8060TIP3    H145595   3.077   5.145   5.091  1.3597  4.4071 -1.5356
 8060TIP3    H245596   3.206   5.148   5.172 -0.3627 -2.2419  2.2067
 8061TIP3   OH245597   1.857   2.487   1.836  0.8953  0.6966  0.1579
 8061TIP3    H145598   1.927   2.424   1.823 -1.7477 -1.9167 -3.2326
 8061TIP3    H245599   1.799   2.446   1.899  0.1749  0.6426 -0.5257
 8062TIP3   OH245600   1.148   5.954   2.062 -0.0884 -0.3476 -1.3584
 8062TIP3    H145601   1.106   5.868   2.071  0.4332 -0.5091 -0.2234
 8062TIP3    H245602   1.182   5.955   1.973  3.2940 -2.9521 -0.3392
 8063TIP3   OH245603   0.665   1.556   3.174 -0.1945  0.6946  0.0609
 8063TIP3    H145604   0.629   1.603   3.099 -0.9119  1.0380  0.6050
 8063TIP3    H245605   0.640   1.609   3.250 -2.3174 -1.2740  0.8563
 8064TIP3   OH245606   5.040   0.874  12.446  0.1664 -0.5343  0.2207
 8064TIP3    H145607   4.967   0.906  12.393  0.3009  0.5637  0.6643
 8064TIP3    H245608   5.060   0.947  12.505  1.3846 -0.9567  0.3515
 8065TIP3   OH245609   0.531   4.532   4.387  0.2325 -0.2197  0.0383
 8065TIP3    H145610   0.557   4.545   4.296 -0.8071 -1.0058 -0.3846
 8065TIP3    H245611   0.464   4.463   4.384 -1.0482  0.9192  1.2194
 8066TIP3   OH245612   1.081   0.560  11.083  0.1994  0.1493 -0.7302
 8066TIP3    H145613   1.001   0.582  11.036  0.1018  0.0039 -0.6333
 8066TIP3    H245614   1.135   0.513  11.019  0.8414  1.5477 -1.2496
 8067TIP3   OH245615   6.756   2.033  11.842 -0.1507  0.5247  0.0393
 8067TIP3    H145616   6.794   2.106  11.892 -2.0212  1.7438 -0.1939
 8067TIP3    H245617   6.663   2.056  11.834 -0.6709 -1.6040 -0.6054
 8068TIP3   OH245618   0.495   5.451   5.534 -0.2655 -0.0101 -0.7220
 8068TIP3    H145619   0.433   5.392   5.578 -0.4379 -0.9386 -2.1618
 8068TIP3    H245620   0.440   5.514   5.488 -0.0867  0.7229  0.0379
 8069TIP3   OH245621   0.943   2.529  15.187  0.3628  0.7056 -0.0969
 8069TIP3    H145622   1.003   2.569  15.250  1.1641 -0.8328  0.1395
 8069TIP3    H245623   0.995   2.464  15.141 -1.3003 -1.4018  0.7862
 8070TIP3   OH245624   2.109   1.646   1.099 -0.1542  0.4854  0.3587
 8070TIP3    H145625   2.113   1.620   1.008 -0.6673  2.8679 -0.4260
 8070TIP3    H245626   2.201   1.649   1.127  0.0752  0.7926 -0.4177
 8071TIP3   OH245627   0.558   4.461  11.406  0.4067 -1.0576 -0.0175
 8071TIP3    H145628   0.570   4.400  11.479 -1.1507 -2.1783 -0.6684
 8071TIP3    H245629   0.595   4.415  11.330  1.7793 -0.0025 -0.0396
 8072TIP3   OH245630   5.306   2.617  11.987  0.0125  0.2551 -0.1346
 8072TIP3    H145631   5.383   2.630  11.932 -0.0170  0.1524 -0.2000
 8072TIP3    H245632   5.324   2.536  12.034 -0.0727  0.2145 -0.1742
 8073TIP3   OH245633   0.343   4.492  16.077  0.3603  0.0524 -0.6265
 8073TIP3    H145634   0.258   4.449  16.078 -0.3731  1.3984  1.0287
 8073TIP3    H245635   0.344   4.543  15.997  0.1356 -0.9047 -1.2569
 8074TIP3   OH245636   2.088   0.034   0.745 -0.4578 -0.3364 -0.2609
 8074TIP3    H145637   2.042  -0.047   0.721 -0.3867 -0.3194 -0.4586
 8074TIP3    H245638   2.022   0.103   0.738 -0.4421 -0.3346 -0.3832
 8075TIP3   OH245639   1.536   3.034  16.587  0.3836  0.3933  0.0748
 8075TIP3    H145640   1.604   3.041  16.520  0.0308 -0.5555 -0.3995
 8075TIP3    H245641   1.583   3.048  16.670  0.6352  2.7472 -0.3802
 8076TIP3   OH245642   4.786   6.714  11.276  0.1960 -0.2639  0.1071
 8076TIP3    H145643   4.800   6.673  11.191 -2.1914 -3.1133  0.9496
 8076TIP3    H245644   4.700   6.754  11.270 -0.0612 -0.6108  1.1952
 8077TIP3   OH245645   4.600   6.494  13.653 -0.4020 -0.0198  0.0137
 8077TIP3    H145646   4.649   6.575  13.637  0.6657 -0.9583 -1.8280
 8077TIP3    H245647   4.508   6.520  13.650 -0.0668  1.2866  0.5566
 8078TIP3   OH245648   5.738   3.711   0.487 -0.3720 -0.2053  0.0321
 8078TIP3    H145649   5.647   3.735   0.501 -1.2873 -3.1232 -0.3071
 8078TIP3    H245650   5.751   3.717   0.393 -0.4287 -0.5267  0.0052
 8079TIP3   OH245651   3.465   1.211   3.945  0.5521  0.2067 -0.3517
 8079TIP3    H145652   3.463   1.163   3.862 -1.7379  1.8549 -1.3670
 8079TIP3    H245653   3.549   1.257   3.944  1.5396 -1.5291 -0.6559
 8080TIP3   OH245654   6.406   6.139   1.897 -0.3254 -0.1385  0.0976
 8080TIP3    H145655   6.349   6.108   1.826 -0.5315 -0.8250  0.5530
 8080TIP3    H245656   6.380   6.230   1.911 -1.3338 -0.4437  0.3058
 8081TIP3   OH245657   0.749   3.661  11.342  0.2968 -0.0658  0.1540
 8081TIP3    H145658   0.672   3.618  11.379  1.2558 -0.7281  1.4717
 8081TIP3    H245659   0.724   3.753  11.334 -1.1480 -0.5106 -0.9295
 8082TIP3   OH245660   6.577   4.809   0.826 -0.4592  0.5849  0.4867
 8082TIP3    H145661   6.484   4.790   0.811 -0.4792  0.3789  0.8534
 8082TIP3    H245662   6.609   4.733   0.875  0.3697 -0.2891 -1.3040
 8083TIP3   OH245663   5.066   0.317  16.918  0.1703 -0.8969 -0.1188
 8083TIP3    H145664   5.056   0.320  17.014  1.9645  1.7462  0.0905
 8083TIP3    H245665   5.112   0.235  16.901  0.9359 -0.8294  1.4400
 8084TIP3   OH245666   3.512   0.339  15.664 -0.8759 -0.1722 -0.7495
 8084TIP3    H145667   3.478   0.350  15.576  0.1104 -1.2552 -1.2918
 8084TIP3    H245668   3.442   0.370  15.721 -1.5817  0.4088 -1.8986
 8085TIP3   OH245669   4.212   3.015  16.233  0.0163  0.2109  0.1364
 8085TIP3    H145670   4.127   3.059  16.229 -0.6748 -0.8290  1.8844
 8085TIP3    H245671   4.270   3.077  16.275 -0.6018  0.0007  1.3555
 8086TIP3   OH245672   0.941   2.187  12.752  0.5586 -0.3125  0.1195
 8086TIP3    H145673   0.974   2.277  12.750  0.4836 -0.2982 -1.7668
 8086TIP3    H245674   0.963   2.155  12.840  1.5023  1.1937  0.4548
 8087TIP3   OH245675   3.191   2.101   3.014 -0.6172  0.0131  0.0534
 8087TIP3    H145676   3.118   2.156   2.984 -0.6062 -0.5668 -1.1204
 8087TIP3    H245677   3.169   2.014   2.982  0.7562 -0.1041 -0.6656
 8088TIP3   OH245678   5.760   0.162   2.811 -0.8885  0.0666  0.3895
 8088TIP3    H145679   5.730   0.101   2.744 -1.7625 -1.1974  1.8562
 8088TIP3    H245680   5.706   0.142   2.888 -0.9682  2.4656  1.0588
 8089TIP3   OH245681   5.807   2.340   3.383  0.1528 -0.2158  0.0838
 8089TIP3    H145682   5.835   2.366   3.470 -0.0429 -0.9774  0.3774
 8089TIP3    H245683   5.887   2.313   3.338  0.9204  3.6007 -1.2660
 8090TIP3   OH245684   0.977   4.726   3.964 -0.1326 -1.0550  0.4085
 8090TIP3    H145685   1.026   4.660   3.915  1.0441  0.6550 -0.8316
 8090TIP3    H245686   1.041   4.767   4.022 -0.5861 -0.3119  0.4048
 8091TIP3   OH245687   3.270   5.958  13.912  0.5138 -0.0141 -0.5561
 8091TIP3    H145688   3.187   5.952  13.958  0.4237  1.8411 -0.3800
 8091TIP3    H245689   3.320   5.882  13.942 -0.6325 -0.4440  0.3374
 8092TIP3   OH245690   4.977   2.694  17.108  0.1760  1.0358 -0.4318
 8092TIP3    H145691   4.930   2.757  17.164 -1.3321  0.1377 -0.6489
 8092TIP3    H245692   4.929   2.695  17.025  1.4039  1.1211 -1.1660
 8093TIP3   OH245693   3.209   3.514  13.692 -0.0196  0.1217  0.2198
 8093TIP3    H145694   3.283   3.505  13.752 -0.2354 -0.3486  0.4188
 8093TIP3    H245695   3.188   3.608  13.694  0.3660  0.2045  0.4044
 8094TIP3   OH245696   5.113   4.574  16.999  0.2107  0.3511 -0.1268
 8094TIP3    H145697   5.060   4.630  17.056 -0.8778  0.4240 -1.1650
 8094TIP3    H245698   5.084   4.596  16.911  0.3793 -1.2252 -0.6013
 8095TIP3   OH245699   2.816   3.197   1.175  0.0448 -0.6220 -0.0303
 8095TIP3    H145700   2.814   3.201   1.079  2.4302  2.7202 -0.1466
 8095TIP3    H245701   2.739   3.246   1.203 -0.0683 -0.6667 -0.2596
 8096TIP3   OH245702   6.049   0.266  15.559  0.0712 -0.0103  0.3252
 8096TIP3    H145703   5.999   0.343  15.587  2.3628  1.3467  0.8925
 8096TIP3    H245704   6.091   0.235  15.640  1.3656 -0.1664 -0.3860
 8097TIP3   OH245705   4.193   3.506  13.857 -0.1322 -0.4607  0.2059
 8097TIP3    H145706   4.243   3.453  13.795 -0.9504  0.8520 -1.6583
 8097TIP3    H245707   4.257   3.567  13.894  0.0305 -0.0661 -0.7076
 8098TIP3   OH245708   2.161   3.433   6.563  0.3210  0.3864 -0.6351
 8098TIP3    H145709   2.083   3.389   6.530  0.9962 -1.0575 -0.3840
 8098TIP3    H245710   2.232   3.402   6.507  0.6646  2.1549 -1.2594
 8099TIP3   OH245711   2.724   0.489   1.845  0.0461 -0.2030 -0.2863
 8099TIP3    H145712   2.707   0.541   1.766  0.9677 -0.0489 -0.3877
 8099TIP3    H245713   2.725   0.553   1.916 -0.0049 -0.2373 -0.2548
 8100TIP3   OH245714   5.337   4.018  12.413 -0.4798  0.0618 -0.1698
 8100TIP3    H145715   5.290   4.069  12.478  0.2627  2.5637 -1.4607
 8100TIP3    H245716   5.372   3.944  12.461 -1.4064  0.8823  1.8811
 8101TIP3   OH245717   1.607   1.264  13.995  0.3163 -0.3241  0.3615
 8101TIP3    H145718   1.635   1.208  13.923 -0.1143  0.0038 -0.0731
 8101TIP3    H245719   1.684   1.271  14.051  0.7606 -0.3353 -0.2282
 8102TIP3   OH245720   4.809   1.708   5.545 -0.4170 -0.1500  0.2007
 8102TIP3    H145721   4.877   1.641   5.534 -0.4042 -0.1963  0.5572
 8102TIP3    H245722   4.853   1.790   5.521 -0.4299 -0.2672 -0.2221
 8103TIP3   OH245723   0.722   4.422  16.827  0.0771  0.2818  0.1415
 8103TIP3    H145724   0.776   4.434  16.749 -1.3674  2.1703 -0.6581
 8103TIP3    H245725   0.752   4.490  16.887 -0.4543  0.4407  0.2338
 8104TIP3   OH245726   5.250   0.007   5.931  0.1731  0.1165  0.1142
 8104TIP3    H145727   5.269   0.010   5.838  1.1124  1.8739  0.3190
 8104TIP3    H245728   5.335   0.020   5.974 -0.3392  0.0441  1.2007
 8105TIP3   OH245729   3.719   5.106  16.403 -0.1203  0.2390  0.6067
 8105TIP3    H145730   3.624   5.119  16.400 -0.0186  0.9150 -0.2147
 8105TIP3    H245731   3.735   5.065  16.488 -1.3134 -1.2896  0.1458
 8106TIP3   OH245732   1.964   2.943   1.286 -0.0718  0.3774  1.1809
 8106TIP3    H145733   1.894   2.996   1.248  0.7122  2.4628  2.4738
 8106TIP3    H245734   1.999   2.996   1.357  0.5254 -2.0774  2.8713
 8107TIP3   OH245735   5.883   5.275   2.094  0.1970  0.0340  0.1901
 8107TIP3    H145736   5.830   5.353   2.106  0.7580  0.3338  0.7337
 8107TIP3    H245737   5.828   5.217   2.040 -0.2993  0.7114 -0.0466
 8108TIP3   OH245738   3.308   0.288  10.617 -0.3895  0.3502 -0.3457
 8108TIP3    H145739   3.241   0.319  10.555 -1.0286 -0.9439 -0.3453
 8108TIP3    H245740   3.258   0.236  10.681  0.5778 -0.4250 -0.1992
 8109TIP3   OH245741   3.797   0.087   2.715  0.0296  0.2807 -0.2005
 8109TIP3    H145742   3.745   0.059   2.790 -0.2938 -1.8327 -1.1358
 8109TIP3    H245743   3.864   0.146   2.752 -1.9935  1.7958  1.2462
 8110TIP3   OH245744   0.134   1.047  16.979  0.6256  0.4074 -0.0793
 8110TIP3    H145745   0.040   1.035  16.970  0.6866 -2.0879  1.5282
 8110TIP3    H245746   0.171   1.011  16.898  0.2603  0.3081 -0.2023
 8111TIP3   OH245747   6.519   2.798   0.938  0.0553  0.1710  0.3537
 8111TIP3    H145748   6.453   2.808   1.006 -0.4980 -0.4369 -0.0829
 8111TIP3    H245749   6.528   2.886   0.900  0.1574  0.4504  1.0067
 8112TIP3   OH245750   4.520   2.590   6.972  0.2054 -0.0431  0.0080
 8112TIP3    H145751   4.540   2.557   6.884  0.5408 -1.2779  0.5138
 8112TIP3    H245752   4.504   2.683   6.960  0.2971 -0.1795 -1.3545
 8113TIP3   OH245753   1.256   4.610  15.966  0.2596 -0.4618 -0.3406
 8113TIP3    H145754   1.199   4.629  15.892 -0.1502  2.1128  0.5296
 8113TIP3    H245755   1.344   4.633  15.935  0.5721 -2.2783 -0.9404
 8114TIP3   OH245756   1.150   1.788  12.206  0.3972  0.1945  0.1777
 8114TIP3    H145757   1.238   1.779  12.244  0.7624  0.9037 -0.4699
 8114TIP3    H245758   1.101   1.840  12.271  1.1167  1.6922 -0.4256
 8115TIP3   OH245759   6.527   0.763   5.288  0.1223  0.3586 -0.7251
 8115TIP3    H145760   6.549   0.846   5.246  0.2823  0.9914  0.5339
 8115TIP3    H245761   6.535   0.782   5.382 -0.1016 -1.0149 -0.4132
 8116TIP3   OH245762   0.399   2.152  15.184  0.2593  0.0642  0.5612
 8116TIP3    H145763   0.484   2.189  15.162  0.5305 -0.5687  0.5285
 8116TIP3    H245764   0.419   2.070  15.229 -0.3224  0.2161  1.1193
 8117TIP3   OH245765   1.927   5.348  11.684 -0.0605  0.5197  0.6934
 8117TIP3    H145766   1.871   5.350  11.607  0.3442  0.2590  0.3841
 8117TIP3    H245767   1.905   5.427  11.733 -0.9230  0.2536  0.7414
 8118TIP3   OH245768   0.020   0.952  14.454  0.2409 -0.0983 -0.0880
 8118TIP3    H145769  -0.035   0.905  14.391  0.6154 -1.3546  0.4908
 8118TIP3    H245770   0.029   1.040  14.417 -0.6504 -0.4124 -1.1014
 8119TIP3   OH245771   5.539   0.719   3.796  0.4425 -0.1880 -0.4085
 8119TIP3    H145772   5.480   0.645   3.782  0.1501 -0.1548  0.5389
 8119TIP3    H245773   5.482   0.789   3.829  0.3545  1.1554 -3.1553
 8120TIP3   OH245774   3.467   0.930  13.785  0.7480 -0.3111 -0.0055
 8120TIP3    H145775   3.408   0.900  13.716  0.9948 -1.1614  0.1356
 8120TIP3    H245776   3.439   1.020  13.804  0.5118 -0.1630 -1.0175
 8121TIP3   OH245777   4.093   3.906   5.877  0.4375  0.4140  0.0855
 8121TIP3    H145778   4.176   3.908   5.923 -0.2806  0.9299  1.4090
 8121TIP3    H245779   4.037   3.966   5.925  0.1208  2.3169 -2.4588
 8122TIP3   OH245780   0.821   2.414   0.925 -0.3630 -0.0889  0.1188
 8122TIP3    H145781   0.900   2.393   0.974 -0.1561  0.5211  0.0571
 8122TIP3    H245782   0.808   2.339   0.867 -0.0961 -0.4016  0.4604
 8123TIP3   OH245783   0.267   0.181  12.475  0.4858  0.1082 -0.5625
 8123TIP3    H145784   0.211   0.127  12.419  1.4429  0.0691 -1.5116
 8123TIP3    H245785   0.212   0.256  12.498  0.1040  0.1904 -1.6636
 8124TIP3   OH245786   2.699   0.350  15.400 -0.3023  0.1229  0.0429
 8124TIP3    H145787   2.773   0.406  15.424  1.0833 -2.0277  1.0855
 8124TIP3    H245788   2.622   0.403  15.420  0.9412  1.6141  1.1057
 8125TIP3   OH245789   3.368   6.582  15.424 -0.4074 -0.3060 -0.3772
 8125TIP3    H145790   3.417   6.587  15.341 -0.7649 -2.1725 -0.7508
 8125TIP3    H245791   3.386   6.666  15.467  2.7310 -0.6743 -0.6981
 8126TIP3   OH245792   2.868   2.904  12.070 -0.3574  0.3871 -0.2583
 8126TIP3    H145793   2.777   2.908  12.098 -0.4093 -0.2678 -0.3320
 8126TIP3    H245794   2.883   2.813  12.046  0.3456  0.4623 -0.1501
 8127TIP3   OH245795   4.943   5.280  11.924 -0.2401 -0.1506  0.2988
 8127TIP3    H145796   4.866   5.266  11.979  0.6274  0.1077  1.6215
 8127TIP3    H245797   5.016   5.247  11.976  0.8767  1.9852  0.2048
 8128TIP3   OH245798   1.763   4.884   1.114 -0.5514  0.0809  0.4549
 8128TIP3    H145799   1.837   4.843   1.071  1.2354  0.9622  2.4975
 8128TIP3    H245800   1.762   4.973   1.079 -0.9993 -0.0852  0.0370
 8129TIP3   OH245801   3.292   2.701  16.063 -0.7554  0.4196  0.4770
 8129TIP3    H145802   3.270   2.774  16.120 -4.0058  0.7323 -0.9672
 8129TIP3    H245803   3.208   2.658  16.045  0.2566 -0.3844 -3.0566
 8130TIP3   OH245804   1.212   1.631   4.329 -0.1042  0.3447 -0.1237
 8130TIP3    H145805   1.279   1.693   4.303  0.5610  0.0998  0.9441
 8130TIP3    H245806   1.159   1.678   4.394 -1.0937  0.5954 -1.0771
 8131TIP3   OH245807   3.748   4.585   4.431  0.1360  0.4471  0.7104
 8131TIP3    H145808   3.732   4.660   4.489  0.2565  0.0694  1.2439
 8131TIP3    H245809   3.800   4.621   4.359 -0.5149  1.0449  0.5343
 8132TIP3   OH245810   6.000   1.848  15.682 -0.4990  0.5388  0.0013
 8132TIP3    H145811   5.968   1.910  15.616  0.6915  0.0907 -1.0300
 8132TIP3    H245812   6.095   1.860  15.682 -0.0597 -2.2189 -1.2306
 8133TIP3   OH245813   3.127   3.738   6.255  0.2164 -0.2372 -0.5124
 8133TIP3    H145814   3.047   3.743   6.307  0.7548  0.7383  0.2782
 8133TIP3    H245815   3.128   3.820   6.205  0.9494  0.0096 -0.1200
 8134TIP3   OH245816   4.850   4.143  16.133 -0.2567 -0.5429  0.4343
 8134TIP3    H145817   4.836   4.227  16.177 -1.6938 -0.1649 -0.6415
 8134TIP3    H245818   4.845   4.077  16.202  0.5570  0.2200  1.2425
 8135TIP3   OH245819   2.849   6.542  11.934 -0.0008 -0.0491 -0.2217
 8135TIP3    H145820   2.922   6.480  11.941 -0.3547 -0.3750  0.9405
 8135TIP3    H245821   2.770   6.487  11.934 -0.2677  0.3304 -0.6690
 8136TIP3   OH245822   0.738   4.422   7.121  0.4670  0.3709  0.0247
 8136TIP3    H145823   0.785   4.422   7.038  0.6309 -1.4011  0.0804
 8136TIP3    H245824   0.646   4.433   7.096  0.6028  0.7763 -0.3084
 8137TIP3   OH245825   0.840   3.247   2.189 -0.0996 -0.6239 -0.4808
 8137TIP3    H145826   0.893   3.169   2.170  2.0946  1.1015 -2.0382
 8137TIP3    H245827   0.875   3.314   2.130 -1.6549  1.6463  1.0256
 8138TIP3   OH245828   5.756   1.633  13.949  0.6619  0.2675  0.0823
 8138TIP3    H145829   5.662   1.630  13.933  0.7550  2.0565 -1.0439
 8138TIP3    H245830   5.795   1.593  13.872  0.8445 -0.0744  0.3478
 8139TIP3   OH245831   2.518   5.072  11.494 -0.2156  0.1738  0.2054
 8139TIP3    H145832   2.527   4.978  11.509  0.7865 -0.6083 -4.0396
 8139TIP3    H245833   2.498   5.080  11.401 -0.1462  4.2100  0.3584
 8140TIP3   OH245834   0.021   1.561  11.958 -0.2433 -0.1097 -0.3479
 8140TIP3    H145835  -0.047   1.628  11.949 -2.1053 -1.8715  0.0187
 8140TIP3    H245836   0.098   1.609  11.990 -1.1835  1.9948 -1.0853
 8141TIP3   OH245837   0.217   5.087   4.730 -0.1348  0.1388  0.2271
 8141TIP3    H145838   0.214   5.077   4.825  1.1734  0.1238  0.2896
 8141TIP3    H245839   0.154   5.157   4.711  0.3868  0.9126  1.2337
 8142TIP3   OH245840   1.744   2.866   4.660 -0.0570 -0.5584  0.2542
 8142TIP3    H145841   1.770   2.790   4.608 -0.9549 -0.3189 -0.5653
 8142TIP3    H245842   1.717   2.830   4.744  1.5743 -0.9378  0.6492
 8143TIP3   OH245843   2.481   4.886   3.151 -0.2264 -0.0096 -0.0150
 8143TIP3    H145844   2.407   4.856   3.203  0.8501  0.1071  1.6924
 8143TIP3    H245845   2.495   4.817   3.086 -1.5733 -0.2048 -0.1205
 8144TIP3   OH245846   4.939   3.118   5.477 -0.1592 -0.4922  0.0861
 8144TIP3    H145847   4.867   3.084   5.425  0.9872 -1.1351 -1.1332
 8144TIP3    H245848   4.993   3.168   5.415 -0.0914  0.8639  1.1799
 8145TIP3   OH245849   6.249   2.427  14.473 -0.7710  0.0608 -0.2732
 8145TIP3    H145850   6.156   2.407  14.479 -0.7122  0.1402  1.6445
 8145TIP3    H245851   6.285   2.357  14.419 -1.7782 -0.5905 -0.1349
 8146TIP3   OH245852   6.724   6.772  15.258  0.4053 -0.2873  0.4162
 8146TIP3    H145853   6.652   6.761  15.195  0.7793  1.4879 -0.3976
 8146TIP3    H245854   6.749   6.864  15.249  2.3958 -0.7116  1.1039
 8147TIP3   OH245855   3.986   4.897  16.389  0.1683  0.0717 -0.1068
 8147TIP3    H145856   4.041   4.916  16.465 -1.3346 -0.7331  1.2440
 8147TIP3    H245857   4.006   4.807  16.366 -1.1313 -0.5002  0.9099
 8148TIP3   OH245858   5.483   4.054  15.695  0.4344 -0.0399  0.3966
 8148TIP3    H145859   5.428   4.126  15.724  0.4780  0.6345 -1.0713
 8148TIP3    H245860   5.435   3.975  15.719 -1.1258  0.5223 -0.6857
 8149TIP3   OH245861   4.654   3.391  12.541 -0.1321 -0.5845  0.5229
 8149TIP3    H145862   4.727   3.423  12.595 -1.3077 -0.4884  2.1427
 8149TIP3    H245863   4.692   3.321  12.489  1.6890  1.1129 -0.5500
 8150TIP3   OH245864   0.403   3.968  16.750 -0.1198 -0.0422  0.3597
 8150TIP3    H145865   0.495   3.952  16.728 -1.0033 -2.0053 -2.5428
 8150TIP3    H245866   0.372   3.885  16.785 -0.8360  0.5960  1.2995
 8151TIP3   OH245867   3.363   4.043   3.416  0.2440 -0.1449  0.4252
 8151TIP3    H145868   3.288   4.097   3.441  0.8575  0.6979  0.4568
 8151TIP3    H245869   3.390   4.076   3.331  0.9615 -0.0364  0.6849
 8152TIP3   OH245870   1.653   5.647  11.620 -0.0813 -0.3559  0.4992
 8152TIP3    H145871   1.649   5.566  11.672 -0.4112 -0.7936 -0.1886
 8152TIP3    H245872   1.697   5.710  11.677 -0.4509 -0.8167  1.3173
 8153TIP3   OH245873   3.394   0.260   3.667  0.1441 -0.0626  0.3819
 8153TIP3    H145874   3.456   0.300   3.606  0.4539  0.3764  0.9814
 8153TIP3    H245875   3.448   0.202   3.721 -0.2109 -0.8469 -0.0910
 8154TIP3   OH245876   2.295   5.691   3.742  0.3289  0.2125 -0.1953
 8154TIP3    H145877   2.371   5.632   3.744 -1.1002 -1.8992 -2.4990
 8154TIP3    H245878   2.222   5.637   3.772 -0.6023  1.6929  0.3312
 8155TIP3   OH245879   2.190   2.074   6.668 -0.3824 -0.0127  0.0141
 8155TIP3    H145880   2.109   2.028   6.643 -0.5486  1.1596 -1.8292
 8155TIP3    H245881   2.249   2.059   6.594  0.6486  0.2375  0.7658
 8156TIP3   OH245882   3.924   5.740  14.385 -0.1522 -0.2001  0.9194
 8156TIP3    H145883   3.929   5.713  14.477  1.3789 -0.9782  0.6224
 8156TIP3    H245884   3.921   5.658  14.336  0.1485  0.2007  0.2193
 8157TIP3   OH245885   6.552   4.168  14.729  0.8794  0.6091 -0.3608
 8157TIP3    H145886   6.567   4.160  14.824 -0.5032 -0.0267 -0.1706
 8157TIP3    H245887   6.467   4.212  14.723 -1.6778 -3.8589 -1.1565
 8158TIP3   OH245888   6.255   5.942   0.988 -0.5618  0.5964  0.3538
 8158TIP3    H145889   6.253   5.846   0.993 -0.0163  0.6096  0.9831
 8158TIP3    H245890   6.189   5.964   0.923  0.8455 -0.3184 -1.4590
 8159TIP3   OH245891   3.788   1.025  12.248 -0.1885  1.0252  0.4096
 8159TIP3    H145892   3.792   1.109  12.293 -2.1604  0.8450  0.9941
 8159TIP3    H245893   3.703   0.989  12.271 -0.1690 -0.2945 -1.3658
 8160TIP3   OH245894   6.505   5.481   4.742  0.1307 -0.2422 -0.1976
 8160TIP3    H145895   6.584   5.437   4.710  2.5229  1.6671  2.5262
 8160TIP3    H245896   6.449   5.489   4.665  3.6174  0.4030 -2.9400
 8161TIP3   OH245897   3.783   3.626   3.127 -0.3385 -0.3904 -0.0313
 8161TIP3    H145898   3.874   3.653   3.116 -0.7138  0.3253 -1.5519
 8161TIP3    H245899   3.789   3.543   3.176  1.0907 -0.1810  0.2063
 8162TIP3   OH245900   3.578   0.604  10.478 -0.0062  0.4941  0.3256
 8162TIP3    H145901   3.640   0.676  10.467  1.1272 -0.5066 -0.0231
 8162TIP3    H245902   3.633   0.528  10.496 -1.1151 -0.5035 -0.3795
 8163TIP3   OH245903   5.912   5.280  10.899 -0.2715  0.7168 -0.1180
 8163TIP3    H145904   5.894   5.270  10.806  1.0823 -1.0971 -0.2482
 8163TIP3    H245905   6.007   5.284  10.905 -0.1388 -1.9491  1.3243
 8164TIP3   OH245906   0.111   3.336  15.034  0.4051 -0.2672 -0.4054
 8164TIP3    H145907   0.077   3.247  15.026  2.1831 -1.1342  0.8563
 8164TIP3    H245908   0.206   3.325  15.036  0.6633  1.6278  0.1284
 8165TIP3   OH245909   0.602   0.573  14.618 -0.0142  0.1775 -0.1859
 8165TIP3    H145910   0.588   0.611  14.532 -2.3014 -0.2300 -0.0524
 8165TIP3    H245911   0.514   0.559  14.653  0.8257  1.3165  2.6649
 8166TIP3   OH245912   2.022   3.563  11.139  0.7134 -0.0089 -0.3231
 8166TIP3    H145913   2.081   3.594  11.071 -0.7506  1.0947 -1.1463
 8166TIP3    H245914   1.937   3.556  11.096 -0.1982  0.4805  1.3222
 8167TIP3   OH245915   5.342   3.729   0.796 -0.0961 -0.0774  0.2352
 8167TIP3    H145916   5.335   3.807   0.851 -2.1006  0.3520 -0.5771
 8167TIP3    H245917   5.343   3.656   0.859  0.0734  0.5062  0.9267
 8168TIP3   OH245918   2.201   1.568  13.396  0.3252 -0.8795  0.3564
 8168TIP3    H145919   2.179   1.653  13.434 -0.5307 -1.5544  1.4184
 8168TIP3    H245920   2.269   1.533  13.453 -0.9644 -1.8999  1.3123
 8169TIP3   OH245921   2.160   0.010   1.007  0.4034 -0.0801  0.1490
 8169TIP3    H145922   2.129   0.033   0.920 -0.9514  2.2199  1.1161
 8169TIP3    H245923   2.254   0.023   1.004  0.3529  0.1301 -0.9202
 8170TIP3   OH245924   5.506   3.205   4.265 -0.2511  0.5084  0.4445
 8170TIP3    H145925   5.583   3.162   4.302 -0.6797 -0.7621 -0.1066
 8170TIP3    H245926   5.438   3.138   4.264 -0.3423  0.5254 -2.3451
 8171TIP3   OH245927   0.498   4.901   2.775  0.3405  0.4262  0.6216
 8171TIP3    H145928   0.476   4.966   2.708  0.3704 -0.7056 -0.5451
 8171TIP3    H245929   0.594   4.899   2.775  0.3408 -0.0185  0.2078
 8172TIP3   OH245930   2.597   3.985  15.570 -0.3256 -0.2810  0.0442
 8172TIP3    H145931   2.631   4.021  15.652  0.0862  1.1127 -0.7321
 8172TIP3    H245932   2.502   3.995  15.578 -0.3258 -0.5813  0.5259
 8173TIP3   OH245933   2.499   0.081   3.770 -0.4707 -0.0810  0.5224
 8173TIP3    H145934   2.531   0.063   3.859 -1.3553  0.8520  1.0470
 8173TIP3    H245935   2.412   0.118   3.783 -0.6331  0.0147 -0.7473
 8174TIP3   OH245936   2.420   3.064  14.933  0.4871 -0.2132  0.3952
 8174TIP3    H145937   2.365   3.006  14.880  1.0143 -0.5804  0.2452
 8174TIP3    H245938   2.358   3.107  14.992  0.1049 -1.0549  0.6287
 8175TIP3   OH245939   2.365   2.934  14.252  1.0833 -0.0131  0.0479
 8175TIP3    H145940   2.301   2.932  14.324  1.7743 -2.2003  0.6606
 8175TIP3    H245941   2.340   2.860  14.196  1.3782  0.8533 -1.2749
 8176TIP3   OH245942   5.091   3.184  13.031 -0.0319 -0.0475  0.1904
 8176TIP3    H145943   5.187   3.187  13.033 -0.0590  1.2618  0.9928
 8176TIP3    H245944   5.064   3.267  13.072 -1.5068 -0.5154  0.2174
 8177TIP3   OH245945   2.196   2.822   4.528  0.0731  0.4436  0.5239
 8177TIP3    H145946   2.149   2.886   4.474  1.3839  0.4216 -0.7046
 8177TIP3    H245947   2.281   2.862   4.544  0.6387 -0.6744  0.3642
 8178TIP3   OH245948   4.163   3.154   3.203 -0.2240  0.0061  0.6097
 8178TIP3    H145949   4.210   3.231   3.236  0.4787 -0.5447  0.9192
 8178TIP3    H245950   4.205   3.135   3.119 -0.1180 -0.2907  0.7300
 8179TIP3   OH245951   4.880   4.001  10.678 -0.2565 -0.4429  0.2361
 8179TIP3    H145952   4.811   4.047  10.725 -0.9423 -1.6874  0.4869
 8179TIP3    H245953   4.960   4.051  10.697 -0.5707 -0.6748  2.4249
 8180TIP3   OH245954   0.947   5.529  14.365  0.0890 -0.1506 -0.5575
 8180TIP3    H145955   1.041   5.520  14.385 -0.1997 -1.1569  0.4784
 8180TIP3    H245956   0.909   5.447  14.396 -1.3316  0.7859  0.2862
 8181TIP3   OH245957   0.423   5.995  16.438 -0.3077  0.4810  0.4527
 8181TIP3    H145958   0.388   5.977  16.351 -0.9371 -1.0150  0.9875
 8181TIP3    H245959   0.423   6.091  16.444 -0.2729  0.6133 -1.1643
 8182TIP3   OH245960   3.541   6.339  12.305  0.2388  0.5515  0.4608
 8182TIP3    H145961   3.447   6.326  12.291  0.2327 -1.1116  1.6695
 8182TIP3    H245962   3.554   6.434  12.302 -1.1895  0.7333 -1.3147
 8183TIP3   OH245963   4.821   1.653  16.976  0.0161  0.0194  0.4437
 8183TIP3    H145964   4.734   1.614  16.965 -0.5070  1.3634 -0.5807
 8183TIP3    H245965   4.829   1.712  16.901  2.2915 -0.9030 -0.1000
 8184TIP3   OH245966   2.919   3.234   6.043 -0.6728  0.3677 -0.3161
 8184TIP3    H145967   2.929   3.259   5.951  3.5739 -0.3056 -0.2696
 8184TIP3    H245968   2.915   3.318   6.090 -2.6129  0.7182 -1.0322
 8185TIP3   OH245969   3.015   4.080   2.001 -0.1646  0.2627 -0.7027
 8185TIP3    H145970   2.980   4.168   2.013 -0.2799 -0.0383  1.4950
 8185TIP3    H245971   2.948   4.021   2.036  0.9999 -0.5195  0.3224
 8186TIP3   OH245972   0.101   6.329   1.886  0.0770  0.4846 -0.2699
 8186TIP3    H145973   0.050   6.249   1.900  1.7749 -0.4850  0.6504
 8186TIP3    H245974   0.071   6.388   1.955  0.2448 -0.1252  0.3480
 8187TIP3   OH245975   5.974   3.030   1.419  0.0247  0.1060 -0.2456
 8187TIP3    H145976   5.882   3.041   1.443 -0.4839 -1.8223 -1.1552
 8187TIP3    H245977   5.987   3.092   1.347 -1.1624 -0.9914 -1.4639
 8188TIP3   OH245978   0.355   6.777  10.542  0.0465  0.5434  0.9084
 8188TIP3    H145979   0.347   6.847  10.477  1.2369  1.0312  1.2673
 8188TIP3    H245980   0.318   6.700  10.498  0.0438  1.0615 -0.0315
 8189TIP3   OH245981   5.064   4.248  14.991 -0.1629  0.0909  0.2161
 8189TIP3    H145982   4.996   4.191  14.954  0.4943 -0.6478  0.1238
 8189TIP3    H245983   5.022   4.289  15.067 -0.5949 -0.6559  0.3958
 8190TIP3   OH245984   6.550   1.759   6.072 -0.2960 -0.3198  0.0767
 8190TIP3    H145985   6.504   1.709   6.140  0.1838 -1.3603 -0.3400
 8190TIP3    H245986   6.504   1.736   5.991 -0.3556  0.2861 -0.0660
 8191TIP3   OH245987   3.768   2.003   0.494  0.3540  0.0626 -0.4593
 8191TIP3    H145988   3.759   2.097   0.484 -0.4281 -0.0549 -0.9573
 8191TIP3    H245989   3.793   1.972   0.407  1.7402 -0.0753 -0.0323
 8192TIP3   OH245990   4.130   1.981   1.466  0.2002 -0.7121 -0.1933
 8192TIP3    H145991   4.182   1.902   1.452 -1.4056 -1.9262  0.4104
 8192TIP3    H245992   4.042   1.958   1.436 -0.8681  0.0337  2.1291
 8193TIP3   OH245993   0.796   3.579  10.608 -0.2494  0.5122 -0.2596
 8193TIP3    H145994   0.738   3.515  10.651 -0.3441  0.3126 -0.6756
 8193TIP3    H245995   0.884   3.554  10.636 -0.0738 -1.1114 -2.0240
 8194TIP3   OH245996   2.253   4.431   2.956  0.6926  0.5811  0.5126
 8194TIP3    H145997   2.324   4.450   2.894  0.2762  0.6968  0.0597
 8194TIP3    H245998   2.209   4.515   2.968  0.1480  0.3529  0.1658
 8195TIP3   OH245999   2.339   2.390  11.184  0.5894  0.5181  0.2310
 8195TIP3    H146000   2.433   2.388  11.196  0.5286  1.7779  1.0416
 8195TIP3    H246001   2.326   2.445  11.107  0.5394 -0.3884 -0.4297
 8196TIP3   OH246002   1.290   3.018  16.367 -0.0630 -0.0421 -0.4132
 8196TIP3    H146003   1.204   2.977  16.378 -0.4243  0.8084  0.0424
 8196TIP3    H246004   1.275   3.092  16.309  0.2025  0.5559  0.2597
 8197TIP3   OH246005   1.277   2.031   0.230 -0.7525 -0.0754 -0.3631
 8197TIP3    H146006   1.360   1.984   0.228 -0.7574 -0.0812 -0.4256
 8197TIP3    H246007   1.266   2.064   0.141 -0.6039  0.2947 -0.2471
 8198TIP3   OH246008   6.186   6.732   2.504 -0.2640 -0.0388 -0.7649
 8198TIP3    H146009   6.192   6.740   2.409 -1.2187  0.0246 -0.8324
 8198TIP3    H246010   6.269   6.767   2.536  0.3247 -0.6476 -1.5969
 8199TIP3   OH246011   1.847   6.346   1.174  0.6445  0.1847  0.1829
 8199TIP3    H146012   1.840   6.280   1.243  1.6924 -0.1408 -0.0079
 8199TIP3    H246013   1.759   6.382   1.167 -0.3058 -2.0430 -0.5131
 8200TIP3   OH246014   2.629   0.241  14.540  0.2120 -0.4124 -0.3240
 8200TIP3    H146015   2.573   0.166  14.559  0.6572 -0.6854 -0.0586
 8200TIP3    H246016   2.633   0.289  14.623  2.9591 -2.1365  0.6586
 8201TIP3   OH246017   0.037   1.078   6.061  0.5854 -0.0284 -0.3224
 8201TIP3    H146018   0.108   1.015   6.077  2.1908  1.7122 -0.1626
 8201TIP3    H246019   0.011   1.062   5.970  0.5456 -1.3055 -0.0991
 8202TIP3   OH246020   3.747   1.143   3.975 -0.3679  0.2698  0.2338
 8202TIP3    H146021   3.752   1.102   3.889  0.4915  1.8014 -0.4965
 8202TIP3    H246022   3.722   1.073   4.034 -0.6417 -0.8911 -1.2126
 8203TIP3   OH246023   4.756   5.859  16.728 -0.0178  0.1969 -0.0123
 8203TIP3    H146024   4.700   5.795  16.682 -2.5107  1.5711  0.9206
 8203TIP3    H246025   4.818   5.805  16.776 -2.1422 -1.6102  0.8971
 8204TIP3   OH246026   5.007   1.194  12.495  0.1161 -0.3346 -0.3492
 8204TIP3    H146027   4.951   1.234  12.561  2.4312  0.6484  1.1703
 8204TIP3    H246028   5.064   1.134  12.544  0.9104 -0.7084 -1.6680
 8205TIP3   OH246029   3.881   4.705   3.860  0.2350 -0.3178  0.2094
 8205TIP3    H146030   3.811   4.718   3.796  0.2228 -2.8985 -0.4104
 8205TIP3    H246031   3.860   4.765   3.931 -1.1052  0.8826 -1.1319
 8206TIP3   OH246032   2.621   2.746  12.006 -0.0418 -0.6697  0.3406
 8206TIP3    H146033   2.583   2.790  11.929  1.3627  2.4256  1.2439
 8206TIP3    H246034   2.582   2.792  12.080  0.8678 -1.5742  1.4040
 8207TIP3   OH246035   3.165   2.943   2.185  0.5160 -0.0348 -0.2102
 8207TIP3    H146036   3.117   2.982   2.112  1.0209  0.0632 -0.4940
 8207TIP3    H246037   3.173   2.850   2.162 -1.1512 -0.4516  0.7140
 8208TIP3   OH246038   3.090   4.730  12.391  0.1606 -0.0922 -0.1956
 8208TIP3    H146039   3.057   4.646  12.359  0.6036 -0.1502 -0.5058
 8208TIP3    H246040   3.060   4.734  12.481 -1.5467  0.3009 -0.7498
 8209TIP3   OH246041   6.420   2.344  15.945 -0.3405 -0.6305 -0.2717
 8209TIP3    H146042   6.391   2.433  15.967 -1.5318 -0.5800 -1.8511
 8209TIP3    H246043   6.513   2.354  15.925 -0.3612  0.1812  0.0060
 8210TIP3   OH246044   1.213   5.592  14.428  0.1124  0.2167  0.0012
 8210TIP3    H146045   1.240   5.521  14.486  0.2077 -0.8729 -1.3257
 8210TIP3    H246046   1.294   5.626  14.391  0.1231  1.4727  1.0802
 8211TIP3   OH246047   2.799   0.037   2.284  0.5364  0.0776  0.1337
 8211TIP3    H146048   2.728  -0.013   2.244  0.2844 -0.2693  0.9803
 8211TIP3    H246049   2.782   0.127   2.259  1.5860 -0.3213 -2.3118
 8212TIP3   OH246050   5.890   1.717  12.328 -0.6043 -0.2794 -0.2194
 8212TIP3    H146051   5.875   1.627  12.300 -2.2204  0.0646 -0.5291
 8212TIP3    H246052   5.803   1.756  12.335 -0.1271  0.5594  2.3088
 8213TIP3   OH246053   4.073   0.416  10.392  0.2983 -0.4812 -0.1841
 8213TIP3    H146054   4.150   0.374  10.355  0.8827  2.0187 -2.1142
 8213TIP3    H246055   4.097   0.436  10.482  1.7815 -0.0953 -0.6473
 8214TIP3   OH246056   1.611   1.852   2.974  0.1599 -0.0437  0.5793
 8214TIP3    H146057   1.639   1.920   2.913  0.6266  0.2635  1.1288
 8214TIP3    H246058   1.540   1.892   3.025  1.5847  0.6664  2.0958
 8215TIP3   OH246059   0.390   3.613   2.431  0.1326  0.0606  0.1376
 8215TIP3    H146060   0.415   3.521   2.436 -0.2886 -0.0799 -0.2493
 8215TIP3    H246061   0.435   3.646   2.353 -1.8688 -0.5305 -1.3459
 8216TIP3   OH246062   2.652   1.208   3.521  0.3441 -0.0660 -0.2833
 8216TIP3    H146063   2.570   1.159   3.525  0.0280  0.3573 -1.2809
 8216TIP3    H246064   2.664   1.242   3.609  0.6858 -2.0794  0.5123
 8217TIP3   OH246065   1.912   3.586  12.186 -0.0352 -0.4709 -0.0248
 8217TIP3    H146066   1.964   3.640  12.126  0.8099  0.2905  1.3482
 8217TIP3    H246067   1.841   3.643  12.215 -2.0135 -1.6519 -2.2473
 8218TIP3   OH246068   6.433   4.402  15.825 -0.6664  0.2429 -0.0796
 8218TIP3    H146069   6.381   4.361  15.893  0.9607 -0.7349  0.6422
 8218TIP3    H246070   6.515   4.426  15.868 -0.3961  1.4920 -1.2166
 8219TIP3   OH246071   0.500   6.195  14.582  0.0464  0.1112 -0.3544
 8219TIP3    H146072   0.586   6.223  14.550 -1.5016  2.7432 -2.6656
 8219TIP3    H246073   0.481   6.254  14.654 -0.6604  1.0372 -1.2628
 8220TIP3   OH246074   6.480   6.727   5.053  0.3005  0.0542  0.4104
 8220TIP3    H146075   6.411   6.782   5.090 -1.0545 -0.2873 -1.4905
 8220TIP3    H246076   6.454   6.637   5.075  1.1092  0.0102  1.2303
 8221TIP3   OH246077   1.568   6.476   5.483 -0.3443 -0.0070 -0.4552
 8221TIP3    H146078   1.593   6.408   5.420  0.7217 -1.4395  1.4315
 8221TIP3    H246079   1.644   6.485   5.540 -0.5846  2.6110 -0.4577
 8222TIP3   OH246080   6.598   5.793   2.105  0.0509 -0.5996  0.5203
 8222TIP3    H146081   6.626   5.707   2.073  1.2594  0.1130 -0.4494
 8222TIP3    H246082   6.608   5.788   2.200  3.2421 -0.5688  0.3114
 8223TIP3   OH246083   5.509   4.577  14.872  0.7177  0.0706 -0.5581
 8223TIP3    H146084   5.465   4.661  14.883 -0.0070 -0.5845  2.2885
 8223TIP3    H246085   5.593   4.587  14.917  0.6235 -0.7087 -0.1904
 8224TIP3   OH246086   6.375   2.628  16.661 -0.1533 -0.0545  0.7747
 8224TIP3    H146087   6.348   2.699  16.604  1.5201  0.4316  0.5309
 8224TIP3    H246088   6.413   2.562  16.602  1.8184  0.5588  1.2807
 8225TIP3   OH246089   1.693   4.663   3.626 -0.2495 -0.2840  0.7441
 8225TIP3    H146090   1.736   4.662   3.711  0.6347 -0.6395  0.3069
 8225TIP3    H246091   1.624   4.729   3.635 -0.1279 -0.2684  1.7073
 8226TIP3   OH246092   0.167   4.725  14.696 -0.8272 -0.7695  0.0367
 8226TIP3    H146093   0.221   4.795  14.733 -0.4360 -0.2416 -1.4595
 8226TIP3    H246094   0.092   4.719  14.756 -1.7410  2.0986 -0.6643
 8227TIP3   OH246095   2.365   3.742  10.634  0.4252 -0.8834 -0.8852
 8227TIP3    H146096   2.278   3.762  10.599  0.0923 -0.6587  0.0415
 8227TIP3    H246097   2.353   3.658  10.679 -0.2838  0.8111  2.4095
 8228TIP3   OH246098   6.111   1.272   5.202  0.4819  0.0019 -0.2512
 8228TIP3    H146099   6.035   1.299   5.151  0.0807  2.4459  1.4822
 8228TIP3    H246100   6.183   1.325   5.167  0.6448  0.1819  0.3454
 8229TIP3   OH246101   3.748   2.401   3.934  0.2815  0.8815 -0.2199
 8229TIP3    H146102   3.818   2.466   3.944  1.3234 -0.3139  0.6782
 8229TIP3    H246103   3.762   2.339   4.006 -0.9705 -0.0717 -0.7458
 8230TIP3   OH246104   3.370   0.624  15.016  0.0138  0.2680 -0.1313
 8230TIP3    H146105   3.407   0.548  14.969  0.4209 -0.4593  1.3018
 8230TIP3    H246106   3.446   0.679  15.035 -0.2867  1.0963 -1.2068
 8231TIP3   OH246107   4.177   2.124   6.188 -0.1710  0.5134  0.0708
 8231TIP3    H146108   4.187   2.206   6.235 -0.2132 -0.2740  1.4928
 8231TIP3    H246109   4.084   2.105   6.191 -0.1142  0.2264  0.0597
 8232TIP3   OH246110   4.278   2.735   1.859 -0.1859  0.3496  0.0525
 8232TIP3    H146111   4.184   2.742   1.844 -0.3145 -0.8164  0.2052
 8232TIP3    H246112   4.296   2.641   1.852  1.3845  0.7292 -2.5060
 8233TIP3   OH246113   0.698   6.503   0.848 -0.4195 -0.3624 -0.2893
 8233TIP3    H146114   0.760   6.450   0.899 -1.0752  0.0369  0.9534
 8233TIP3    H246115   0.672   6.573   0.908 -2.4209 -0.7792 -0.6186
 8234TIP3   OH246116   5.477   3.511  10.712  0.6724  0.1234 -0.0697
 8234TIP3    H146117   5.560   3.487  10.669  0.3868  0.9650 -1.1445
 8234TIP3    H246118   5.429   3.560  10.645 -0.9641 -0.8521  0.3421
 8235TIP3   OH246119   5.901   6.122   0.501 -0.2849  0.1695 -0.1571
 8235TIP3    H146120   5.941   6.035   0.496 -2.1090 -0.7070 -0.1772
 8235TIP3    H246121   5.809   6.105   0.522 -1.2363  1.9651 -2.5269
 8236TIP3   OH246122   2.639   5.881  12.792  0.8310  0.1486  0.5138
 8236TIP3    H146123   2.610   5.886  12.701  0.5941 -0.2927  0.5628
 8236TIP3    H246124   2.717   5.936  12.796  2.2777 -1.7421 -0.5098
 8237TIP3   OH246125   2.933   0.912  13.005 -0.0410  1.3383 -0.2422
 8237TIP3    H146126   2.859   0.956  13.049 -0.7568 -0.1401  0.0809
 8237TIP3    H246127   3.008   0.930  13.062 -0.7485  0.3564  1.0613
 8238TIP3   OH246128   3.381   3.906  12.462 -0.5896  0.3345 -0.0283
 8238TIP3    H146129   3.443   3.929  12.531  0.8657 -3.1782  0.0692
 8238TIP3    H246130   3.308   3.865  12.508 -0.4606 -0.3706 -0.4390
 8239TIP3   OH246131   3.211   4.796  13.764  0.7309 -0.0554  0.0385
 8239TIP3    H146132   3.224   4.702  13.776  2.1131  0.0951 -0.1166
 8239TIP3    H246133   3.163   4.824  13.841 -1.6963 -1.2451 -0.9359
 8240TIP3   OH246134   0.663   2.992   2.663 -0.5615 -0.1257 -0.0444
 8240TIP3    H146135   0.693   3.032   2.745 -0.6080 -0.6142  0.2098
 8240TIP3    H246136   0.612   2.916   2.690  0.4789 -1.0153 -0.5639
 8241TIP3   OH246137   1.892   2.903  15.866 -0.0342 -0.1610 -0.8049
 8241TIP3    H146138   1.843   2.821  15.859 -1.3428  0.6042 -0.9297
 8241TIP3    H246139   1.962   2.895  15.801 -0.3664 -1.0271 -1.0692
 8242TIP3   OH246140   5.946   4.194  11.881  0.4181 -0.5637  0.2115
 8242TIP3    H146141   5.963   4.153  11.966  0.4970 -0.3360  0.3081
 8242TIP3    H246142   6.007   4.152  11.821 -0.0579 -1.1577  0.1386
 8243TIP3   OH246143   6.634   1.486   3.527 -0.1484  0.4853  0.0253
 8243TIP3    H146144   6.567   1.506   3.461 -0.6721  0.0375  0.4150
 8243TIP3    H246145   6.597   1.415   3.578  0.7265  0.0837  0.1114
 8244TIP3   OH246146   2.330   6.210   5.834 -0.1295 -0.2544  0.1372
 8244TIP3    H146147   2.272   6.282   5.859  0.4717  0.1291  0.4400
 8244TIP3    H246148   2.352   6.229   5.743  0.2115  0.0737  0.2854
 8245TIP3   OH246149   3.999   4.503  12.478 -0.0045  0.2958 -0.3226
 8245TIP3    H146150   4.091   4.530  12.476  0.7310 -2.0248 -1.6062
 8245TIP3    H246151   4.002   4.411  12.505 -1.8095 -0.2390 -1.7661
 8246TIP3   OH246152   5.351   3.864   6.359 -0.0067 -0.2713 -0.0307
 8246TIP3    H146153   5.415   3.794   6.370 -1.1221 -1.4590 -0.8481
 8246TIP3    H246154   5.336   3.896   6.448  1.4825 -0.1572  0.2125
 8247TIP3   OH246155   6.296   4.639  15.074 -0.3440 -0.4590  0.1300
 8247TIP3    H146156   6.351   4.597  15.140 -1.5967  0.2085  1.6846
 8247TIP3    H246157   6.315   4.732  15.083 -0.1090 -0.4056 -0.8721
 8248TIP3   OH246158   0.703   0.927   4.527  0.7449 -0.0060 -0.8295
 8248TIP3    H146159   0.764   0.879   4.472 -1.0709 -0.5983 -2.4311
 8248TIP3    H246160   0.653   0.860   4.573 -0.4907  0.3614 -1.5909
 8249TIP3   OH246161   4.172   1.935   0.894 -0.2607  0.6585 -1.1956
 8249TIP3    H146162   4.194   1.987   0.817 -0.5012  2.9267  0.1820
 8249TIP3    H246163   4.238   1.958   0.959  0.2287 -1.5918 -0.8160
 8250TIP3   OH246164   6.339   1.063   0.615 -0.3390 -0.0111  0.0516
 8250TIP3    H146165   6.392   1.045   0.537 -0.5071  0.7427 -0.2538
 8250TIP3    H246166   6.317   1.156   0.607 -0.2180  0.1155  1.0952
 8251TIP3   OH246167   0.561   2.362   5.208 -0.1917  0.2066  0.1603
 8251TIP3    H146168   0.491   2.298   5.215 -0.6825  0.3909 -2.1352
 8251TIP3    H246169   0.518   2.441   5.173  1.1686  0.1542 -1.8360
 8252TIP3   OH246170   0.557   0.042  12.724  0.2740 -0.2975  0.2636
 8252TIP3    H146171   0.511  -0.026  12.772  0.6461 -1.0443 -0.4004
 8252TIP3    H246172   0.637   0.058  12.775 -0.7426  1.1260  1.5095
 8253TIP3   OH246173   0.868   4.558  11.264  0.1101 -0.5013  0.0082
 8253TIP3    H146174   0.782   4.587  11.294 -0.4809 -1.6269 -0.5256
 8253TIP3    H246175   0.849   4.501  11.189  1.4394  0.8560 -1.4245
 8254TIP3   OH246176   5.192   0.119   6.213 -0.1677  0.0107  0.1194
 8254TIP3    H146177   5.272   0.124   6.160  0.3041  1.0311  0.8916
 8254TIP3    H246178   5.211   0.055   6.280 -1.0697 -1.9332 -1.3713
 8255TIP3   OH246179   5.849   2.205  13.700  0.2402  0.3616  0.0536
 8255TIP3    H146180   5.798   2.283  13.723  0.6437  1.3409 -2.1159
 8255TIP3    H246181   5.925   2.240  13.654  1.8455 -1.2018  1.4089
 8256TIP3   OH246182   0.015   0.407  15.471  0.0946 -0.2321 -0.0009
 8256TIP3    H146183  -0.017   0.495  15.449 -1.3005 -0.9374 -0.9065
 8256TIP3    H246184   0.110   0.413  15.460 -0.0948  0.8446 -1.2557
 8257TIP3   OH246185   4.276   5.031   0.781  0.0148 -0.0215 -0.1432
 8257TIP3    H146186   4.324   5.099   0.733 -1.3746  0.9929 -0.1338
 8257TIP3    H246187   4.256   4.965   0.715  0.9344 -0.1987 -0.2586
 8258TIP3   OH246188   2.774   1.867  17.034  0.6746  0.5702  0.1485
 8258TIP3    H146189   2.782   1.772  17.029 -0.2197  0.4748  0.3599
 8258TIP3    H246190   2.744   1.893  16.946  2.8460  0.8967 -0.5666
 8259TIP3   OH246191   1.707   6.465  12.246 -0.2759 -0.0048  0.1622
 8259TIP3    H146192   1.748   6.515  12.174 -1.5039 -0.2699 -0.7498
 8259TIP3    H246193   1.721   6.374  12.222 -1.1147 -0.0947  0.0144
 8260TIP3   OH246194   3.485   0.944   3.060 -0.0381  0.3260 -0.1302
 8260TIP3    H146195   3.407   0.999   3.058  0.4895  1.3674 -5.5215
 8260TIP3    H246196   3.558   1.006   3.058  0.7208 -0.5723 -1.0760
 8261TIP3   OH246197   3.638   5.628   3.495  0.0394 -0.0864 -0.3341
 8261TIP3    H146198   3.659   5.536   3.511  1.2059  0.5026  2.0096
 8261TIP3    H246199   3.543   5.633   3.503  0.0464 -0.9490  0.5631
 8262TIP3   OH246200   0.619   2.917  14.416  0.4252 -0.2833 -0.6172
 8262TIP3    H146201   0.535   2.894  14.456 -0.1337  1.0203 -1.0209
 8262TIP3    H246202   0.598   2.942  14.326  0.4080  5.0165  0.5604
 8263TIP3   OH246203   4.949   1.741   0.779 -0.2446 -0.3623  0.4104
 8263TIP3    H146204   4.935   1.801   0.852  2.1050 -0.1729  0.7914
 8263TIP3    H246205   4.917   1.789   0.703 -2.3951 -0.4133  1.2249
 8264TIP3   OH246206   1.080   0.120  16.418  0.0651  0.7358  0.3341
 8264TIP3    H146207   1.007   0.058  16.420  1.4665 -0.9703  1.4256
 8264TIP3    H246208   1.056   0.187  16.482 -0.7153  0.4139  0.3927
 8265TIP3   OH246209   5.412   2.828   3.945 -0.3100  0.1326  0.6748
 8265TIP3    H146210   5.345   2.887   3.980 -1.5941 -0.1672 -1.1295
 8265TIP3    H246211   5.406   2.838   3.850 -1.9147 -4.1328  0.0762
 8266TIP3   OH246212   1.939   3.392  14.695 -0.0741  0.3231 -0.3104
 8266TIP3    H146213   1.947   3.478  14.653  1.1647  1.1719  1.5508
 8266TIP3    H246214   2.022   3.349  14.677 -0.1417  0.0796 -0.0410
 8267TIP3   OH246215   5.486   3.596  16.540  0.0531 -0.0846  0.1824
 8267TIP3    H146216   5.579   3.602  16.518 -0.4012  2.7050 -1.3539
 8267TIP3    H246217   5.448   3.676  16.505 -2.7596 -0.6035  1.7947
 8268TIP3   OH246218   3.517   5.645  17.073  0.2113 -0.0716 -0.3469
 8268TIP3    H146219   3.446   5.613  17.128 -0.7411 -1.1933 -2.1526
 8268TIP3    H246220   3.593   5.592  17.099  0.3456  0.8436  1.2865
 8269TIP3   OH246221   2.817   5.120  11.835 -0.0666  0.1821 -0.2807
 8269TIP3    H146222   2.844   5.032  11.808  0.7571  0.8419 -1.6689
 8269TIP3    H246223   2.723   5.113  11.847 -0.2932 -0.4552 -2.1816
 8270TIP3   OH246224   4.448   0.861  13.893  0.4497 -0.5957  0.6298
 8270TIP3    H146225   4.363   0.903  13.882  0.1206 -0.4075  3.2208
 8270TIP3    H246226   4.449   0.792  13.826 -1.0120  0.4523 -0.5465
 8271TIP3   OH246227   2.202   5.519   2.175  0.1717  0.3618 -0.2459
 8271TIP3    H146228   2.206   5.475   2.090 -0.8261  0.7172 -0.4936
 8271TIP3    H246229   2.241   5.457   2.236  1.2032  0.2280 -0.9964
 8272TIP3   OH246230   5.588   0.204   4.458 -0.1983 -0.7583  0.2758
 8272TIP3    H146231   5.544   0.269   4.513 -0.6552 -0.3040 -0.6120
 8272TIP3    H246232   5.679   0.205   4.488  0.3604  1.9333 -1.1653
 8273TIP3   OH246233   0.768   5.042   2.004  0.4591  0.0756 -0.4527
 8273TIP3    H146234   0.692   5.100   1.992  1.1491  0.8269 -1.3358
 8273TIP3    H246235   0.797   5.021   1.915  0.3912 -1.4360 -0.1401
 8274TIP3   OH246236   3.072   3.848   1.504  0.1284 -0.1013  0.0019
 8274TIP3    H146237   2.982   3.821   1.520 -0.5900  1.1683 -1.6265
 8274TIP3    H246238   3.100   3.888   1.587 -0.4669 -1.2908  0.8036
 8275TIP3   OH246239   5.328   2.045  15.096 -0.6263  0.1504  0.0450
 8275TIP3    H146240   5.398   2.098  15.058  0.2935 -0.2152  1.1918
 8275TIP3    H246241   5.258   2.048  15.030  0.7742 -0.1899 -1.5254
 8276TIP3   OH246242   5.942   6.465  13.263  0.4151  0.0822  0.3022
 8276TIP3    H146243   5.889   6.544  13.273  1.6930  0.8722  1.1765
 8276TIP3    H246244   5.917   6.430  13.178 -1.5128  0.3982  0.6934
 8277TIP3   OH246245   4.438   6.164  16.554  0.0351  0.1185 -0.2632
 8277TIP3    H146246   4.477   6.161  16.641 -0.8547  1.9027  0.2615
 8277TIP3    H246247   4.509   6.142  16.494  1.6576  2.3757  0.7085
 8278TIP3   OH246248   5.211   6.194   0.257  0.5861 -0.4219  0.1245
 8278TIP3    H146249   5.202   6.288   0.268 -0.4447 -0.5155  0.1715
 8278TIP3    H246250   5.213   6.181   0.162 -0.2035 -0.4283  0.1069
 8279TIP3   OH246251   0.414   3.381   4.124 -0.0737 -0.0653 -0.3265
 8279TIP3    H146252   0.353   3.373   4.197 -0.4117 -0.1690 -0.6210
 8279TIP3    H246253   0.387   3.459   4.077 -0.2612 -0.3587 -0.7141
 8280TIP3   OH246254   0.029   4.625  16.733  0.5533  0.1790  0.2189
 8280TIP3    H146255   0.123   4.645  16.727  0.8953 -1.1672  0.6863
 8280TIP3    H246256   0.024   4.552  16.794 -0.8732  0.5787  0.6232
 8281TIP3   OH246257   5.688   0.495  10.462 -0.2155 -0.4670 -0.2092
 8281TIP3    H146258   5.608   0.442  10.464 -0.1452 -0.5711  2.3742
 8281TIP3    H246259   5.759   0.433  10.477  0.1163 -0.0154  0.1271
 8282TIP3   OH246260   2.611   2.856  14.026  0.1124  0.2248  0.2504
 8282TIP3    H146261   2.618   2.815  14.113 -0.3018  0.6444  0.4866
 8282TIP3    H246262   2.632   2.786  13.965  0.7792  0.0164  0.7039
 8283TIP3   OH246263   2.885   3.022  11.390  0.1741 -0.0141 -0.4468
 8283TIP3    H146264   2.824   2.948  11.383  1.5697 -1.1681 -0.9932
 8283TIP3    H246265   2.939   3.002  11.466 -2.0726  2.6122  2.1048
 8284TIP3   OH246266   3.125   1.825  11.841  0.0047 -0.2627 -0.1259
 8284TIP3    H146267   3.156   1.773  11.915 -0.0779  2.8918  2.3334
 8284TIP3    H246268   3.202   1.836  11.786  1.6255  1.6022  2.2771
 8285TIP3   OH246269   3.429   2.494   2.080 -0.1518 -0.5831  0.3088
 8285TIP3    H146270   3.358   2.431   2.096 -0.1145 -0.2627  1.9397
 8285TIP3    H246271   3.391   2.560   2.023 -0.8246 -1.0129  0.2514
 8286TIP3   OH246272   1.830   2.053   5.663  0.5800  0.2835 -0.0762
 8286TIP3    H146273   1.782   2.072   5.582  0.1005 -0.6111 -0.0246
 8286TIP3    H246274   1.830   1.957   5.668  1.7114  0.2975  0.3362
 8287TIP3   OH246275   1.990   2.546   0.829 -0.1116 -0.0109 -0.2040
 8287TIP3    H146276   1.902   2.555   0.794 -0.1704 -2.3072 -0.7523
 8287TIP3    H246277   2.043   2.515   0.755  1.4453  2.3288 -0.1786
 8288TIP3   OH246278   6.232   1.921   5.582  0.2232 -0.3056  0.0685
 8288TIP3    H146279   6.228   1.844   5.638 -0.5848 -1.2220 -1.2113
 8288TIP3    H246280   6.318   1.959   5.599  0.8057 -1.7211  0.4000
 8289TIP3   OH246281   4.653   6.117  12.939  0.0573 -0.2929  0.2186
 8289TIP3    H146282   4.702   6.143  12.861  0.1887 -2.8935 -0.6553
 8289TIP3    H246283   4.562   6.110  12.909  0.1608 -1.6378  0.1786
 8290TIP3   OH246284   2.634   5.884   1.293 -0.2326  0.6207 -0.2505
 8290TIP3    H146285   2.556   5.939   1.288  0.0085  0.9574 -0.3892
 8290TIP3    H246286   2.606   5.806   1.340 -0.3767  1.2422  0.7334
 8291TIP3   OH246287   6.163   3.754  15.020 -0.2112  0.3097 -0.2307
 8291TIP3    H146288   6.147   3.687  14.954  1.7337  0.5634 -1.0312
 8291TIP3    H246289   6.121   3.833  14.986  1.6042  0.6958 -1.7257
 8292TIP3   OH246290   4.676   2.448  12.104 -0.1379 -0.6304  0.5906
 8292TIP3    H146291   4.620   2.525  12.105 -0.2802 -0.5167 -2.9985
 8292TIP3    H246292   4.757   2.478  12.147 -0.7183  1.0385  0.6215
 8293TIP3   OH246293   5.501   2.487   2.010 -0.3548 -0.2618 -0.1090
 8293TIP3    H146294   5.473   2.565   2.057 -1.7687 -0.9290  0.2315
 8293TIP3    H246295   5.591   2.473   2.037 -0.2162  1.0029  0.1429
 8294TIP3   OH246296   2.554   0.097   4.033  0.4938  0.2227  0.2905
 8294TIP3    H146297   2.531   0.179   4.076 -0.5281 -1.1734  2.6110
 8294TIP3    H246298   2.633   0.068   4.079  0.6104 -0.2998 -0.2309
 8295TIP3   OH246299   6.424   6.764   0.930 -0.0218  0.4084 -0.1687
 8295TIP3    H146300   6.442   6.809   0.847  0.4464  0.9324  0.2157
 8295TIP3    H246301   6.510   6.754   0.971  0.1012 -1.9575 -0.7999
 8296TIP3   OH246302   0.280   4.915   3.959  0.2192  0.1407  0.4806
 8296TIP3    H146303   0.188   4.919   3.932 -0.7340 -2.1102  2.9797
 8296TIP3    H246304   0.297   5.000   4.000 -0.8149  0.4991  0.1931
 8297TIP3   OH246305   0.394   5.122   4.162  0.1466  0.4533  0.0539
 8297TIP3    H146306   0.489   5.135   4.167  0.1462  0.7177 -0.5953
 8297TIP3    H246307   0.358   5.210   4.172  0.0501  0.6426 -1.7167
 8298TIP3   OH246308   1.091   6.698   1.470  0.3046 -0.0406  0.1723
 8298TIP3    H146309   1.012   6.683   1.418  0.8277 -1.0036 -0.3517
 8298TIP3    H246310   1.154   6.735   1.409  0.3520  0.5099  0.5414
 8299TIP3   OH246311   4.662   6.242   4.524 -0.3511 -0.1008 -0.2411
 8299TIP3    H146312   4.615   6.262   4.443 -0.2072 -0.2107 -0.3517
 8299TIP3    H246313   4.635   6.153   4.547 -0.2521 -0.1382 -0.2680
 8300TIP3   OH246314   5.418   5.523  14.445 -0.6022  0.2243 -0.3875
 8300TIP3    H146315   5.426   5.484  14.358 -0.9111  0.9826 -0.7642
 8300TIP3    H246316   5.508   5.529  14.477 -0.6209 -2.2850  0.3848
 8301TIP3   OH246317   6.428   1.004  12.267 -0.7709 -0.0460 -0.0002
 8301TIP3    H146318   6.349   1.019  12.319 -0.5584  1.3323 -0.0517
 8301TIP3    H246319   6.398   1.006  12.176 -0.2749  3.8602 -0.2325
 8302TIP3   OH246320   3.829   0.201  11.910 -0.4235  0.4405  0.0970
 8302TIP3    H146321   3.822   0.227  11.818 -1.3844  1.9560  0.5627
 8302TIP3    H246322   3.874   0.116  11.908  0.6495  1.0029 -1.6827
 8303TIP3   OH246323   5.341   0.052  14.876  0.2583  0.5322 -0.2860
 8303TIP3    H146324   5.348  -0.022  14.935  0.7038  0.2194 -0.7274
 8303TIP3    H246325   5.255   0.041  14.834 -0.9445  1.8103  1.6857
 8304TIP3   OH246326   0.535   2.687   5.396  0.5895 -0.2404 -0.1627
 8304TIP3    H146327   0.523   2.750   5.325 -0.3224  1.0384  1.0671
 8304TIP3    H246328   0.499   2.605   5.362 -2.4073  1.0089 -0.2689
 8305TIP3   OH246329   4.521   1.737   4.270  0.0498  0.0750 -0.1597
 8305TIP3    H146330   4.497   1.722   4.179  2.4729 -4.4956 -0.3555
 8305TIP3    H246331   4.614   1.759   4.267  0.0529  0.3160  1.1757
 8306TIP3   OH246332   1.477   5.264  11.645 -0.5112 -0.8131 -0.0321
 8306TIP3    H146333   1.507   5.272  11.554 -2.1007 -1.4069 -0.6435
 8306TIP3    H246334   1.393   5.218  11.639 -0.3738 -1.3778  1.7958
 8307TIP3   OH246335   1.942   5.798   0.483  0.1010  0.2168  0.0746
 8307TIP3    H146336   1.906   5.800   0.572  1.2868  0.6427  0.5577
 8307TIP3    H246337   1.891   5.863   0.435 -1.3566 -0.8463  0.0959
 8308TIP3   OH246338   3.228   6.439  17.120  0.1284 -0.3251 -0.4098
 8308TIP3    H146339   3.209   6.487  17.200 -1.9845 -0.2711 -0.8779
 8308TIP3    H246340   3.272   6.502  17.063  0.0583  0.1694  0.0789
 8309TIP3   OH246341   0.150   0.415   5.172  0.5155 -0.3114  0.1436
 8309TIP3    H146342   0.060   0.444   5.185 -0.3310 -2.7049  0.1401
 8309TIP3    H246343   0.200   0.460   5.240 -0.3255  2.3066 -0.8421
 8310TIP3   OH246344   5.654   1.757  15.526 -0.4884  0.1053 -0.2189
 8310TIP3    H146345   5.589   1.763  15.596  0.5085  0.9464  0.6773
 8310TIP3    H246346   5.637   1.834  15.472 -0.8314 -0.1881 -0.5378
 8311TIP3   OH246347   0.373   6.415  15.289 -0.0545  0.6014  0.6265
 8311TIP3    H146348   0.324   6.398  15.209  0.9807  1.1680 -0.1631
 8311TIP3    H246349   0.455   6.366  15.278 -0.7923 -1.1454  2.3598
 8312TIP3   OH246350   6.666   0.886   0.891  0.2179  0.1540  0.1782
 8312TIP3    H146351   6.754   0.858   0.915  0.3451  0.9215  0.6616
 8312TIP3    H246352   6.678   0.971   0.848 -0.3703  0.9957  1.5828
 8313TIP3   OH246353   3.360   2.527  13.242  0.1132  0.4049  0.2532
 8313TIP3    H146354   3.353   2.609  13.289  0.3345  0.1874  0.6736
 8313TIP3    H246355   3.303   2.466  13.290 -1.3164  0.7078 -0.9769
 8314TIP3   OH246356   6.735   1.626   0.765 -0.2062  0.1143  0.1947
 8314TIP3    H146357   6.695   1.708   0.793 -0.3435  1.2010 -2.8142
 8314TIP3    H246358   6.829   1.644   0.764 -0.3048  0.8843 -1.9454
 8315TIP3   OH246359   0.278   6.262  15.739  0.2193 -0.2447 -0.2460
 8315TIP3    H146360   0.333   6.211  15.679 -0.3735 -0.9565 -0.1957
 8315TIP3    H246361   0.190   6.229  15.724 -0.1690  0.7528 -0.1788
 8316TIP3   OH246362   4.388   0.824  17.061 -0.1561  0.0437  0.1778
 8316TIP3    H146363   4.401   0.917  17.043  2.0935 -0.1223  0.6073
 8316TIP3    H246364   4.439   0.780  16.993 -0.4733 -0.8632  0.5194
 8317TIP3   OH246365   2.638   4.072  13.358  0.5897  0.1543 -0.6182
 8317TIP3    H146366   2.724   4.073  13.400  0.7415  0.1117 -0.9225
 8317TIP3    H246367   2.637   3.991  13.306  0.6402  0.4989 -1.1665
 8318TIP3   OH246368   4.342   4.595   3.161 -0.2874 -0.4326  0.8475
 8318TIP3    H146369   4.408   4.526   3.168 -0.6570 -0.7316  1.5746
 8318TIP3    H246370   4.287   4.569   3.087 -0.9526 -1.4139  1.6502
 8319TIP3   OH246371   0.658   0.331  12.257  0.0349  0.2597 -0.4454
 8319TIP3    H146372   0.601   0.289  12.322 -1.5591  1.7864 -0.7861
 8319TIP3    H246373   0.612   0.319  12.174  0.4703  1.0636 -0.8031
 8320TIP3   OH246374   1.197   3.705  15.228 -0.4997  0.0426 -0.0255
 8320TIP3    H146375   1.275   3.761  15.225 -1.7117  1.8025 -0.4483
 8320TIP3    H246376   1.203   3.651  15.149  0.2143  0.2608 -0.1275
 8321TIP3   OH246377   3.033   5.736  12.208 -0.5114  0.1597 -0.2553
 8321TIP3    H146378   3.114   5.699  12.244 -0.1733  1.4480  0.3953
 8321TIP3    H246379   3.057   5.825  12.182 -1.4648  0.1958 -1.0562
 8322TIP3   OH246380   3.876   4.957  15.384 -0.3963 -0.8721 -0.2614
 8322TIP3    H146381   3.900   4.896  15.453 -1.2117 -3.3807 -2.0487
 8322TIP3    H246382   3.960   4.990  15.351  0.1792 -2.2684 -0.2660
 8323TIP3   OH246383   1.936   3.906  10.700  0.2335  0.1052 -0.4392
 8323TIP3    H146384   1.885   3.968  10.648 -1.8114 -0.5077  0.7198
 8323TIP3    H246385   2.000   3.960  10.746  0.2839  0.9858 -1.5042
 8324TIP3   OH246386   6.062   5.300  10.384  0.0725 -0.0011  0.5007
 8324TIP3    H146387   6.117   5.228  10.353 -1.1493 -0.3108 -1.1182
 8324TIP3    H246388   5.974   5.261  10.388 -0.4847  1.2046  0.2951
 8325TIP3   OH246389   1.567   5.332  12.505  0.6644  0.2481  0.3228
 8325TIP3    H146390   1.489   5.385  12.521  0.2571 -0.5407  1.0540
 8325TIP3    H246391   1.640   5.384  12.538  0.6446  1.5780 -1.5633
 8326TIP3   OH246392   6.642   5.337  13.012  0.2708  0.6523  0.1462
 8326TIP3    H146393   6.688   5.336  12.928  0.3062  2.3847  0.1002
 8326TIP3    H246394   6.698   5.286  13.071  1.5763  1.5718 -0.2494
 8327TIP3   OH246395   2.658   0.628   4.989  0.6866 -0.0956  0.1235
 8327TIP3    H146396   2.682   0.537   4.971  1.5737 -0.1215  1.2656
 8327TIP3    H246397   2.681   0.675   4.909  1.6688 -0.6479  0.0638
 8328TIP3   OH246398   4.509   2.326  11.671  0.0658  0.4007 -0.2364
 8328TIP3    H146399   4.570   2.256  11.692  0.8536  1.4491  1.2076
 8328TIP3    H246400   4.494   2.319  11.577  0.1119 -1.6702 -0.1231
 8329TIP3   OH246401   2.080   4.642  16.872 -0.2437 -0.2046  0.3406
 8329TIP3    H146402   2.151   4.647  16.808 -0.1970  1.2026  0.4619
 8329TIP3    H246403   2.024   4.717  16.851 -0.5243 -0.0304  1.6107
 8330TIP3   OH246404   3.290   1.325   2.273  0.2015 -0.8955 -0.1580
 8330TIP3    H146405   3.311   1.417   2.286 -4.0044  0.0358  1.8764
 8330TIP3    H246406   3.237   1.324   2.193 -2.2220 -0.8928  1.3397
 8331TIP3   OH246407   3.825   5.749  16.832  0.2643  0.2064 -0.2964
 8331TIP3    H146408   3.883   5.815  16.871  1.2023 -1.1280  0.6604
 8331TIP3    H246409   3.741   5.762  16.876  0.7895 -0.0276  0.8031
 8332TIP3   OH246410   1.553   6.769   4.159 -0.0832 -0.2645  0.2555
 8332TIP3    H146411   1.507   6.834   4.104  0.4063 -0.5927 -0.5594
 8332TIP3    H246412   1.518   6.685   4.130 -1.0747 -0.3774  1.6463
 8333TIP3   OH246413   6.764   2.856   4.735 -0.2169 -0.2667 -0.0420
 8333TIP3    H146414   6.793   2.864   4.826 -0.5624 -1.5075  0.2005
 8333TIP3    H246415   6.830   2.801   4.694  0.1587  0.6304 -0.6610
 8334TIP3   OH246416   2.234   5.219  13.992  0.7400 -0.2065  0.1371
 8334TIP3    H146417   2.146   5.256  14.000  1.0667  0.7894 -0.6087
 8334TIP3    H246418   2.258   5.194  14.081  0.6387  1.7874  0.7836
 8335TIP3   OH246419   2.170   2.236  15.824  0.1576 -0.2904  0.5602
 8335TIP3    H146420   2.142   2.247  15.733  1.1308 -0.1164  0.2714
 8335TIP3    H246421   2.235   2.166  15.820 -0.2631 -0.7284  1.2265
 8336TIP3   OH246422   0.434   3.812   4.566  0.3730 -0.4063 -0.2306
 8336TIP3    H146423   0.345   3.777   4.563  0.4697 -0.6090 -0.8908
 8336TIP3    H246424   0.475   3.764   4.639 -0.0745 -0.2498  0.1328
 8337TIP3   OH246425   3.519   4.177   0.975  0.6542  0.1787  0.5726
 8337TIP3    H146426   3.489   4.169   0.885 -1.1606  0.8321  1.0631
 8337TIP3    H246427   3.569   4.097   0.991  2.5398  0.8466 -1.4965
 8338TIP3   OH246428   5.675   2.227  14.187 -0.4932  0.3718  0.3020
 8338TIP3    H146429   5.723   2.290  14.132  0.4741 -0.1895  0.4824
 8338TIP3    H246430   5.639   2.164  14.125  0.7876 -0.3883  0.3067
 8339TIP3   OH246431   3.283   6.292   4.440  0.2396 -0.4422  0.3142
 8339TIP3    H146432   3.278   6.338   4.524  0.4753  1.7060 -0.7616
 8339TIP3    H246433   3.235   6.211   4.454  2.2050 -1.2584  3.1769
 8340TIP3   OH246434   6.001   3.359   0.456  0.1359  0.2909  0.0306
 8340TIP3    H146435   6.031   3.268   0.462  0.4991  0.4616  1.0154
 8340TIP3    H246436   5.948   3.362   0.376 -1.9483 -1.4164  1.2353
 8341TIP3   OH246437   0.510   6.773   1.285  0.1410 -0.2926 -0.2960
 8341TIP3    H146438   0.517   6.721   1.364 -2.2872  0.0616  0.2212
 8341TIP3    H246439   0.514   6.864   1.315 -0.7238 -0.1556 -0.5689
 8342TIP3   OH246440   3.226   0.615  13.049  0.3588  0.3441 -0.2647
 8342TIP3    H146441   3.136   0.594  13.073  0.1128 -0.0333 -1.4522
 8342TIP3    H246442   3.237   0.707  13.073 -1.0442  1.0346 -2.0293
 8343TIP3   OH246443   0.176   6.133   0.331  0.3320  0.1904 -0.8369
 8343TIP3    H146444   0.149   6.205   0.388 -0.1190 -0.0907 -0.6850
 8343TIP3    H246445   0.242   6.171   0.273  0.6292  0.5366 -0.2802
 8344TIP3   OH246446   4.562   6.722   2.689 -0.7346 -0.3546 -0.3465
 8344TIP3    H146447   4.520   6.665   2.624 -0.0546 -0.9987 -0.2427
 8344TIP3    H246448   4.647   6.743   2.650 -0.7870  0.2052 -0.1645
 8345TIP3   OH246449   0.313   2.980   0.625 -0.9859  0.4261 -0.2797
 8345TIP3    H146450   0.382   3.043   0.608 -0.8657  0.7205  1.1887
 8345TIP3    H246451   0.238   3.033   0.653 -1.1903 -0.0049  0.0059
 8346TIP3   OH246452   5.744   6.680  13.587  0.0921 -0.4697  0.6805
 8346TIP3    H146453   5.690   6.759  13.583  0.4570 -0.1543  1.6906
 8346TIP3    H246454   5.832   6.711  13.567  0.1620 -0.7002  0.6321
 8347TIP3   OH246455   5.959   0.963  13.636  0.5704  0.1863  0.4511
 8347TIP3    H146456   5.999   1.045  13.664 -0.5495  0.3118  1.7859
 8347TIP3    H246457   5.959   0.967  13.541  0.5758  1.7284  0.4981
 8348TIP3   OH246458   5.301   2.026  15.394 -0.6133 -0.1601 -0.5388
 8348TIP3    H146459   5.358   2.095  15.426 -0.2075 -0.2148 -1.1386
 8348TIP3    H246460   5.312   2.026  15.299 -0.9292 -0.7656 -0.5864
 8349TIP3   OH246461   2.440   1.803   2.519  0.1446  0.0169  0.1653
 8349TIP3    H146462   2.372   1.838   2.462  1.4652  1.0392 -0.8375
 8349TIP3    H246463   2.412   1.713   2.537 -0.5731 -0.1747 -1.6912
 8350TIP3   OH246464   3.456   5.687  15.014  0.4220 -0.2201  0.2073
 8350TIP3    H146465   3.537   5.691  15.065  1.0590 -0.1850 -0.7939
 8350TIP3    H246466   3.468   5.613  14.955 -0.7907 -0.9991  0.8742
 8351TIP3   OH246467   2.964   3.365  10.897 -0.1662 -0.0674  0.4676
 8351TIP3    H146468   3.032   3.403  10.843  0.3069  0.9115  1.6851
 8351TIP3    H246469   3.010   3.326  10.971 -0.9293  1.9647  2.1227
 8352TIP3   OH246470   4.976   5.360  15.660  0.1999  0.4924  0.0639
 8352TIP3    H146471   4.926   5.284  15.690  0.3387 -0.9999 -3.1151
 8352TIP3    H246472   5.067   5.338  15.679  0.0191  1.9357  3.1803
 8353TIP3   OH246473   0.068   0.963   4.171 -0.8757  0.6602  0.0611
 8353TIP3    H146474   0.038   1.027   4.107 -0.8810  1.2404  0.6251
 8353TIP3    H246475   0.145   0.923   4.132 -1.4179  0.3372 -0.6968
 8354TIP3   OH246476   1.411   0.319   2.354  0.2299 -0.3774 -0.6713
 8354TIP3    H146477   1.456   0.381   2.296  1.0568 -0.9975 -0.7059
 8354TIP3    H246478   1.358   0.266   2.295 -0.0166 -0.0942 -0.7068
 8355TIP3   OH246479   1.226   5.967  16.598 -0.4073  0.4074 -0.8975
 8355TIP3    H146480   1.141   5.931  16.622 -1.0970  2.2923 -0.3477
 8355TIP3    H246481   1.250   5.920  16.518 -0.1413 -2.8351  0.9191
 8356TIP3   OH246482   2.132   5.568  15.695 -0.0267  0.2900 -0.2769
 8356TIP3    H146483   2.156   5.475  15.686  0.2402  0.4032 -0.7470
 8356TIP3    H246484   2.107   5.577  15.787  1.7017  0.1408  0.2438
 8357TIP3   OH246485   0.045   0.505  11.279 -0.1091  0.3575  0.1283
 8357TIP3    H146486  -0.016   0.471  11.344 -1.1457  0.6114 -0.6955
 8357TIP3    H246487   0.111   0.552  11.331 -0.8926  0.5256  0.9992
 8358TIP3   OH246488   3.512   0.951  10.657 -0.1549  0.0277 -0.1653
 8358TIP3    H146489   3.455   0.980  10.586 -2.0073 -1.9629  0.3961
 8358TIP3    H246490   3.600   0.960  10.623 -0.8677  1.5815 -1.7272
 8359TIP3   OH246491   5.203   2.652   2.367 -0.2404 -0.1238 -0.0309
 8359TIP3    H146492   5.247   2.666   2.283  0.1737 -2.1225 -0.2087
 8359TIP3    H246493   5.210   2.736   2.412 -0.9154  1.1709 -2.1769
 8360TIP3   OH246494   1.238   0.158  11.157  0.4800  0.2299  0.0943
 8360TIP3    H146495   1.305   0.102  11.197 -0.1185  0.0208  0.8195
 8360TIP3    H246496   1.169   0.163  11.223  0.4796  1.7472  0.0137
 8361TIP3   OH246497   2.327   2.566  14.563  0.4899  0.4558  0.3946
 8361TIP3    H146498   2.352   2.657  14.578 -2.0743  1.0508  1.6537
 8361TIP3    H246499   2.374   2.517  14.631  1.5810  0.8643 -0.0420
 8362TIP3   OH246500   1.930   4.947  15.572 -0.1570 -0.2597 -0.1156
 8362TIP3    H146501   1.881   5.027  15.592 -1.3496 -1.4980  2.4757
 8362TIP3    H246502   1.960   4.959  15.482 -4.2900  1.1170 -1.5676
 8363TIP3   OH246503   4.568   3.846   0.467  0.2237  0.3493 -0.0696
 8363TIP3    H146504   4.482   3.869   0.502  0.1014 -1.1207  0.6698
 8363TIP3    H246505   4.629   3.870   0.538  0.1882 -0.6644  0.3149
 8364TIP3   OH246506   4.667   0.273   4.821  0.4380 -0.5927 -0.0705
 8364TIP3    H146507   4.691   0.227   4.901  0.5992 -1.2190 -0.4662
 8364TIP3    H246508   4.581   0.236   4.798  0.1169  0.0142  0.1305
 8365TIP3   OH246509   3.785   1.070  15.708  0.0766 -0.5290 -0.5012
 8365TIP3    H146510   3.693   1.067  15.681 -0.3739 -0.8688  0.9845
 8365TIP3    H246511   3.814   0.979  15.703 -0.5211 -0.8995  1.6959
 8366TIP3   OH246512   5.074   3.988   2.073  1.0414  0.2021  0.6251
 8366TIP3    H146513   5.092   3.960   2.163  1.3371 -2.0624 -0.0780
 8366TIP3    H246514   4.996   3.938   2.047  0.5070  1.3853 -0.1539
 8367TIP3   OH246515   4.760   2.740   1.744  0.0975 -0.0933  0.3685
 8367TIP3    H146516   4.684   2.784   1.783 -0.0079 -2.0317  2.6291
 8367TIP3    H246517   4.722   2.664   1.699  0.5721 -0.1439  0.0478
 8368TIP3   OH246518   0.344   5.838   4.459 -0.1205  0.4800 -0.3867
 8368TIP3    H146519   0.382   5.796   4.382  0.7984  0.6032 -0.0169
 8368TIP3    H246520   0.402   5.811   4.531 -0.7173  0.7160  0.1830
 8369TIP3   OH246521   0.480   5.239   0.691 -0.1679  0.5798  0.7553
 8369TIP3    H146522   0.403   5.294   0.708 -0.2004 -0.1280  3.1597
 8369TIP3    H246523   0.540   5.297   0.644 -1.5480  1.5935  0.1515
 8370TIP3   OH246524   1.769   2.876  11.080 -0.3092  0.4370 -0.1891
 8370TIP3    H146525   1.789   2.798  11.028 -0.0518  0.3466  0.0478
 8370TIP3    H246526   1.846   2.932  11.070  0.3799 -0.2206  1.3056
 8371TIP3   OH246527   0.030   2.886   2.251  0.4394 -0.0431 -0.2520
 8371TIP3    H146528   0.005   2.943   2.324  0.9820 -0.8292  0.5839
 8371TIP3    H246529   0.047   2.946   2.178 -0.7109  0.7180  0.0802
 8372TIP3   OH246530   1.226   1.455  11.290  0.2572 -0.3130 -0.3269
 8372TIP3    H146531   1.250   1.371  11.252  2.7476  0.3451 -0.3953
 8372TIP3    H246532   1.293   1.516  11.258 -1.1026  1.5726  0.2264
 8373TIP3   OH246533   3.969   5.155  15.141  0.0529  0.2661 -0.1283
 8373TIP3    H146534   3.879   5.175  15.166  0.7831  1.3792  1.8787
 8373TIP3    H246535   3.968   5.156  15.045 -2.0518  0.2170 -0.1563
 8374TIP3   OH246536   0.407   3.741  10.777 -0.0749  0.2829 -0.2262
 8374TIP3    H146537   0.434   3.656  10.813 -1.4487  0.0588  0.3448
 8374TIP3    H246538   0.450   3.745  10.692  0.2917 -0.8345 -0.1200
 8375TIP3   OH246539   1.302   1.305   1.504 -0.0968 -0.2240 -0.3238
 8375TIP3    H146540   1.365   1.377   1.499  0.1376 -0.4321 -0.4390
 8375TIP3    H246541   1.251   1.312   1.423 -0.4418  0.1409 -0.0782
 8376TIP3   OH246542   0.817   3.871  16.585 -0.6430 -0.0575 -0.6293
 8376TIP3    H146543   0.856   3.939  16.530 -1.2539  1.0329  0.2370
 8376TIP3    H246544   0.744   3.837  16.533  0.7423 -1.3670 -1.8192
 8377TIP3   OH246545   5.342   2.997  15.218  0.2121  0.3104  0.2015
 8377TIP3    H146546   5.320   2.927  15.157  0.9845  0.5640 -0.3890
 8377TIP3    H246547   5.385   2.953  15.291  1.8034  0.2449 -0.7208
 8378TIP3   OH246548   1.411   4.660  11.735  0.1418  0.2128  0.3600
 8378TIP3    H146549   1.355   4.584  11.749 -0.0106  0.4071  0.8174
 8378TIP3    H246550   1.355   4.724  11.692  0.3199  0.0099 -0.1965
 8379TIP3   OH246551   5.343   1.296  15.329 -0.4577  0.3630  0.7742
 8379TIP3    H146552   5.430   1.259  15.311  0.1317  1.5169  1.1629
 8379TIP3    H246553   5.357   1.356  15.402 -1.5648  0.6633  0.7538
 8380TIP3   OH246554   5.453   6.006  13.350 -0.0896 -0.0932  0.0502
 8380TIP3    H146555   5.420   5.918  13.337 -0.1400 -0.0625 -0.0299
 8380TIP3    H246556   5.539   5.994  13.392  0.0160 -0.1869 -0.1890
 8381TIP3   OH246557   2.833   5.577   5.326 -0.4593  0.2319 -0.3888
 8381TIP3    H146558   2.770   5.533   5.384  0.3334 -0.4730 -0.0358
 8381TIP3    H246559   2.880   5.506   5.284 -1.0436  0.7404 -1.9600
 8382TIP3   OH246560   2.912   3.509   6.453  0.3416  0.1028  0.3468
 8382TIP3    H146561   2.910   3.605   6.446 -1.4812  0.3240  2.6582
 8382TIP3    H246562   2.826   3.481   6.421  0.6326 -0.7204  0.2667
 8383TIP3   OH246563   1.053   4.299  17.132  0.1925 -0.0685  0.0461
 8383TIP3    H146564   1.145   4.288  17.155  0.4861  0.0259 -1.0438
 8383TIP3    H246565   1.039   4.237  17.060 -0.3685  0.5238 -0.3624
 8384TIP3   OH246566   2.206   3.635  14.481  1.0240  0.1533 -0.0510
 8384TIP3    H146567   2.222   3.546  14.448  1.0769 -0.3194  1.2100
 8384TIP3    H246568   2.155   3.677  14.411 -0.7786 -1.5212  0.1731
 8385TIP3   OH246569   6.698   1.113  15.296  0.2926  0.3439 -0.1914
 8385TIP3    H146570   6.672   1.021  15.299  2.3104 -0.2678  2.3094
 8385TIP3    H246571   6.744   1.123  15.213 -0.6316 -0.6512 -0.8553
 8386TIP3   OH246572   4.846   5.915  15.120  0.2567  0.2484  0.0248
 8386TIP3    H146573   4.914   5.899  15.185  1.0388  1.1300 -0.5649
 8386TIP3    H246574   4.858   5.845  15.055 -0.9537 -1.0444  1.1232
 8387TIP3   OH246575   4.708   1.281   2.185  0.2082 -0.2695 -0.1452
 8387TIP3    H146576   4.708   1.185   2.181 -0.8815 -0.3636  1.4114
 8387TIP3    H246577   4.800   1.305   2.185  0.5648 -1.4613  1.8529
 8388TIP3   OH246578   2.616   1.758  10.789  0.1983  0.3672  0.4036
 8388TIP3    H146579   2.627   1.822  10.860 -2.8330 -0.2074  1.5449
 8388TIP3    H246580   2.696   1.705  10.793  1.0520  1.6398  1.9851
 8389TIP3   OH246581   3.662   5.076   3.684  0.3612 -0.0398 -0.0242
 8389TIP3    H146582   3.742   5.074   3.632  0.1434  3.1264 -0.7061
 8389TIP3    H246583   3.597   5.031   3.631  0.4568  2.0332 -2.0501
 8390TIP3   OH246584   5.437   1.155  16.585  0.1150  0.5598  0.2726
 8390TIP3    H146585   5.470   1.068  16.565  1.5687  1.0722  0.2954
 8390TIP3    H246586   5.423   1.195  16.499  0.6211  0.7087  0.2545
 8391TIP3   OH246587   0.595   3.225   5.205 -0.0006 -0.1328 -0.2588
 8391TIP3    H146588   0.537   3.150   5.187  2.2628 -1.6795 -1.7358
 8391TIP3    H246589   0.668   3.187   5.254  0.5208  1.4207  0.2154
 8392TIP3   OH246590   1.587   3.070   0.722  0.7688  0.2635 -0.3303
 8392TIP3    H146591   1.525   3.076   0.650 -0.0690 -0.3298  0.3295
 8392TIP3    H246592   1.668   3.107   0.686  0.0691  0.9996 -1.2191
 8393TIP3   OH246593   3.030   0.992  16.383 -0.1510 -0.8637  0.1739
 8393TIP3    H146594   3.037   1.085  16.404 -1.6277 -0.8975  0.8889
 8393TIP3    H246595   3.109   0.974  16.331  1.1131  0.3471  1.5471
 8394TIP3   OH246596   0.021   4.233  15.267 -0.0021  0.0307 -0.2091
 8394TIP3    H146597   0.073   4.270  15.339 -0.6743  0.4441  0.0788
 8394TIP3    H246598  -0.040   4.303  15.244 -0.0384 -0.2360 -0.9411
 8395TIP3   OH246599   1.023   3.975  15.329  0.3032  0.8844 -0.4153
 8395TIP3    H146600   1.099   3.994  15.274  1.3086  1.2858  1.0521
 8395TIP3    H246601   1.044   3.891  15.370  0.1129  1.1641  0.2617
 8396TIP3   OH246602   6.112   4.556  13.036  0.2607  0.4757  0.9677
 8396TIP3    H146603   6.075   4.623  13.095 -1.0943  0.0133  0.6778
 8396TIP3    H246604   6.196   4.592  13.009 -0.8778  2.5734  0.0060
 8397TIP3   OH246605   4.040   3.633  15.274 -0.4108  0.3811  0.1940
 8397TIP3    H146606   3.996   3.713  15.245  0.2369  0.4330 -0.6718
 8397TIP3    H246607   4.100   3.661  15.342  0.2427  0.7329 -0.5186
 8398TIP3   OH246608   5.078   3.624  15.789  0.2857  0.5610 -0.6142
 8398TIP3    H146609   4.988   3.595  15.777  0.1728  0.8894 -0.5896
 8398TIP3    H246610   5.097   3.609  15.881  0.5027 -0.1825 -0.7766
 8399TIP3   OH246611   3.673   1.638   5.580  0.0142 -0.1723  0.2241
 8399TIP3    H146612   3.587   1.616   5.545  1.0375 -2.3617 -1.1010
 8399TIP3    H246613   3.733   1.575   5.540  2.0020  0.1918  2.3647
 8400TIP3   OH246614   3.960   1.574   0.719 -0.1352  0.3096 -0.3389
 8400TIP3    H146615   3.956   1.633   0.794 -0.0458 -0.9876  0.7249
 8400TIP3    H246616   3.877   1.526   0.722 -0.0529  0.1167 -0.9754
 8401TIP3   OH246617   0.884   2.505   3.621  0.4291 -0.2841  0.1147
 8401TIP3    H146618   0.866   2.588   3.664 -0.1295  1.1165 -2.6120
 8401TIP3    H246619   0.804   2.454   3.634  0.0468  0.3421  0.2717
 8402TIP3   OH246620   1.121   2.510   2.126  0.2733 -0.2451  0.1003
 8402TIP3    H146621   1.175   2.515   2.205  1.9005 -0.2066 -0.9460
 8402TIP3    H246622   1.184   2.522   2.054 -1.5097  2.6747 -1.1507
 8403TIP3   OH246623   5.889   6.781  16.857 -0.0445 -0.0572  0.3903
 8403TIP3    H146624   5.894   6.745  16.946  0.7057 -0.6716  0.1108
 8403TIP3    H246625   5.840   6.715  16.807  0.6710 -0.3348  0.0492
 8404TIP3   OH246626   5.824   3.979   1.492  0.5736 -0.1102 -0.4810
 8404TIP3    H146627   5.829   3.906   1.430  1.0688  0.8921 -1.6785
 8404TIP3    H246628   5.732   4.006   1.488  0.6618  0.1280 -1.0082
 8405TIP3   OH246629   3.944   3.464   4.891 -0.1183  0.4195 -0.4950
 8405TIP3    H146630   3.848   3.461   4.887 -0.1835  1.1682  0.2682
 8405TIP3    H246631   3.964   3.554   4.915  0.6817 -0.2502  1.5574
 8406TIP3   OH246632   3.361   1.345   6.322 -0.2443 -0.4633 -0.1465
 8406TIP3    H146633   3.414   1.361   6.400 -0.8559 -1.1699  0.4258
 8406TIP3    H246634   3.285   1.401   6.332  1.0964  1.8500 -1.7845
 8407TIP3   OH246635   1.133   0.410   1.963  0.3544 -0.3760 -0.0880
 8407TIP3    H146636   1.192   0.477   1.928  2.3336 -1.3824  1.1979
 8407TIP3    H246637   1.052   0.423   1.914  2.2714 -0.3659 -3.5940
 8408TIP3   OH246638   2.052   3.490   6.154  0.6305 -0.1145  0.0475
 8408TIP3    H146639   2.072   3.433   6.080  0.0449 -0.7122  0.3320
 8408TIP3    H246640   2.117   3.468   6.220 -0.0334 -1.0047  0.4294
 8409TIP3   OH246641   2.096   3.056   3.249  0.3980 -0.3144 -0.0047
 8409TIP3    H146642   2.121   2.989   3.313 -1.6658 -1.9182 -0.7572
 8409TIP3    H246643   2.001   3.049   3.243  0.3055  1.4152 -1.5343
 8410TIP3   OH246644   5.349   6.696   1.957  0.1639 -0.0978  0.0591
 8410TIP3    H146645   5.443   6.679   1.952  0.3792  1.0383  0.0492
 8410TIP3    H246646   5.322   6.711   1.866  0.5181  2.2662  0.2973
 8411TIP3   OH246647   1.495   5.681  13.123 -0.6208 -0.0288 -0.3528
 8411TIP3    H146648   1.492   5.725  13.207  2.4238 -1.7076  0.8082
 8411TIP3    H246649   1.454   5.596  13.139 -0.0130 -0.3622 -0.5258
 8412TIP3   OH246650   5.422   0.276   5.791 -0.0996  0.7655 -0.5726
 8412TIP3    H146651   5.360   0.333   5.835  2.3758  1.5055  2.2878
 8412TIP3    H246652   5.376   0.246   5.712 -4.2086  0.7439  1.5855
 8413TIP3   OH246653   4.988   6.386  14.365 -0.7285 -0.2324  0.4615
 8413TIP3    H146654   4.986   6.299  14.406 -1.1960 -0.7632 -0.6289
 8413TIP3    H246655   5.067   6.427  14.400 -0.3109 -1.2382  0.7441
 8414TIP3   OH246656   6.542   0.013  11.254  0.0665  0.2761  0.6709
 8414TIP3    H146657   6.462  -0.036  11.235  0.2496  0.2707 -0.1023
 8414TIP3    H246658   6.519   0.104  11.235 -0.2060  0.4823  1.8897
 8415TIP3   OH246659   4.206   2.157   0.523  0.7595 -0.4723 -0.3644
 8415TIP3    H146660   4.265   2.161   0.599 -2.2051 -0.7437  2.1654
 8415TIP3    H246661   4.183   2.065   0.516 -0.9282 -0.1130  0.0830
 8416TIP3   OH246662   0.775   2.527   3.918 -0.2887 -0.5833 -0.4746
 8416TIP3    H146663   0.781   2.583   3.995  1.0825 -0.5461 -0.5716
 8416TIP3    H246664   0.785   2.587   3.844  1.3865 -0.9236 -0.5747
 8417TIP3   OH246665   6.453   6.231   4.783 -0.0563 -0.2314  0.0739
 8417TIP3    H146666   6.400   6.309   4.801 -0.6518 -0.5216 -0.3970
 8417TIP3    H246667   6.533   6.266   4.743 -0.0291  0.1809  0.4796
 8418TIP3   OH246668   6.050   3.957  14.074 -0.6817  0.3336  0.0630
 8418TIP3    H146669   6.055   3.902  13.995 -1.2979  1.1297 -0.5532
 8418TIP3    H246670   6.138   3.953  14.111 -0.9978 -1.9925  0.7021
 8419TIP3   OH246671   6.038   5.406   3.071  0.6605  0.1416 -0.1243
 8419TIP3    H146672   6.132   5.419   3.083  0.5150  2.3990 -0.8983
 8419TIP3    H246673   5.999   5.491   3.093 -1.0823 -0.4282 -0.8257
 8420TIP3   OH246674   3.536   6.060   3.424  0.3820  0.0168 -0.3192
 8420TIP3    H146675   3.554   6.018   3.509 -1.5064  0.3229  0.2709
 8420TIP3    H246676   3.518   5.988   3.365 -1.3700 -0.1337  0.3324
 8421TIP3   OH246677   4.577   4.666   6.123 -0.0332  0.2310 -0.8667
 8421TIP3    H146678   4.486   4.686   6.099 -0.4568 -1.1027 -0.4615
 8421TIP3    H246679   4.615   4.750   6.148 -0.8114  0.9986 -2.1518
 8422TIP3   OH246680   4.347   1.257  15.185  0.1410  0.4734  0.3000
 8422TIP3    H146681   4.253   1.276  15.189 -0.2220 -1.1821  0.1425
 8422TIP3    H246682   4.389   1.338  15.214 -1.3648  0.7047  1.9572
 8423TIP3   OH246683   2.467   2.416  14.751  0.8105  0.3401 -0.1376
 8423TIP3    H146684   2.436   2.418  14.841  2.2773 -1.0693  0.4594
 8423TIP3    H246685   2.459   2.324  14.726 -0.4878  0.8589 -1.8199
 8424TIP3   OH246686   0.139   0.537   6.078  0.1033  0.1090  0.5239
 8424TIP3    H146687   0.076   0.466   6.065  0.7449 -0.5283  0.7938
 8424TIP3    H246688   0.200   0.529   6.005  1.3525 -0.9174  1.6217
 8425TIP3   OH246689   1.988   2.189  16.158  0.1565 -0.2933 -0.0763
 8425TIP3    H146690   1.943   2.266  16.122  1.9527  0.7620 -0.1753
 8425TIP3    H246691   1.973   2.120  16.094 -0.4586  0.2975 -0.5870
 8426TIP3   OH246692   4.680   1.365   5.281 -0.3306  0.3988  0.3547
 8426TIP3    H146693   4.624   1.427   5.327  0.0802  1.3407 -0.3732
 8426TIP3    H246694   4.697   1.406   5.196  0.1638 -0.5933 -0.0500
 8427TIP3   OH246695   0.256   3.799   0.929 -0.3531  0.1102 -0.0155
 8427TIP3    H146696   0.204   3.761   1.000 -2.1848  1.6438 -0.4219
 8427TIP3    H246697   0.220   3.888   0.919 -0.4494 -0.1693 -3.0906
 8428TIP3   OH246698   5.775   6.184  12.121  0.7223 -0.8213  0.2056
 8428TIP3    H146699   5.749   6.176  12.029  1.6675 -0.5975 -0.0939
 8428TIP3    H246700   5.702   6.147  12.170 -0.8914  1.2214 -0.5027
 8429TIP3   OH246701   0.467   6.194  11.472  0.2862 -0.2826  0.5004
 8429TIP3    H146702   0.556   6.197  11.507  0.2654  2.4438  0.4878
 8429TIP3    H246703   0.478   6.211  11.378 -0.2800  0.5630  0.5837
 8430TIP3   OH246704   0.611   5.805   2.315 -0.0926 -0.5432 -0.2083
 8430TIP3    H146705   0.574   5.892   2.302  0.1608 -0.7131 -2.5560
 8430TIP3    H246706   0.706   5.817   2.309 -0.0850 -1.0678 -1.5155
 8431TIP3   OH246707   6.576   6.721  13.269 -0.3851 -0.0968  0.0707
 8431TIP3    H146708   6.574   6.754  13.179 -1.2550 -0.1967  0.0488
 8431TIP3    H246709   6.632   6.784  13.316 -0.4520  0.3178 -0.3932
 8432TIP3   OH246710   1.503   4.265  12.491  0.4174  0.0323 -0.2131
 8432TIP3    H146711   1.597   4.275  12.505  0.0337  1.8402  1.4120
 8432TIP3    H246712   1.483   4.176  12.521  1.8510 -1.1532 -2.4350
 8433TIP3   OH246713   6.399   6.787   1.696  0.2343  0.0636  0.0898
 8433TIP3    H146714   6.367   6.877   1.692 -1.5838 -0.3592  2.5371
 8433TIP3    H246715   6.324   6.734   1.669  0.5826 -0.7731  0.7013
 8434TIP3   OH246716   4.782   2.624  11.452  0.0474  0.1423 -0.1280
 8434TIP3    H146717   4.718   2.688  11.420  1.2968  0.8264 -1.3544
 8434TIP3    H246718   4.781   2.635  11.547  0.9351  2.7759 -0.3368
 8435TIP3   OH246719   1.487   0.331   0.568 -0.0764 -0.1757  0.4507
 8435TIP3    H146720   1.419   0.269   0.595 -0.1070 -0.1906  0.3434
 8435TIP3    H246721   1.486   0.399   0.635 -0.2689 -0.1237  0.3961
 8436TIP3   OH246722   1.409   4.875   2.472  0.7802  0.3033  0.2653
 8436TIP3    H146723   1.427   4.824   2.393  1.7758  2.4918 -1.0137
 8436TIP3    H246724   1.484   4.857   2.530 -0.5724 -2.3120  1.3628
 8437TIP3   OH246725   0.456   1.846  12.716 -0.5383 -0.6041 -0.3150
 8437TIP3    H146726   0.385   1.879  12.771 -2.9177 -1.2105 -2.7932
 8437TIP3    H246727   0.507   1.923  12.693  0.5104 -0.3270  2.5411
 8438TIP3   OH246728   3.915   0.997   2.489  0.5034 -0.3121  0.1814
 8438TIP3    H146729   3.958   1.036   2.565 -1.2592  0.5258  0.8028
 8438TIP3    H246730   3.939   0.904   2.493  1.1626 -0.1112  1.2412
 8439TIP3   OH246731   6.253   4.651   6.079  0.0068  0.2558  0.4738
 8439TIP3    H146732   6.256   4.664   6.173 -0.2646 -1.5863  0.7739
 8439TIP3    H246733   6.166   4.614   6.062 -0.1161  0.9678 -0.5609
 8440TIP3   OH246734   5.209   4.379  11.569 -0.6087  0.1289  0.7128
 8440TIP3    H146735   5.156   4.424  11.635 -0.3016 -0.5906  1.4727
 8440TIP3    H246736   5.157   4.383  11.489 -1.5280 -0.0074  1.2927
 8441TIP3   OH246737   4.361   0.782  10.573 -0.1596  0.4671  0.5753
 8441TIP3    H146738   4.355   0.874  10.545  2.8958  1.1346  1.7295
 8441TIP3    H246739   4.431   0.746  10.518 -0.2957 -0.7524  1.1898
 8442TIP3   OH246740   5.986   6.525  16.690  0.1326 -0.2193  0.0811
 8442TIP3    H146741   6.056   6.559  16.635  0.3699 -2.0218 -0.8103
 8442TIP3    H246742   5.907   6.569  16.659  0.7828  1.7042  0.9805
 8443TIP3   OH246743   0.808   0.577  13.789 -0.2049 -0.2564  0.3797
 8443TIP3    H146744   0.805   0.638  13.863 -0.7961  0.6321 -0.3652
 8443TIP3    H246745   0.736   0.515  13.806 -1.4286  0.9344 -0.2648
 8444TIP3   OH246746   5.564   2.575   2.329 -0.0292  0.5256  0.1025
 8444TIP3    H146747   5.609   2.513   2.387 -0.7338 -0.5058 -0.4212
 8444TIP3    H246748   5.473   2.546   2.329  0.1725 -0.4170 -2.5859
 8445TIP3   OH246749   0.667   3.819  10.593 -0.3539  0.3491  0.5503
 8445TIP3    H146750   0.725   3.870  10.537 -0.0404 -1.4027 -0.7611
 8445TIP3    H246751   0.715   3.739  10.613 -0.3519  0.9861  3.5800
 8446TIP3   OH246752   3.817   6.609   3.614  0.2979  0.7487  0.5208
 8446TIP3    H146753   3.866   6.580   3.537  1.0109  0.1058  1.1916
 8446TIP3    H246754   3.741   6.551   3.618  0.5697  0.3976  0.6254
 8447TIP3   OH246755   4.474   5.782   5.488 -0.3222 -0.2250  0.0405
 8447TIP3    H146756   4.389   5.741   5.502 -0.2508  0.0351  1.3713
 8447TIP3    H246757   4.519   5.724   5.427 -1.6224 -0.1106 -1.0837
 8448TIP3   OH246758   1.997   5.314   5.164  0.5236  0.2241 -0.7725
 8448TIP3    H146759   1.925   5.319   5.101  0.1258 -1.7804 -0.5552
 8448TIP3    H246760   1.959   5.268   5.239  2.2424 -1.7443 -1.0232
 8449TIP3   OH246761   4.130   5.970   3.855  1.0426 -0.3897  0.7514
 8449TIP3    H146762   4.213   6.017   3.866  1.2864 -1.0487  1.9500
 8449TIP3    H246763   4.065   6.038   3.843  1.9862  0.1041 -2.1468
 8450TIP3   OH246764   4.863   5.995   2.382 -0.5246  0.5431  0.6633
 8450TIP3    H146765   4.892   5.990   2.473  1.3742  1.8062  0.1904
 8450TIP3    H246766   4.895   6.080   2.352 -1.1301  0.1556 -1.2001
 8451TIP3   OH246767   6.287   6.291   2.274 -0.1368  0.1855  0.0084
 8451TIP3    H146768   6.290   6.353   2.201 -0.5526  0.8768  0.5700
 8451TIP3    H246769   6.303   6.206   2.233 -0.3166  0.5641 -0.8847
 8452TIP3   OH246770   1.882   2.693   2.556  0.6714 -0.2864 -0.0055
 8452TIP3    H146771   1.809   2.684   2.617  1.6986 -0.1122  1.3015
 8452TIP3    H246772   1.911   2.783   2.566  1.0421 -0.3381 -0.5603
 8453TIP3   OH246773   4.411   2.781   6.293 -0.2600 -0.4151  0.6429
 8453TIP3    H146774   4.399   2.716   6.224 -0.3899 -0.6214  0.8596
 8453TIP3    H246775   4.446   2.732   6.367  0.3719 -0.1047  0.5583
 8454TIP3   OH246776   3.252   4.953  12.667 -0.4642 -0.2653  0.1007
 8454TIP3    H146777   3.285   4.997  12.745 -0.2469  1.1514 -0.7334
 8454TIP3    H246778   3.330   4.915  12.626 -0.4021 -0.0193 -0.0123
 8455TIP3   OH246779   1.163   5.915  14.198  0.3511  0.4483 -0.0949
 8455TIP3    H146780   1.134   5.882  14.112  0.7949  1.3415 -0.5936
 8455TIP3    H246781   1.211   5.995  14.179  0.2911  0.7684  1.0141
 8456TIP3   OH246782   0.534   0.167  12.444  0.0811  0.7094  0.4025
 8456TIP3    H146783   0.549   0.132  12.532 -1.5936 -1.0460  0.0481
 8456TIP3    H246784   0.439   0.177  12.438  0.2084  1.3800 -1.0252
 8457TIP3   OH246785   4.610   0.273  13.330 -0.1806  0.1113  0.3957
 8457TIP3    H146786   4.628   0.363  13.306 -0.4182  0.2445  0.7152
 8457TIP3    H246787   4.526   0.276  13.375 -1.7943 -0.6995 -2.3246
 8458TIP3   OH246788   1.132   4.289   3.953  0.2097 -0.0901 -1.0063
 8458TIP3    H146789   1.088   4.226   4.011  0.9813  1.5147  1.4897
 8458TIP3    H246790   1.066   4.356   3.937  1.0381  1.3493  1.1784
 8459TIP3   OH246791   6.135   0.960   1.773  0.0367  0.0689  0.0622
 8459TIP3    H146792   6.098   1.038   1.730 -0.1582  0.1499  0.3679
 8459TIP3    H246793   6.086   0.954   1.855 -1.1110 -1.3375 -0.6852
 8460TIP3   OH246794   3.259   3.486  11.213 -0.2551  0.0212  0.2757
 8460TIP3    H146795   3.263   3.546  11.139 -0.2595 -0.3714 -0.0440
 8460TIP3    H246796   3.288   3.539  11.288 -1.6664  0.8461  0.2709
 8461TIP3   OH246797   1.176   5.996  14.797 -0.1537  0.0361 -0.0894
 8461TIP3    H146798   1.158   6.065  14.733 -1.4627 -1.0064 -0.8914
 8461TIP3    H246799   1.110   6.010  14.865  1.0254  0.9372  0.9345
 8462TIP3   OH246800   4.979   0.651   5.929 -0.2217  0.0570 -0.1089
 8462TIP3    H146801   5.067   0.652   5.967  0.0500 -2.1769 -0.5101
 8462TIP3    H246802   4.989   0.698   5.846  0.4271  0.3794  0.1402
 8463TIP3   OH246803   0.755   4.210  12.923  0.3640 -0.0067 -0.0343
 8463TIP3    H146804   0.688   4.144  12.942 -0.9527  0.4087 -2.7158
 8463TIP3    H246805   0.835   4.160  12.908 -0.9213 -1.3243 -3.5453
 8464TIP3   OH246806   1.785   4.473   3.005  0.4966 -0.2903 -0.3024
 8464TIP3    H146807   1.778   4.428   3.089  0.8230  1.4198  0.7008
 8464TIP3    H246808   1.694   4.485   2.977  0.4146 -1.6938 -0.6753
 8465TIP3   OH246809   6.357   5.288  16.895 -0.3817  0.1165  0.1323
 8465TIP3    H146810   6.367   5.234  16.973  0.1952  0.0849  0.0477
 8465TIP3    H246811   6.273   5.331  16.905 -0.6147 -0.4009  0.4504
 8466TIP3   OH246812   0.354   0.463  11.030  0.2706 -0.8653 -0.0002
 8466TIP3    H146813   0.399   0.419  11.102 -0.6124  0.3413  1.3598
 8466TIP3    H246814   0.269   0.420  11.026  0.0540 -0.4684  0.1820
 8467TIP3   OH246815   4.764   4.538  15.136  0.8372  0.0302  0.1507
 8467TIP3    H146816   4.757   4.579  15.050 -1.9173  0.7290  0.6087
 8467TIP3    H246817   4.825   4.595  15.185  1.7793  0.0793 -1.0424
 8468TIP3   OH246818   2.533   6.418  11.466 -0.2786  0.4340 -0.0756
 8468TIP3    H146819   2.602   6.428  11.531  0.8293  0.0220 -1.1474
 8468TIP3    H246820   2.463   6.477  11.496  0.3325  0.5162  1.2726
 8469TIP3   OH246821   4.167   0.990   5.819  0.1748 -0.4606  0.4925
 8469TIP3    H146822   4.182   1.038   5.900  0.7318  0.6965 -0.2756
 8469TIP3    H246823   4.253   0.981   5.779 -0.0046 -1.5746  0.3191
 8470TIP3   OH246824   1.740   2.315   2.029 -0.1225  0.3514  0.0561
 8470TIP3    H146825   1.821   2.298   2.078  1.1559 -1.2608 -2.4091
 8470TIP3    H246826   1.712   2.229   1.998 -1.1492  1.2230 -1.5719
 8471TIP3   OH246827   0.994   4.560   1.081  0.5806 -0.6737  0.5968
 8471TIP3    H146828   0.958   4.544   1.168 -1.8979  1.0259  0.0093
 8471TIP3    H246829   0.925   4.531   1.021  0.8651  1.1609 -0.6879
 8472TIP3   OH246830   5.779   0.870   2.563 -0.5345 -0.1326  0.7357
 8472TIP3    H146831   5.713   0.844   2.627  0.1343  0.2821  1.6071
 8472TIP3    H246832   5.846   0.915   2.614 -0.5359  1.2364 -0.4033
 8473TIP3   OH246833   2.892   6.331   0.291  0.0145 -0.1449  0.2508
 8473TIP3    H146834   2.855   6.366   0.210  1.1426  0.6625  0.0696
 8473TIP3    H246835   2.958   6.269   0.263  0.8497  0.5956  0.5289
 8474TIP3   OH246836   0.563   4.436   3.440  0.1306  0.7563  0.1640
 8474TIP3    H146837   0.618   4.469   3.510  0.5811  1.7425 -0.6280
 8474TIP3    H246838   0.571   4.501   3.370 -0.2681 -0.2100 -0.8189
 8475TIP3   OH246839   4.808   4.881   1.577 -0.2559  0.5642 -0.4189
 8475TIP3    H146840   4.900   4.857   1.588 -0.2460  0.1239 -1.3888
 8475TIP3    H246841   4.767   4.861   1.661  0.3504 -0.1203 -0.2842
 8476TIP3   OH246842   5.633   3.790  10.750  0.4003  0.0593 -0.9337
 8476TIP3    H146843   5.715   3.769  10.706  0.7224 -2.2996  0.6231
 8476TIP3    H246844   5.574   3.719  10.725  0.1202 -0.4762  1.0894
 8477TIP3   OH246845   2.991   6.318   4.519 -0.2915 -0.2267 -0.3113
 8477TIP3    H146846   2.956   6.316   4.431  0.0947  0.8837 -0.5081
 8477TIP3    H246847   2.959   6.400   4.556 -0.1380 -0.4985  0.4476
 8478TIP3   OH246848   4.530   5.332  14.075 -0.3719  0.7248 -0.0139
 8478TIP3    H146849   4.612   5.321  14.124 -0.4120  0.1898 -0.0553
 8478TIP3    H246850   4.469   5.272  14.118 -0.2023 -0.3212 -1.1644
 8479TIP3   OH246851   6.524   1.703  14.253 -0.3724  0.1692 -0.1037
 8479TIP3    H146852   6.509   1.783  14.305 -0.6505  0.5724 -0.7810
 8479TIP3    H246853   6.596   1.726  14.194  0.2205 -0.4239  0.3756
 8480TIP3   OH246854   6.288   4.815  16.354  0.4647 -0.3440  0.2287
 8480TIP3    H146855   6.373   4.856  16.369 -0.0817  0.6827  0.5972
 8480TIP3    H246856   6.242   4.823  16.437 -0.7574  0.9977 -0.5251
 8481TIP3   OH246857   0.792   3.507   6.674  0.4237  0.2445 -0.2792
 8481TIP3    H146858   0.785   3.543   6.586  0.7691 -1.4121 -1.0231
 8481TIP3    H246859   0.701   3.489   6.699  0.2270  1.7288  0.1848
 8482TIP3   OH246860   5.480   6.415  12.332  0.4113  0.0732  0.3280
 8482TIP3    H146861   5.407   6.415  12.269  0.6565 -1.1369  0.0304
 8482TIP3    H246862   5.553   6.453  12.283  0.3094  0.1395  0.2262
 8483TIP3   OH246863   1.479   1.907  15.803 -0.4555 -0.1931  0.2062
 8483TIP3    H146864   1.573   1.897  15.790 -0.3361  0.9000  0.1411
 8483TIP3    H246865   1.445   1.930  15.716 -0.5379  0.9889  0.5272
 8484TIP3   OH246866   5.068   0.845   1.506 -0.1253 -0.6976 -0.6452
 8484TIP3    H146867   5.076   0.862   1.413  1.0042 -1.6613 -0.7589
 8484TIP3    H246868   5.156   0.863   1.541 -1.1140  2.0124  0.6942
 8485TIP3   OH246869   2.610   6.328   3.565  0.2711 -0.0425 -0.2841
 8485TIP3    H146870   2.639   6.419   3.559 -0.4055  0.2390  0.5901
 8485TIP3    H246871   2.669   6.289   3.630  1.6991 -0.7103 -1.9086
 8486TIP3   OH246872   4.780   5.073  14.256  0.1504 -0.0366  0.5276
 8486TIP3    H146873   4.703   5.070  14.314  0.9836  0.1012  1.6754
 8486TIP3    H246874   4.786   5.164  14.228  0.4008  0.1440  1.1544
 8487TIP3   OH246875   3.210   2.556   3.810  0.3988 -0.2631  0.5006
 8487TIP3    H146876   3.235   2.471   3.772 -1.8495 -0.3214 -1.0782
 8487TIP3    H246877   3.115   2.551   3.818  0.3072  1.7977  1.2019
 8488TIP3   OH246878   1.818   1.556  14.426  0.1424  0.1657 -0.7223
 8488TIP3    H146879   1.888   1.497  14.397  0.6093  2.0483 -3.8559
 8488TIP3    H246880   1.861   1.642  14.433 -1.1608  0.7455  0.8099
 8489TIP3   OH246881   1.892   0.330  16.671  0.3593  1.0728  0.1062
 8489TIP3    H146882   1.892   0.426  16.669  1.8520  1.0881 -0.3995
 8489TIP3    H246883   1.908   0.308  16.763  1.7823  1.3500 -0.0564
 8490TIP3   OH246884   4.066   3.409   0.255  0.5766 -0.3118  0.4562
 8490TIP3    H146885   4.126   3.338   0.232 -0.2538 -1.0512  0.4828
 8490TIP3    H246886   4.112   3.460   0.321  1.4856 -0.3913 -0.1077
 8491TIP3   OH246887   4.311   2.173   2.342 -0.4172  0.4935  0.3137
 8491TIP3    H146888   4.246   2.102   2.340  0.4163 -0.2753 -0.0323
 8491TIP3    H246889   4.393   2.131   2.318  0.1005  1.5826  0.1225
 8492TIP3   OH246890   2.456   2.032   2.903 -0.5695 -0.3893  0.7487
 8492TIP3    H146891   2.391   1.968   2.932  0.6954 -1.1282  2.0216
 8492TIP3    H246892   2.531   1.980   2.875  0.3482  0.5107  1.4685
 8493TIP3   OH246893   4.092   2.851   0.226  0.0907  0.2213  0.8481
 8493TIP3    H146894   4.078   2.933   0.178  0.1711  0.3192  0.9907
 8493TIP3    H246895   4.081   2.782   0.160  0.5251  0.3659  0.6168
 8494TIP3   OH246896   1.623   3.063   5.433  0.3097  0.2489  0.0945
 8494TIP3    H146897   1.569   3.041   5.357  1.1073 -0.7059 -0.2188
 8494TIP3    H246898   1.634   2.981   5.480  1.4540  0.4282  0.1734
 8495TIP3   OH246899   2.287   6.514   0.528  0.0569  0.2727  0.2068
 8495TIP3    H146900   2.253   6.430   0.498 -0.5657  0.0707  1.4254
 8495TIP3    H246901   2.382   6.506   0.520 -0.0344 -0.2134 -0.5092
 8496TIP3   OH246902   2.664   3.266  13.793  0.1460 -0.2180  0.6975
 8496TIP3    H146903   2.644   3.290  13.702  0.9561  1.9700  1.0294
 8496TIP3    H246904   2.591   3.210  13.820  0.1449 -1.3253 -1.4297
 8497TIP3   OH246905   1.496   1.925  10.605 -0.3710 -0.2641 -0.3962
 8497TIP3    H146906   1.453   1.840  10.610 -1.0762  0.0209 -1.2404
 8497TIP3    H246907   1.529   1.941  10.694 -0.3911 -1.3235 -0.1923
 8498TIP3   OH246908   6.565   1.787   0.026  0.0438 -0.1942 -0.2379
 8498TIP3    H146909   6.599   1.841  -0.045 -0.4265  0.3791 -0.0365
 8498TIP3    H246910   6.470   1.799   0.021  0.0576  0.6077  1.0781
 8499TIP3   OH246911   5.826   0.883  13.857 -0.1066  0.1699  0.0818
 8499TIP3    H146912   5.868   0.914  13.776  0.3364  2.2428  1.0422
 8499TIP3    H246913   5.881   0.917  13.927 -1.0246 -0.7623  1.2977
 8500TIP3   OH246914   3.426   4.075  17.108  0.1057  0.9652 -0.1174
 8500TIP3    H146915   3.363   4.081  17.036 -0.5124  0.3651  0.3625
 8500TIP3    H246916   3.426   3.983  17.133  1.1085  0.9703 -0.0339
 8501TIP3   OH246917   5.229   2.084   3.197 -0.3813  0.2257 -0.3855
 8501TIP3    H146918   5.210   2.086   3.291  0.0967 -0.1363 -0.2749
 8501TIP3    H246919   5.167   2.145   3.158 -0.1716  0.8506  0.2438
 8502TIP3   OH246920   2.532   6.739  15.367 -0.1642 -0.2332  0.2628
 8502TIP3    H146921   2.501   6.803  15.303  0.2655  0.9231  1.1774
 8502TIP3    H246922   2.594   6.788  15.421 -0.3345 -1.2439  1.4088
 8503TIP3   OH246923   4.533   4.098   5.275  0.9177 -0.2434 -0.5373
 8503TIP3    H146924   4.521   4.046   5.355  0.4331  1.8147  0.8032
 8503TIP3    H246925   4.445   4.113   5.242  1.0378 -0.0736 -0.7888
 8504TIP3   OH246926   4.813   3.008  12.509 -0.4321  0.1518 -0.0816
 8504TIP3    H146927   4.803   2.914  12.494  1.4682  0.0606 -1.1610
 8504TIP3    H246928   4.794   3.020  12.602 -1.7230 -1.1109 -0.1464
 8505TIP3   OH246929   2.783   6.426   4.860  0.1510  0.4269  0.0575
 8505TIP3    H146930   2.872   6.413   4.893  0.1013 -0.7267 -0.2149
 8505TIP3    H246931   2.761   6.343   4.817 -0.9172  0.8295 -0.2053
 8506TIP3   OH246932   6.151   2.144  15.613  0.1617 -0.0972  1.0874
 8506TIP3    H146933   6.069   2.191  15.596  1.4942  2.6202  1.6605
 8506TIP3    H246934   6.213   2.181  15.550  1.4001 -0.8264  1.8462
 8507TIP3   OH246935   4.511   2.197   3.459  0.0615 -0.4395  0.4778
 8507TIP3    H146936   4.501   2.283   3.417 -0.1980 -0.4408  0.5352
 8507TIP3    H246937   4.605   2.189   3.475 -0.0845  0.5166  1.9041
 8508TIP3   OH246938   4.738   2.862  11.892  0.3903 -0.4894  0.7767
 8508TIP3    H146939   4.811   2.911  11.930  0.1489 -1.1717  2.1671
 8508TIP3    H246940   4.775   2.819  11.815  1.1911 -0.0236  0.8934
 8509TIP3   OH246941   1.258   2.194  11.802 -0.2888  0.6014 -0.0581
 8509TIP3    H146942   1.246   2.104  11.833  0.6985  0.4618 -0.0458
 8509TIP3    H246943   1.243   2.190  11.708  0.5205  0.2585 -0.1821
 8510TIP3   OH246944   6.155   4.925  14.360 -0.2402  0.2222 -0.4395
 8510TIP3    H146945   6.226   4.989  14.367 -0.3887  0.4207 -0.7202
 8510TIP3    H246946   6.078   4.972  14.392 -0.1144 -0.2155  0.5223
 8511TIP3   OH246947   1.662   1.190   5.402 -0.0053 -0.3616 -0.1416
 8511TIP3    H146948   1.684   1.141   5.481  1.1225 -0.8304 -0.7122
 8511TIP3    H246949   1.747   1.208   5.361 -0.5391  0.2716 -1.0081
 8512TIP3   OH246950   6.603   4.606   3.648  0.2436 -0.2208 -0.5173
 8512TIP3    H146951   6.521   4.629   3.605 -0.0876  1.1562  0.7961
 8512TIP3    H246952   6.577   4.570   3.732  0.9782  1.3860  0.4427
 8513TIP3   OH246953   4.843   0.384  12.818  0.3069 -0.6652 -0.4550
 8513TIP3    H146954   4.822   0.300  12.859 -1.6400 -0.5897 -1.1967
 8513TIP3    H246955   4.759   0.414  12.782  1.1942  1.0811 -1.1379
 8514TIP3   OH246956   1.586   2.436  15.125 -0.0601  0.4189  0.2330
 8514TIP3    H146957   1.535   2.357  15.105  2.5831 -0.9852 -1.5453
 8514TIP3    H246958   1.677   2.408  15.119  0.9809  3.3766  0.7123
 8515TIP3   OH246959   2.404   6.485   2.397  0.0595 -0.4489  0.2168
 8515TIP3    H146960   2.329   6.481   2.338  0.5750 -0.0465 -0.4691
 8515TIP3    H246961   2.424   6.578   2.405  0.0913 -0.5101  0.9050
 8516TIP3   OH246962   5.095   5.910   0.314  0.5903 -0.0620 -0.1779
 8516TIP3    H146963   5.152   5.967   0.263  0.8236  0.4389  0.6225
 8516TIP3    H246964   5.009   5.953   0.311  1.1087  1.2475  1.7488
 8517TIP3   OH246965   1.997   3.793   2.574 -0.4262  0.3543  0.3139
 8517TIP3    H146966   1.978   3.725   2.638 -0.2444  0.5903  0.6212
 8517TIP3    H246967   1.988   3.875   2.623  2.4164  0.4838  0.7985
 8518TIP3   OH246968   2.156   1.801   4.223 -0.6306 -0.2768  0.3812
 8518TIP3    H146969   2.216   1.875   4.215  0.4244 -1.1467 -0.0391
 8518TIP3    H246970   2.190   1.750   4.296 -0.4883 -1.0869 -0.2301
 8519TIP3   OH246971   2.927   0.041  11.351  0.1559  0.1097  0.4071
 8519TIP3    H146972   2.840   0.017  11.317 -0.0382 -0.3097  1.1689
 8519TIP3    H246973   2.960   0.106  11.289 -1.3999  1.5103  0.9870
 8520TIP3   OH246974   6.468   5.202   2.910 -0.2438 -0.2522  0.5715
 8520TIP3    H146975   6.563   5.212   2.908 -0.3304  0.6306  0.7042
 8520TIP3    H246976   6.455   5.112   2.941  0.5353 -0.2425  0.9641
 8521TIP3   OH246977   4.601   5.639  14.659  0.1701  0.0389  0.1821
 8521TIP3    H146978   4.634   5.659  14.746  0.4224  2.8744 -0.4651
 8521TIP3    H246979   4.610   5.721  14.610 -0.7867 -1.1965 -2.2637
 8522TIP3   OH246980   0.388   6.541  11.976  0.1911 -1.1496 -0.4435
 8522TIP3    H146981   0.424   6.459  11.944  0.0722 -1.0628 -0.8013
 8522TIP3    H246982   0.399   6.537  12.071  0.2366 -1.5527 -0.4657
 8523TIP3   OH246983   0.692   6.084   2.028 -0.0849 -0.3390  0.0727
 8523TIP3    H146984   0.698   6.118   2.118 -1.7937  0.9901 -0.2483
 8523TIP3    H246985   0.710   5.990   2.037  1.5976  0.0475  1.5024
 8524TIP3   OH246986   1.879   5.699   4.922  0.5822 -0.2634  0.5906
 8524TIP3    H146987   1.796   5.662   4.952  0.0769  1.8383  2.0568
 8524TIP3    H246988   1.877   5.689   4.827 -0.5865 -1.7315  0.7410
 8525TIP3   OH246989   3.258   0.632   2.420 -0.4698  0.5479  0.0884
 8525TIP3    H146990   3.308   0.651   2.499  1.7004 -0.0912 -1.0533
 8525TIP3    H246991   3.236   0.539   2.427 -0.4947  0.5516  0.0607
 8526TIP3   OH246992   0.340   0.554  15.956  0.4275 -0.3729  0.0664
 8526TIP3    H146993   0.306   0.575  15.869 -0.5486  0.5442  0.6589
 8526TIP3    H246994   0.306   0.466  15.974  0.3665 -0.4352 -0.3505
 8527TIP3   OH246995   4.091   5.746  11.458 -0.0683  0.0542 -0.9593
 8527TIP3    H146996   4.094   5.842  11.461 -2.2137  0.1856 -1.5611
 8527TIP3    H246997   4.058   5.726  11.370 -0.0554 -1.2196 -0.6885
 8528TIP3   OH246998   4.256   5.401  13.536  0.1154 -0.0333  0.1774
 8528TIP3    H146999   4.329   5.458  13.563  0.8132 -0.5081 -0.6451
 8528TIP3    H247000   4.283   5.368  13.450 -0.8727 -0.5839  0.0702
 8529TIP3   OH247001   4.704   2.532  13.495  0.3958 -0.4291 -0.4036
 8529TIP3    H147002   4.686   2.447  13.535  0.8019 -1.2958 -1.9747
 8529TIP3    H247003   4.790   2.556  13.528 -0.7860  0.7078  2.1413
 8530TIP3   OH247004   0.063   2.732  17.006 -0.7466  0.2672  0.2596
 8530TIP3    H147005   0.023   2.778  16.933 -0.7992  3.5328  2.1872
 8530TIP3    H247006   0.156   2.725  16.983 -0.4803  2.6196  0.4537
 8531TIP3   OH247007   4.407   6.536   4.478  0.4696 -0.0470  0.6257
 8531TIP3    H147008   4.332   6.493   4.520 -0.4280  2.2250  1.5319
 8531TIP3    H247009   4.437   6.474   4.412 -1.6901 -1.3871  0.8124
 8532TIP3   OH247010   4.947   4.157   2.310 -0.1990  0.1064 -0.2658
 8532TIP3    H147011   4.964   4.193   2.223  0.7349  0.4996  0.0658
 8532TIP3    H247012   4.885   4.217   2.350  2.0843  2.0330  0.6604
 8533TIP3   OH247013   6.546   2.928  12.093 -0.5403 -0.9238 -0.1610
 8533TIP3    H147014   6.605   2.988  12.139 -0.8066 -1.1292  0.4538
 8533TIP3    H247015   6.481   2.904  12.158 -0.9273 -1.2186 -0.6516
 8534TIP3   OH247016   3.132   0.418  14.217  0.0496 -0.7942 -0.1547
 8534TIP3    H147017   3.039   0.417  14.236  0.4033 -1.2855  1.9005
 8534TIP3    H247018   3.153   0.509  14.197 -0.5161 -0.2500  1.5820
 8535TIP3   OH247019   6.196   0.832  13.477  0.5318 -0.4509  0.1445
 8535TIP3    H147020   6.225   0.923  13.488 -0.8693  0.3018 -1.7480
 8535TIP3    H247021   6.270   0.788  13.437  1.3711 -0.2794  1.4457
 8536TIP3   OH247022   3.491   2.010  14.018 -0.3949 -0.6110 -0.2169
 8536TIP3    H147023   3.562   2.074  14.024 -0.4632 -0.6166  0.8989
 8536TIP3    H247024   3.525   1.932  14.061 -1.2338 -0.4436  0.8122
 8537TIP3   OH247025   2.981   1.775  12.436 -0.1216 -0.1892 -0.3722
 8537TIP3    H147026   2.990   1.850  12.495 -0.1183 -1.7327  1.6973
 8537TIP3    H247027   2.955   1.703  12.493 -0.9550 -1.6015 -2.4163
 8538TIP3   OH247028   5.413   3.569  12.987  0.0519 -0.6234  0.4815
 8538TIP3    H147029   5.441   3.653  13.022  1.6214 -1.0738  0.3876
 8538TIP3    H247030   5.338   3.589  12.932  1.6746  1.0553 -1.2739
 8539TIP3   OH247031   2.922   3.348  13.296  0.1167 -0.9091  0.0461
 8539TIP3    H147032   2.983   3.412  13.260 -0.7552 -0.0451  0.0871
 8539TIP3    H247033   2.931   3.358  13.391  0.6323 -1.4905  0.0694
 8540TIP3   OH247034   5.845   4.927  14.629  0.5757  0.1058  0.2102
 8540TIP3    H147035   5.906   4.887  14.691 -1.3597 -3.5837 -0.0116
 8540TIP3    H247036   5.777   4.965  14.683  1.1635  0.9880  0.3608
 8541TIP3   OH247037   3.117   5.671  16.142 -0.3504  0.0189 -0.1934
 8541TIP3    H147038   3.076   5.745  16.097 -0.2067  1.0897  1.3393
 8541TIP3    H247039   3.203   5.704  16.167  0.1626 -1.0778 -0.4914
 8542TIP3   OH247040   4.391   4.731  16.187 -0.1682  0.0676 -0.3085
 8542TIP3    H147041   4.399   4.778  16.104 -0.2814 -1.0586 -0.9705
 8542TIP3    H247042   4.440   4.650  16.174 -3.1103 -1.8280 -0.5791
 8543TIP3   OH247043   5.725   0.912   3.179 -0.1726 -0.1377 -0.0173
 8543TIP3    H147044   5.684   0.987   3.223  1.3757 -1.1568  3.5815
 8543TIP3    H247045   5.653   0.869   3.133 -1.7378  1.7839  0.4724
 8544TIP3   OH247046   2.021   4.748   5.488 -0.7088  0.4581  0.0160
 8544TIP3    H147047   2.096   4.800   5.459 -0.0169 -0.8320 -0.5840
 8544TIP3    H247048   1.946   4.786   5.443 -0.5042  2.0339  0.9464
 8545TIP3   OH247049   5.697   1.382   0.491 -0.2544  0.2103  0.2945
 8545TIP3    H147050   5.610   1.378   0.530 -0.8097  2.2773 -0.6173
 8545TIP3    H247051   5.683   1.415   0.402  1.4337  0.3101  0.0216
 8546TIP3   OH247052   2.538   3.347   3.453  0.2821  0.1133  0.2834
 8546TIP3    H147053   2.460   3.293   3.470  0.6932 -0.5546  0.0532
 8546TIP3    H247054   2.504   3.421   3.402 -0.1037 -0.5151 -0.4056
 8547TIP3   OH247055   6.609   3.025   4.585 -0.1415  0.2119  0.0177
 8547TIP3    H147056   6.581   3.098   4.641  1.0950  0.9590 -0.2873
 8547TIP3    H247057   6.655   2.966   4.644  0.5847  0.6753 -0.0648
 8548TIP3   OH247058   5.728   0.574   0.694  0.7031  0.2263 -0.1348
 8548TIP3    H147059   5.809   0.625   0.696  1.2444 -0.5653 -0.9130
 8548TIP3    H247060   5.720   0.547   0.602  0.4380 -1.0781  0.2541
 8549TIP3   OH247061   4.472   5.670   3.955  0.1568  0.4434  0.4430
 8549TIP3    H147062   4.416   5.643   4.028 -0.3842  1.3216  0.3671
 8549TIP3    H247063   4.534   5.732   3.994  0.8069 -0.1907  0.4376
 8550TIP3   OH247064   6.233   5.146   6.474  0.5722  0.1215  0.4592
 8550TIP3    H147065   6.293   5.197   6.529  0.3028  0.6614  0.2586
 8550TIP3    H247066   6.150   5.147   6.521  0.7791 -0.8498  0.8658
 8551TIP3   OH247067   2.421   4.877  14.832  0.1606 -0.5484  0.0161
 8551TIP3    H147068   2.397   4.967  14.811  0.8255 -0.4491 -0.3521
 8551TIP3    H247069   2.377   4.859  14.915  2.5565  1.2342  1.8198
 8552TIP3   OH247070   5.020   6.266  16.408 -0.0199  0.4354 -0.1719
 8552TIP3    H147071   5.000   6.235  16.496  1.2289  0.1172  0.0318
 8552TIP3    H247072   4.936   6.294  16.372 -1.1634 -2.6065 -0.1374
 8553TIP3   OH247073   3.661   0.440  16.982 -0.3413  0.1414 -0.7456
 8553TIP3    H147074   3.733   0.377  16.984 -0.3797  0.0103 -2.3906
 8553TIP3    H247075   3.605   0.414  17.055  0.9015 -0.1855  0.1233
 8554TIP3   OH247076   4.211   3.530   0.482 -0.1308  0.0073  0.2992
 8554TIP3    H147077   4.230   3.438   0.503 -1.4090 -0.6289 -1.1516
 8554TIP3    H247078   4.293   3.562   0.443  1.4317  0.4961  3.6227
 8555TIP3   OH247079   2.247   2.086  13.084 -0.0297 -0.0116 -0.1082
 8555TIP3    H147080   2.337   2.062  13.106 -0.1475 -0.1005  0.2845
 8555TIP3    H247081   2.241   2.073  12.989 -0.4104 -2.6509  0.1987
 8556TIP3   OH247082   0.256   3.619  11.484  0.7307  0.0025 -0.3744
 8556TIP3    H147083   0.281   3.661  11.567 -0.0505 -1.4052  0.6203
 8556TIP3    H247084   0.161   3.628  11.480  0.5494 -1.4829 -0.1917
 8557TIP3   OH247085   3.996   1.963  14.978  0.2457 -0.6084  0.7833
 8557TIP3    H147086   3.907   1.953  15.013 -0.4854  0.5764 -0.5967
 8557TIP3    H247087   3.990   2.040  14.921  2.4393  0.1633  1.4899
 8558TIP3   OH247088   4.331   4.932  14.148 -0.1229  0.0575  0.9537
 8558TIP3    H147089   4.321   4.882  14.067  0.6726  0.5959  0.5082
 8558TIP3    H247090   4.286   4.880  14.214 -0.7213 -0.4314  0.1824
 8559TIP3   OH247091   4.503   1.287   5.021  0.0790  0.3506 -0.0639
 8559TIP3    H147092   4.512   1.318   4.931 -0.4849 -0.9191 -0.5823
 8559TIP3    H247093   4.591   1.263   5.047  0.1234 -0.0763 -0.5900
 8560TIP3   OH247094   0.393   2.839  14.525 -0.1894 -0.2543 -0.2463
 8560TIP3    H147095   0.299   2.822  14.519 -0.2196 -0.9073  1.4465
 8560TIP3    H247096   0.411   2.839  14.619  1.8585 -2.1145 -0.5569
 8561TIP3   OH247097   2.409   5.556  13.754  0.1831 -0.0009  0.2699
 8561TIP3    H147098   2.360   5.589  13.679  1.6730  2.4084  0.2620
 8561TIP3    H247099   2.398   5.461  13.749 -1.9844  0.2555 -1.3948
 8562TIP3   OH247100   4.295   4.314   5.359  0.5291 -0.7301 -0.3625
 8562TIP3    H147101   4.225   4.339   5.419  0.5272  0.5654 -0.8798
 8562TIP3    H247102   4.347   4.251   5.409  0.4862  0.2586  1.0039
 8563TIP3   OH247103   0.035   3.971  15.337 -0.4567 -0.7849 -0.5732
 8563TIP3    H147104   0.006   4.055  15.302  0.6066 -0.1515 -0.0047
 8563TIP3    H247105   0.107   3.944  15.280 -0.2310 -0.8800 -0.2502
 8564TIP3   OH247106   4.073   4.805   6.658 -0.2187  0.7172 -0.1767
 8564TIP3    H147107   4.139   4.810   6.589 -2.2346 -0.5973 -2.3490
 8564TIP3    H247108   4.030   4.890   6.655 -0.3849  0.6217 -0.6558
 8565TIP3   OH247109   4.686   0.491   2.617  0.0884 -0.5784 -0.3055
 8565TIP3    H147110   4.714   0.561   2.675  2.2690 -0.3045 -1.5866
 8565TIP3    H247111   4.599   0.467   2.649  0.2553  1.0919  1.6080
 8566TIP3   OH247112   1.161   3.470  13.770  0.3944  0.4628 -0.7363
 8566TIP3    H147113   1.131   3.409  13.837 -1.4545  1.5889 -0.4879
 8566TIP3    H247114   1.083   3.489  13.717  0.8293  2.8189 -0.6326
 8567TIP3   OH247115   5.410   3.198  15.805 -0.6878  0.2236  0.2024
 8567TIP3    H147116   5.429   3.177  15.714 -2.3632  1.1158 -0.3986
 8567TIP3    H247117   5.479   3.155  15.855 -0.5658 -1.5084 -1.3757
 8568TIP3   OH247118   2.439   0.511   4.529 -0.0946  0.3553  0.3150
 8568TIP3    H147119   2.442   0.577   4.460 -1.8243  0.6863  0.5081
 8568TIP3    H247120   2.346   0.499   4.547  0.1519 -2.1048  0.3319
 8569TIP3   OH247121   1.528   2.186   2.572 -0.5444  0.2273  0.1770
 8569TIP3    H147122   1.445   2.142   2.589 -0.9047  0.6880 -0.3581
 8569TIP3    H247123   1.530   2.198   2.477  0.2024  0.0840  0.1727
 8570TIP3   OH247124   6.149   1.904   2.852  0.1327  0.0645 -0.3145
 8570TIP3    H147125   6.131   1.997   2.835 -1.2043 -0.0314  0.4259
 8570TIP3    H247126   6.115   1.859   2.775  1.8598  0.2453 -1.2288
 8571TIP3   OH247127   2.629   2.771  13.469 -0.1224  0.6947 -0.4699
 8571TIP3    H147128   2.539   2.783  13.496 -0.0022 -0.3385  0.4700
 8571TIP3    H247129   2.624   2.710  13.395 -0.0691 -1.5167  1.2498
 8572TIP3   OH247130   4.133   3.015  15.820  0.3802  0.3701  0.4575
 8572TIP3    H147131   4.075   3.068  15.875 -0.2533 -2.3891  2.6627
 8572TIP3    H247132   4.074   2.971  15.759  0.7270  0.9254 -0.2985
 8573TIP3   OH247133   2.445   5.396   4.911  0.3601  0.4269 -0.1122
 8573TIP3    H147134   2.428   5.370   5.001  1.3454  1.0795  0.2888
 8573TIP3    H247135   2.540   5.385   4.901  0.1487 -0.4066 -1.3290
 8574TIP3   OH247136   4.988   5.080  12.616 -0.4796 -0.1780 -0.5316
 8574TIP3    H147137   4.913   5.021  12.606  0.3308 -1.0762 -1.5973
 8574TIP3    H247138   5.060   5.022  12.640 -0.1719  0.7161  0.8131
 8575TIP3   OH247139   6.351   5.147  16.413 -0.4361  0.1794  0.7158
 8575TIP3    H147140   6.276   5.091  16.434  0.3328 -1.1613  0.0154
 8575TIP3    H247141   6.421   5.086  16.390  1.0872  1.3691  1.9589
 8576TIP3   OH247142   1.016   3.795  12.825  0.2877 -0.0182 -0.1710
 8576TIP3    H147143   0.935   3.828  12.786 -0.8890 -1.5348  0.8533
 8576TIP3    H247144   1.061   3.751  12.753 -0.2001  0.1147 -0.5629
 8577TIP3   OH247145   4.930   1.337   4.546 -0.1048  0.0549 -0.2483
 8577TIP3    H147146   4.940   1.421   4.590 -2.6755 -0.2854  1.2247
 8577TIP3    H247147   4.945   1.272   4.616 -0.4440 -0.6269 -0.7992
 8578TIP3   OH247148   4.066   4.151  16.870  0.5226  0.7008 -0.5997
 8578TIP3    H147149   4.144   4.102  16.843  0.6952  0.6204  0.0096
 8578TIP3    H247150   4.093   4.242  16.870  0.2181  0.7950 -1.6776
 8579TIP3   OH247151   2.600   1.090  11.530 -0.0973  0.1584  0.2918
 8579TIP3    H147152   2.662   1.163  11.527 -1.2486  1.5611  4.5316
 8579TIP3    H247153   2.647   1.020  11.575 -1.0341  0.7020  2.1808
 8580TIP3   OH247154   0.242   4.987  12.278 -0.5294  0.4216 -0.2219
 8580TIP3    H147155   0.274   5.077  12.281 -0.7442  0.5868 -1.6952
 8580TIP3    H247156   0.320   4.935  12.258 -1.1020  0.9607 -5.1356
 8581TIP3   OH247157   4.967   0.121  15.448  0.2862 -0.4176 -0.7153
 8581TIP3    H147158   4.900   0.094  15.512  0.9505  1.5616  0.9255
 8581TIP3    H247159   4.965   0.216  15.450  2.6001 -0.2992 -1.1897
 8582TIP3   OH247160   6.252   2.387   6.291 -0.1021 -0.1739  0.2563
 8582TIP3    H147161   6.237   2.397   6.385 -2.3856 -2.2311  0.2162
 8582TIP3    H247162   6.330   2.332   6.285 -1.2938 -2.0834  1.1137
 8583TIP3   OH247163   3.075   4.028  13.950  0.0144  0.3158 -0.3616
 8583TIP3    H147164   3.168   4.043  13.929 -0.4355  0.5335 -2.3974
 8583TIP3    H247165   3.045   3.967  13.883 -1.6265  1.2228 -0.5008
 8584TIP3   OH247166   4.315   4.006  17.065  0.3894  0.3939 -0.0944
 8584TIP3    H147167   4.314   3.912  17.049  0.1059  0.3692  0.0699
 8584TIP3    H247168   4.242   4.022  17.125  0.4009  0.7252 -0.1624
 8585TIP3   OH247169   0.712   1.400   0.820  0.1142 -0.1830  0.0781
 8585TIP3    H147170   0.739   1.477   0.770  0.8678 -0.8330 -0.5409
 8585TIP3    H247171   0.616   1.406   0.822  0.1592  0.7800  0.0620
 8586TIP3   OH247172   1.462   3.652   4.476 -0.7081 -0.0740  0.2655
 8586TIP3    H147173   1.557   3.638   4.470 -0.7858 -0.4893 -0.0235
 8586TIP3    H247174   1.453   3.743   4.502 -0.1874 -0.4176  1.7746
 8587TIP3   OH247175   6.331   5.342   3.118 -0.2760  0.2062 -0.2646
 8587TIP3    H147176   6.376   5.295   3.048  1.8249  0.7342  0.6598
 8587TIP3    H247177   6.376   5.426   3.124 -1.3612  0.7407  0.7500
 8588TIP3   OH247178   0.553   1.289  12.205  0.4665 -0.0635  0.3040
 8588TIP3    H147179   0.624   1.287  12.269 -0.5786 -1.1012  1.4965
 8588TIP3    H247180   0.487   1.347  12.244 -0.2622 -0.8661  0.2929
 8589TIP3   OH247181   0.351   4.278   2.967 -0.1411 -0.0708  0.1839
 8589TIP3    H147182   0.385   4.189   2.977 -2.3492 -1.1437 -1.1033
 8589TIP3    H247183   0.257   4.269   2.986 -0.7786  1.5752 -1.9263
 8590TIP3   OH247184   2.798   3.502  16.714 -1.1407 -0.8806 -0.5805
 8590TIP3    H147185   2.856   3.575  16.734 -1.0984 -0.4647 -2.1368
 8590TIP3    H247186   2.760   3.524  16.629 -3.1285 -1.4224  0.1007
 8591TIP3   OH247187   0.867   5.953   6.120  0.4654 -0.0126  0.5346
 8591TIP3    H147188   0.778   5.955   6.085  0.3165  0.5577  0.9275
 8591TIP3    H247189   0.915   6.015   6.065  1.5569 -2.8734 -2.0373
 8592TIP3   OH247190   6.000   2.618   4.719  0.1641 -0.9471  0.4707
 8592TIP3    H147191   6.012   2.621   4.624 -1.1206 -0.1366  0.3145
 8592TIP3    H247192   6.085   2.643   4.754 -0.2577  2.3324 -0.5317
 8593TIP3   OH247193   2.799   3.894  12.761  0.0963 -0.3657  0.4481
 8593TIP3    H147194   2.728   3.946  12.798  0.7226 -0.3605  1.6806
 8593TIP3    H247195   2.757   3.841  12.693 -0.9289  0.2221  0.6052
 8594TIP3   OH247196   4.988   1.048   2.410  0.3900 -0.1606 -0.2006
 8594TIP3    H147197   4.936   0.998   2.473  0.9377  0.0212  0.3989
 8594TIP3    H247198   4.991   0.992   2.332 -2.2696  0.6041 -0.9548
 8595TIP3   OH247199   2.016   5.061  16.994 -0.2000  0.2523  0.1049
 8595TIP3    H147200   2.059   5.141  17.023 -2.2284  1.1511  0.7908
 8595TIP3    H247201   2.087   4.997  16.987  1.3456  1.8626  0.3369
 8596TIP3   OH247202   1.913   4.898   4.341 -0.6935  0.3902 -0.4410
 8596TIP3    H147203   1.848   4.955   4.300 -0.6657  0.8028  0.0705
 8596TIP3    H247204   1.872   4.811   4.343  0.3591 -0.3355 -3.8497
 8597TIP3   OH247205   0.471   2.979   1.651  0.1578 -0.1639 -0.0766
 8597TIP3    H147206   0.470   2.914   1.722 -5.3976 -1.3515 -0.8189
 8597TIP3    H247207   0.540   2.947   1.592  0.6412 -2.8345  1.7016
 8598TIP3   OH247208   1.986   0.953  13.267 -0.5554  0.0530 -0.3969
 8598TIP3    H147209   2.002   0.864  13.236  0.4514  0.4589 -1.1376
 8598TIP3    H247210   2.048   1.006  13.217 -0.8067  1.1052  0.3782
 8599TIP3   OH247211   0.294   4.396   4.397  0.0239  0.3692  0.8491
 8599TIP3    H147212   0.224   4.423   4.338 -0.7566 -0.8843  1.1743
 8599TIP3    H247213   0.253   4.391   4.483  0.6060 -0.0381  1.1088
 8600TIP3   OH247214   3.211   1.335   2.531  0.2176 -0.3894  0.5184
 8600TIP3    H147215   3.224   1.374   2.445  0.2604  1.4664  1.3185
 8600TIP3    H247216   3.122   1.300   2.528  0.8563 -2.0145 -0.8567
 8601TIP3   OH247217   2.961   5.801   1.049  0.0040  0.4233  0.3073
 8601TIP3    H147218   2.982   5.824   0.958  0.3565  0.3938  0.3802
 8601TIP3    H247219   2.981   5.708   1.055 -2.2963 -0.1767 -0.2422
 8602TIP3   OH247220   4.562   5.882  12.521 -0.6090 -0.2811  0.3275
 8602TIP3    H147221   4.604   5.960  12.486 -1.0346 -0.5262 -0.7881
 8602TIP3    H247222   4.629   5.814  12.515 -1.2601 -0.8042 -1.9634
 8603TIP3   OH247223   2.353   5.385  12.554  0.0943 -0.6419  0.3513
 8603TIP3    H147224   2.300   5.465  12.559 -0.3476 -0.8378 -0.7732
 8603TIP3    H247225   2.291   5.318  12.525  0.3202 -1.5493  1.8967
 8604TIP3   OH247226   2.174   3.070   0.252  0.3394  0.3284  0.3002
 8604TIP3    H147227   2.093   3.102   0.292  1.2064  0.7686  1.8224
 8604TIP3    H247228   2.221   3.149   0.226  1.1745  0.2070  1.3433
 8605TIP3   OH247229   5.151   3.893   5.375  0.6337  0.4415 -0.2728
 8605TIP3    H147230   5.238   3.854   5.364  1.0010  1.3525 -0.7433
 8605TIP3    H247231   5.120   3.909   5.286 -1.2747 -2.4391 -0.2649
 8606TIP3   OH247232   6.495   2.011   4.173 -0.0075  0.2162 -0.4565
 8606TIP3    H147233   6.533   1.986   4.258  0.2767  1.7411 -0.0903
 8606TIP3    H247234   6.563   2.065   4.132 -1.7557  3.2976  0.3397
 8607TIP3   OH247235   3.077   5.018  15.572  0.0013 -0.0640 -0.2379
 8607TIP3    H147236   3.067   4.962  15.496  0.5040  2.5626 -2.3864
 8607TIP3    H247237   3.010   5.086  15.561  0.4355  0.6864  1.3807
 8608TIP3   OH247238   6.762   5.477  12.424  0.3205  0.4678 -0.0720
 8608TIP3    H147239   6.777   5.545  12.358  1.1164 -0.4100 -0.8271
 8608TIP3    H247240   6.669   5.484  12.444  0.4237  1.9321  0.0583
 8609TIP3   OH247241   4.643   2.776  16.498  0.0284  0.1157  0.5261
 8609TIP3    H147242   4.592   2.830  16.438 -1.4805 -1.3111  0.4820
 8609TIP3    H247243   4.623   2.811  16.585 -1.5650 -0.8096  0.5675
 8610TIP3   OH247244   3.334   6.490   1.304 -0.5567 -0.1658 -0.4945
 8610TIP3    H147245   3.263   6.518   1.246 -0.2274 -1.3851 -1.5240
 8610TIP3    H247246   3.401   6.559   1.295 -0.0735 -0.8244 -2.4003
 8611TIP3   OH247247   4.599   0.002   3.091  0.0327  0.5685  0.3673
 8611TIP3    H147248   4.593   0.014   3.186  0.0244  0.3548  0.3940
 8611TIP3    H247249   4.601   0.091   3.056  1.2217  0.6601  0.6424
 8612TIP3   OH247250   5.495   4.674   6.328  0.4507  0.7871 -0.6734
 8612TIP3    H147251   5.527   4.614   6.260 -1.5184 -0.4020 -0.6324
 8612TIP3    H247252   5.472   4.617   6.401 -0.4722  1.7115 -0.2234
 8613TIP3   OH247253   5.381   5.915  15.335 -0.0926 -0.3650  0.0920
 8613TIP3    H147254   5.433   5.906  15.415 -1.5061  0.4787  1.1607
 8613TIP3    H247255   5.328   5.835  15.331  0.3343 -0.6380 -0.3028
 8614TIP3   OH247256   3.007   3.550  15.556  0.0981 -0.3335  0.0289
 8614TIP3    H147257   3.099   3.568  15.538  0.7760 -1.1105  2.2984
 8614TIP3    H247258   3.008   3.469  15.607 -1.9977 -1.1952 -1.1521
 8615TIP3   OH247259   1.827   4.575   1.707 -0.0668 -0.6978 -0.3668
 8615TIP3    H147260   1.761   4.548   1.770  1.9673  0.1072  2.3104
 8615TIP3    H247261   1.796   4.659   1.674 -0.8891 -0.8398  0.0248
 8616TIP3   OH247262   5.187   1.721   4.803  0.3213 -0.6583  0.7802
 8616TIP3    H147263   5.212   1.778   4.876 -0.0336 -0.4852  0.7680
 8616TIP3    H247264   5.207   1.633   4.833 -1.0802 -0.7136  1.6116
 8617TIP3   OH247265   6.562   4.395  16.871  0.1524 -0.4305  0.1582
 8617TIP3    H147266   6.657   4.398  16.881  0.5825  1.5466 -3.1319
 8617TIP3    H247267   6.543   4.303  16.854  1.4763 -0.8573  0.8396
 8618TIP3   OH247268   4.753   4.149   4.116 -0.2300  0.4196  0.0902
 8618TIP3    H147269   4.689   4.205   4.161 -0.1717  1.1402 -0.6762
 8618TIP3    H247270   4.782   4.203   4.042 -0.6366 -0.8715 -1.0369
 8619TIP3   OH247271   2.930   5.767   2.076 -0.0171  0.3718 -0.3665
 8619TIP3    H147272   2.883   5.719   2.007  1.0209  0.8394 -1.4250
 8619TIP3    H247273   2.861   5.811   2.126 -0.8443 -0.6201 -0.5929
 8620TIP3   OH247274   2.215   1.418   5.877 -0.0691 -0.1574  0.7397
 8620TIP3    H147275   2.213   1.495   5.934 -1.2014  0.4725 -0.1049
 8620TIP3    H247276   2.196   1.344   5.935 -0.1767  0.3415  1.3465
 8621TIP3   OH247277   6.027   1.157   5.467 -0.1181 -0.0434 -0.0751
 8621TIP3    H147278   6.056   1.178   5.379 -0.8511 -1.9535 -0.8260
 8621TIP3    H247279   6.107   1.136   5.515  0.4673  2.5656  0.2628
 8622TIP3   OH247280   5.712   3.069   4.401  0.1758  0.0443 -0.0262
 8622TIP3    H147281   5.631   3.046   4.447 -1.4651 -0.8902 -3.1016
 8622TIP3    H247282   5.782   3.031   4.454 -1.4409  0.0174  2.2072
 8623TIP3   OH247283   5.145   5.396   1.419  0.0641 -0.7563 -0.2085
 8623TIP3    H147284   5.157   5.412   1.325  0.3070 -0.6359 -0.1570
 8623TIP3    H247285   5.105   5.476   1.452 -0.4652 -0.9783 -0.2938
 8624TIP3   OH247286   6.493   3.718  15.868 -0.4650  0.1944  0.4302
 8624TIP3    H147287   6.509   3.789  15.930 -1.1968  0.2549  0.5637
 8624TIP3    H247288   6.566   3.657  15.881 -1.0396 -0.2141  1.9606
 8625TIP3   OH247289   2.285   0.149  15.493 -0.6125  0.5573 -0.4673
 8625TIP3    H147290   2.224   0.221  15.511 -1.8551 -0.5647 -0.0582
 8625TIP3    H247291   2.230   0.078  15.460  0.1253 -1.2082  1.8468
 8626TIP3   OH247292   1.248   3.054  11.875  0.3443 -0.3990 -0.0754
 8626TIP3    H147293   1.229   3.032  11.784  0.3909 -2.5944  0.3887
 8626TIP3    H247294   1.337   3.088  11.874 -0.0137  0.5605 -0.9624
 8627TIP3   OH247295   1.944   3.344  15.256 -0.0978 -0.4043  0.3055
 8627TIP3    H147296   1.952   3.307  15.168  0.7228  2.1870 -0.8049
 8627TIP3    H247297   2.032   3.336  15.293 -0.1099 -0.2758  0.3632
 8628TIP3   OH247298   5.782   1.117  12.818 -0.1172  0.3832 -0.1063
 8628TIP3    H147299   5.819   1.092  12.903 -1.8756  0.7863  0.8345
 8628TIP3    H247300   5.730   1.041  12.791  0.0718  0.4292 -0.6113
 8629TIP3   OH247301   2.818   6.262   1.670 -0.5071  0.2785 -0.6348
 8629TIP3    H147302   2.890   6.262   1.608 -0.4993 -0.6983 -0.6502
 8629TIP3    H247303   2.837   6.333   1.731  1.3037 -0.9307  0.3061
 8630TIP3   OH247304   6.150   4.400   5.125  0.0924 -0.2660  0.1922
 8630TIP3    H147305   6.219   4.388   5.059  0.4636 -1.4237  0.7480
 8630TIP3    H247306   6.068   4.388   5.077  0.3710 -1.4897 -0.0175
 8631TIP3   OH247307   4.149   3.252  14.096  0.7577  0.6147  0.0427
 8631TIP3    H147308   4.155   3.160  14.121  0.8394  1.4520  3.5530
 8631TIP3    H247309   4.235   3.288  14.119  2.3260  0.9365 -5.0779
 8632TIP3   OH247310   6.252   2.220   1.224 -0.5696 -0.2634 -0.1059
 8632TIP3    H147311   6.229   2.298   1.275  0.6469  0.0884 -0.0702
 8632TIP3    H247312   6.343   2.203   1.246 -0.2572 -0.5893 -1.5535
 8633TIP3   OH247313   1.391   1.316   1.067 -0.1871 -0.2219  0.4771
 8633TIP3    H147314   1.367   1.400   1.029  0.9812  0.6404  1.5334
 8633TIP3    H247315   1.324   1.298   1.133 -0.3694 -0.0518  0.3350
 8634TIP3   OH247316   4.832   1.228   6.225  0.2047 -1.0612  0.3029
 8634TIP3    H147317   4.883   1.197   6.300  0.9253  1.6277  1.0245
 8634TIP3    H247318   4.756   1.271   6.263 -0.7151 -1.7774 -0.6492
 8635TIP3   OH247319   0.441   0.935   1.285  0.5267 -0.2280 -0.4818
 8635TIP3    H147320   0.388   0.999   1.332 -0.2481  0.4472 -2.1779
 8635TIP3    H247321   0.531   0.963   1.299  0.5935 -1.6259  2.7802
 8636TIP3   OH247322   1.839   1.999  11.017  0.2642  0.0721 -0.1805
 8636TIP3    H147323   1.901   1.927  11.022 -0.0085 -0.2201 -0.8077
 8636TIP3    H247324   1.862   2.046  10.936 -1.2623 -0.9537 -1.2614
 8637TIP3   OH247325   0.447   1.824  10.504 -0.6809  0.1555  0.3085
 8637TIP3    H147326   0.406   1.825  10.418  0.4148 -0.3426 -0.2403
 8637TIP3    H247327   0.541   1.815  10.486 -0.4189  0.2285  1.5465
 8638TIP3   OH247328   3.346   4.844   0.536 -0.3376  0.1666  0.0784
 8638TIP3    H147329   3.433   4.881   0.546  0.5695 -1.7177 -0.3530
 8638TIP3    H247330   3.293   4.887   0.603  1.6416 -0.6891  2.2980
 8639TIP3   OH247331   2.567   4.633  14.876 -0.0913  0.0197 -0.3780
 8639TIP3    H147332   2.496   4.696  14.864  2.2229  2.6422 -1.4517
 8639TIP3    H247333   2.603   4.620  14.788  0.6906 -1.3685  0.1122
 8640TIP3   OH247334   5.261   3.797  11.737  0.4811  0.1642  0.0774
 8640TIP3    H147335   5.321   3.859  11.778 -0.8110  0.9793  0.7994
 8640TIP3    H247336   5.174   3.834  11.752 -0.4939 -2.5925  1.9592
 8641TIP3   OH247337   4.692   0.256   1.674  0.0452 -0.1386 -0.2043
 8641TIP3    H147338   4.782   0.251   1.642  0.1352  0.7042 -0.0967
 8641TIP3    H247339   4.698   0.306   1.756 -0.0570 -2.9117  1.6477
 8642TIP3   OH247340   1.612   5.250  13.037  0.4949 -0.1233  0.1801
 8642TIP3    H147341   1.611   5.305  12.958  1.5857  2.3650  1.7680
 8642TIP3    H247342   1.662   5.172  13.011  0.9521  0.6914 -1.5376
 8643TIP3   OH247343   6.112   2.644   4.083  0.0395 -0.1090  0.6847
 8643TIP3    H147344   6.103   2.740   4.088 -1.0036 -0.1847  0.5060
 8643TIP3    H247345   6.031   2.615   4.041  0.2577 -1.0884  0.9283
 8644TIP3   OH247346   3.471   5.947  12.057  0.3144  0.0093  0.0191
 8644TIP3    H147347   3.407   5.876  12.055 -1.5000  1.5941 -1.1198
 8644TIP3    H247348   3.536   5.919  12.121 -1.8677 -1.3797  1.7513
 8645TIP3   OH247349   5.699   1.995   3.471 -0.1423  0.7017  0.0487
 8645TIP3    H147350   5.646   2.053   3.526  0.6519  1.1535  0.3402
 8645TIP3    H247351   5.761   2.052   3.426  0.3337  0.1407 -0.0296
 8646TIP3   OH247352   3.223   0.847  16.768 -0.2271 -0.4211  0.1163
 8646TIP3    H147353   3.269   0.899  16.702 -1.2652  0.3838  0.0160
 8646TIP3    H247354   3.143   0.819  16.726 -2.7999  3.2078  2.0458
 8647TIP3   OH247355   4.252   4.952   3.544  0.0767  0.6210  0.3467
 8647TIP3    H147356   4.165   4.943   3.582  0.1703  0.1767  0.4610
 8647TIP3    H247357   4.244   4.915   3.456  0.9547 -2.6677  1.5103
 8648TIP3   OH247358   5.934   6.301  12.888 -0.2555  0.3360  0.0490
 8648TIP3    H147359   5.936   6.351  12.807  2.0427 -0.5137 -0.4943
 8648TIP3    H247360   5.847   6.317  12.924 -1.0025  1.4772 -2.0985
 8649TIP3   OH247361   1.848   0.146   4.579 -0.2139 -0.1475 -0.0064
 8649TIP3    H147362   1.847   0.241   4.591 -0.3086 -0.0283 -0.8845
 8649TIP3    H247363   1.801   0.112   4.654  0.3356  0.4586  0.6328
 8650TIP3   OH247364   0.978   0.057   3.609  0.5194  0.7121  0.2163
 8650TIP3    H147365   1.063   0.079   3.570  0.5082  0.8549  0.2721
 8650TIP3    H247366   0.976  -0.039   3.611  1.2511  0.7092  1.4871
 8651TIP3   OH247367   0.830   6.712  16.743  0.0984  0.5642  0.1580
 8651TIP3    H147368   0.839   6.649  16.815  1.3238  2.1036  1.4176
 8651TIP3    H247369   0.910   6.701  16.692  0.1761  0.8905  0.2087
 8652TIP3   OH247370   6.681   1.736  13.908  0.1929 -0.0840 -0.3619
 8652TIP3    H147371   6.730   1.786  13.973 -1.6571 -1.0400  1.9144
 8652TIP3    H247372   6.738   1.661  13.889  1.4482  1.0165 -1.1299
 8653TIP3   OH247373   4.272   2.593   2.659 -0.2863  0.0464 -0.2376
 8653TIP3    H147374   4.251   2.596   2.752  1.1645  0.4565  0.1026
 8653TIP3    H247375   4.247   2.504   2.632 -0.7985 -0.0466  0.5123
 8654TIP3   OH247376   6.311   4.730   0.721 -0.4827  0.2623 -0.3046
 8654TIP3    H147377   6.232   4.713   0.773  0.9714 -1.6650  1.4665
 8654TIP3    H247378   6.345   4.643   0.700  1.1842  1.0410 -0.9975
 8655TIP3   OH247379   6.149   2.458  16.100  0.6672 -0.3692  0.1336
 8655TIP3    H147380   6.181   2.468  16.190 -1.4897 -2.4929  1.2484
 8655TIP3    H247381   6.213   2.506  16.047  2.3261  0.5136  2.7133
 8656TIP3   OH247382   6.191   6.005  14.432  0.0230  0.8578 -0.1179
 8656TIP3    H147383   6.237   5.934  14.388  1.3058  1.3013  0.4443
 8656TIP3    H247384   6.100   5.978  14.433  0.2639 -0.0774 -1.2397
 8657TIP3   OH247385   6.539   2.335   1.187 -0.2320 -0.1001  0.0781
 8657TIP3    H147386   6.533   2.405   1.252 -0.5975 -0.1992  0.1569
 8657TIP3    H247387   6.540   2.255   1.240  2.5018 -0.1168  0.1263
 8658TIP3   OH247388   0.206   3.357   5.067  0.8103 -0.0423  0.5527
 8658TIP3    H147389   0.163   3.326   5.147  0.2378  1.7001  0.9817
 8658TIP3    H247390   0.134   3.380   5.008  1.2273 -1.5160 -0.5872
 8659TIP3   OH247391   1.041   2.882  14.222  0.0694  0.1175 -0.2786
 8659TIP3    H147392   1.078   2.929  14.147 -0.0067 -2.1050 -1.7942
 8659TIP3    H247393   0.959   2.847  14.191  0.2085 -1.1774  0.7244
 8660TIP3   OH247394   6.308   3.626   1.071 -0.2368  0.4874 -0.1146
 8660TIP3    H147395   6.297   3.687   0.998 -0.8377  1.1323  0.4971
 8660TIP3    H247396   6.401   3.633   1.094  0.0703 -0.0920 -1.1188
 8661TIP3   OH247397   0.453   1.585   4.226 -0.4295 -0.4580 -0.0127
 8661TIP3    H147398   0.472   1.499   4.264 -3.0753 -0.6596  1.0594
 8661TIP3    H247399   0.467   1.574   4.132  0.0260 -1.8236  0.1970
 8662TIP3   OH247400   6.669   6.177  16.046 -0.0614  0.0947  0.5951
 8662TIP3    H147401   6.592   6.172  15.989 -0.4640  0.5795  1.0816
 8662TIP3    H247402   6.635   6.208  16.130  0.7434  0.8605  0.6601
 8663TIP3   OH247403   5.352   1.010  13.227  0.2837 -0.4284 -0.2119
 8663TIP3    H147404   5.282   1.074  13.242 -0.0711 -0.7720 -0.3959
 8663TIP3    H247405   5.316   0.928  13.260  0.0429 -0.9096 -1.6029
 8664TIP3   OH247406   0.787   5.588  12.687  0.2354 -0.3746  0.3094
 8664TIP3    H147407   0.775   5.495  12.669  0.7856 -0.9611  2.6084
 8664TIP3    H247408   0.860   5.615  12.631 -1.2717 -0.7470 -1.9369
 8665TIP3   OH247409   1.212   0.950   2.500  0.2480 -0.0932 -0.5881
 8665TIP3    H147410   1.191   0.913   2.585  0.6104  0.0145 -0.4495
 8665TIP3    H247411   1.298   0.990   2.512 -0.4167  1.3725 -0.5575
 8666TIP3   OH247412   6.605   1.600  12.731  0.0823 -0.0783 -0.2072
 8666TIP3    H147413   6.541   1.640  12.673 -1.5617 -2.5094 -0.2093
 8666TIP3    H247414   6.591   1.643  12.815 -0.4800  0.5028 -0.5855
 8667TIP3   OH247415   1.255   4.450   3.554  0.2114 -0.2654 -0.5035
 8667TIP3    H147416   1.190   4.454   3.483 -0.6231 -0.2980  0.2401
 8667TIP3    H247417   1.298   4.365   3.542  0.5231  0.0022 -1.3443
 8668TIP3   OH247418   3.290   5.251   1.470  0.1365  0.0244 -0.0956
 8668TIP3    H147419   3.203   5.234   1.507  1.2302 -1.6051  1.9066
 8668TIP3    H247420   3.314   5.169   1.426  0.4905  0.6365 -1.0861
 8669TIP3   OH247421   2.325   1.764  14.872  0.2455  0.1152 -0.3528
 8669TIP3    H147422   2.402   1.820  14.863 -0.8062  1.5123 -1.0736
 8669TIP3    H247423   2.281   1.795  14.951 -0.3370  0.3529 -0.7532
 8670TIP3   OH247424   1.774   3.025  16.103 -0.6137 -0.1881 -0.0948
 8670TIP3    H147425   1.842   3.005  16.040 -0.3588 -0.3355  0.2232
 8670TIP3    H247426   1.774   3.121  16.108 -0.1204 -0.2006  0.2347
 8671TIP3   OH247427   0.393   0.694   5.100  0.3569 -0.1881  0.7377
 8671TIP3    H147428   0.453   0.767   5.086 -1.0004  1.1230  1.3624
 8671TIP3    H247429   0.339   0.691   5.021  0.6456 -0.7685  0.5572
 8672TIP3   OH247430   1.164   2.168  13.922  0.1883 -0.0140 -0.0468
 8672TIP3    H147431   1.157   2.101  13.853 -0.0628 -0.6094  0.5416
 8672TIP3    H247432   1.158   2.118  14.004  0.6559  0.6654  0.4094
 8673TIP3   OH247433   3.436   0.120   2.632  0.0670  0.2228  0.2545
 8673TIP3    H147434   3.521   0.128   2.587 -0.3864 -1.2151 -0.9452
 8673TIP3    H247435   3.386   0.196   2.601  0.0973 -0.2272 -0.9511
 8674TIP3   OH247436   5.456   1.058   0.191 -0.0424 -0.3966 -0.1145
 8674TIP3    H147437   5.454   1.153   0.206 -3.5282 -0.6361  2.3859
 8674TIP3    H247438   5.486   1.021   0.274 -1.0929 -1.4946 -0.1935
 8675TIP3   OH247439   3.033   6.433  14.300  0.1607  0.3003  0.7810
 8675TIP3    H147440   3.045   6.408  14.208 -0.3431  2.1573  0.1667
 8675TIP3    H247441   3.035   6.350  14.348  0.5664 -0.6983 -0.8834
 8676TIP3   OH247442   2.285   5.312   5.110  0.6494 -0.6304  0.0885
 8676TIP3    H147443   2.305   5.368   5.185  1.9469 -0.9189 -0.0225
 8676TIP3    H247444   2.200   5.274   5.131  0.8369 -0.4471  1.2661
 8677TIP3   OH247445   3.411   2.474   5.803  0.0914 -0.2031 -0.0691
 8677TIP3    H147446   3.456   2.558   5.804 -1.7682  0.8763 -0.8346
 8677TIP3    H247447   3.441   2.431   5.724  0.3520  0.1615 -0.1680
 8678TIP3   OH247448   0.748   5.623   4.752  0.5839  0.7909 -0.1535
 8678TIP3    H147449   0.674   5.663   4.799  0.8442  0.6166  0.4119
 8678TIP3    H247450   0.721   5.531   4.740  0.9742  0.5635  0.6319
 8679TIP3   OH247451   5.831   1.435  15.806  0.0072 -0.5587  0.2328
 8679TIP3    H147452   5.848   1.529  15.807  0.0793 -0.5665  1.5810
 8679TIP3    H247453   5.870   1.403  15.887 -0.7524 -1.6214  0.1986
 8680TIP3   OH247454   2.153   5.832   3.273  0.0001 -0.1898 -0.1100
 8680TIP3    H147455   2.061   5.856   3.262  0.4717  2.3618  0.6620
 8680TIP3    H247456   2.152   5.747   3.316 -1.9159 -1.5224 -2.5043
 8681TIP3   OH247457   4.228   6.574   0.554  0.6614  0.4838  0.2471
 8681TIP3    H147458   4.282   6.496   0.568  0.2463  0.3767  1.4022
 8681TIP3    H247459   4.147   6.540   0.515  0.2530  0.2355  1.2682
 8682TIP3   OH247460   5.024   0.789  13.374  0.2721  0.2334  0.2622
 8682TIP3    H147461   5.006   0.702  13.409  2.0940 -0.3697 -0.1918
 8682TIP3    H247462   4.993   0.849  13.441 -0.2163 -0.7775  0.9711
 8683TIP3   OH247463   3.018   4.364  16.702 -0.1771  0.2896  0.0202
 8683TIP3    H147464   3.102   4.347  16.659  0.3128  0.3098  0.9525
 8683TIP3    H247465   3.032   4.446  16.750 -0.8442  0.4779 -0.0942
 8684TIP3   OH247466   3.471   2.719   4.625  0.1765  0.0532  0.3365
 8684TIP3    H147467   3.418   2.642   4.606 -0.0181  0.2994 -0.1311
 8684TIP3    H247468   3.416   2.773   4.682 -0.1256  0.3670 -0.2505
 8685TIP3   OH247469   3.692   2.387   0.037  0.3573 -0.0857  0.2416
 8685TIP3    H147470   3.748   2.399  -0.040 -0.0354  0.2708  0.0016
 8685TIP3    H247471   3.715   2.459   0.095 -1.6756  1.7198 -1.0012
 8686TIP3   OH247472   0.991   4.876   1.325 -0.0408  0.2160 -0.2820
 8686TIP3    H147473   0.913   4.832   1.358 -0.3399  0.7711 -0.2368
 8686TIP3    H247474   0.997   4.957   1.375 -0.0777  0.7113 -1.0507
 8687TIP3   OH247475   4.235   6.426  12.491 -0.1460  0.2959  0.1884
 8687TIP3    H147476   4.285   6.499  12.528  1.1161 -1.5395  2.3572
 8687TIP3    H247477   4.151   6.430  12.536 -0.7542  1.3839 -0.9824
 8688TIP3   OH247478   0.238   1.564   0.742 -0.2955  0.6017  0.5243
 8688TIP3    H147479   0.281   1.565   0.827 -1.3888 -0.7003  1.1235
 8688TIP3    H247480   0.310   1.573   0.679  0.8627 -1.1283  1.4965
 8689TIP3   OH247481   5.644   4.057  15.897  0.1017 -0.2043 -0.2271
 8689TIP3    H147482   5.586   4.005  15.953 -0.2738  0.8910  0.4474
 8689TIP3    H247483   5.596   4.065  15.815  1.9389 -4.4236 -2.0214
 8690TIP3   OH247484   5.062   1.409   0.199 -0.1866  0.4453 -0.1272
 8690TIP3    H147485   5.040   1.323   0.162 -0.9907 -0.1969  1.6865
 8690TIP3    H247486   5.027   1.405   0.288 -0.0031  2.5825  0.0771
 8691TIP3   OH247487   0.650   0.212   1.641  0.1389  0.0469  0.3230
 8691TIP3    H147488   0.687   0.141   1.693  1.5275  0.5551  0.0716
 8691TIP3    H247489   0.710   0.285   1.653 -0.8355  0.9447 -0.0559
 8692TIP3   OH247490   5.492   6.000  12.987 -0.1772 -0.4258  0.3245
 8692TIP3    H147491   5.511   5.993  12.893  0.1410  2.0785  0.1449
 8692TIP3    H247492   5.565   5.955  13.029  1.8907  1.8039 -0.6036
 8693TIP3   OH247493   2.206   1.638  11.662 -0.1996  0.6305 -0.0036
 8693TIP3    H147494   2.124   1.617  11.618  0.3704 -2.0966  0.0746
 8693TIP3    H247495   2.273   1.592  11.611  1.2958  2.5534  0.1076
 8694TIP3   OH247496   0.918   5.916   5.058 -0.1561  0.0010 -0.1889
 8694TIP3    H147497   0.954   5.954   4.978 -2.2060 -0.9520 -1.6398
 8694TIP3    H247498   0.829   5.952   5.064  0.3367  0.9587  2.3255
 8695TIP3   OH247499   5.123   4.162   6.251 -0.3477  0.5166  0.0886
 8695TIP3    H147500   5.092   4.214   6.176  1.1939  0.8921 -0.3181
 8695TIP3    H247501   5.138   4.226   6.320  1.1156  0.6034 -0.2679
 8696TIP3   OH247502   1.928   2.099  15.099 -0.0542  0.1749  0.2189
 8696TIP3    H147503   1.984   2.028  15.068 -0.0216 -0.2138  1.1564
 8696TIP3    H247504   1.962   2.121  15.186 -0.5504  0.8145  0.2577
 8697TIP3   OH247505   6.262   1.855  15.705  0.2074  0.2929  0.0256
 8697TIP3    H147506   6.266   1.948  15.683  0.4459  0.2519 -0.1058
 8697TIP3    H247507   6.304   1.811  15.631 -0.5740  0.0216 -0.2653
 8698TIP3   OH247508   1.676   0.544  12.770  0.0280  0.0834  0.2005
 8698TIP3    H147509   1.643   0.552  12.681  1.0068 -0.6780 -0.2507
 8698TIP3    H247510   1.704   0.633  12.793 -0.0042  0.2361 -0.3422
 8699TIP3   OH247511   1.978   5.506  16.950 -0.1786 -0.2103  0.4230
 8699TIP3    H147512   1.954   5.443  16.882  0.6464  2.6161 -2.7855
 8699TIP3    H247513   1.895   5.547  16.975 -0.2737  0.0903 -0.3693
 8700TIP3   OH247514   3.064   6.524  16.474 -0.2846  0.4852 -0.4950
 8700TIP3    H147515   3.025   6.440  16.449 -3.1657  1.5736 -0.0730
 8700TIP3    H247516   3.140   6.501  16.528 -2.8817 -1.9527  2.4929
 8701TIP3   OH247517   4.709   5.116   1.640  0.5311  0.1445  0.2004
 8701TIP3    H147518   4.773   5.123   1.711 -0.7776 -2.7411  1.8697
 8701TIP3    H247519   4.737   5.040   1.590 -0.1564  0.4178 -0.6218
 8702TIP3   OH247520   5.995   3.603   2.824 -0.1741  0.2165  0.5031
 8702TIP3    H147521   5.984   3.648   2.741  0.0993  0.4468  0.5887
 8702TIP3    H247522   5.907   3.596   2.860 -0.2225  0.6373  0.4673
 8703TIP3   OH247523   2.687   0.096  14.997  0.4520 -0.5207 -0.3757
 8703TIP3    H147524   2.703   0.120  15.088 -0.9586  3.5580 -0.9886
 8703TIP3    H247525   2.592   0.103  14.987  0.7454  1.5324 -2.6171
 8704TIP3   OH247526   3.090   5.122   2.614 -0.1120  0.6365 -0.4311
 8704TIP3    H147527   3.084   5.209   2.653 -0.2666  0.5406 -0.2375
 8704TIP3    H247528   3.042   5.129   2.531 -1.0953  0.4529  0.0950
 8705TIP3   OH247529   1.561   0.186  13.121 -0.1984 -0.2134 -0.1227
 8705TIP3    H147530   1.492   0.232  13.168 -0.7459 -2.0441  0.9955
 8705TIP3    H247531   1.532   0.187  13.029 -1.0139  0.2125  0.1274
 8706TIP3   OH247532   3.119   0.796   0.210  0.0574 -0.0541  0.0128
 8706TIP3    H147533   3.124   0.729   0.141 -0.1030  1.1917 -1.2518
 8706TIP3    H247534   3.206   0.796   0.250  0.5897  0.1342 -1.1082
 8707TIP3   OH247535   3.705   4.290   4.712 -0.0336  0.6930 -0.8905
 8707TIP3    H147536   3.756   4.218   4.748 -0.1984  1.2814  0.5661
 8707TIP3    H247537   3.733   4.295   4.620  0.3516 -0.8725 -0.8830
 8708TIP3   OH247538   0.456   0.555  12.957 -0.2011 -0.1353  0.4861
 8708TIP3    H147539   0.511   0.492  12.912  1.0010  1.4537 -0.3988
 8708TIP3    H247540   0.461   0.532  13.049 -0.6569 -1.9341  0.0876
 8709TIP3   OH247541   3.570   1.772   6.644 -0.1464  0.3573 -0.0734
 8709TIP3    H147542   3.506   1.755   6.575  0.3665 -2.6706  0.0458
 8709TIP3    H247543   3.655   1.754   6.603  0.2580 -0.3061  0.9976
 8710TIP3   OH247544   1.153   2.556   1.728 -0.0897 -0.4293  0.3126
 8710TIP3    H147545   1.187   2.526   1.644  1.7876 -2.2393  1.6190
 8710TIP3    H247546   1.230   2.585   1.777 -1.2568  1.5474  1.0946
 8711TIP3   OH247547   3.138   1.506  16.318 -0.2190 -0.7123  0.4936
 8711TIP3    H147548   3.081   1.525  16.392 -3.6125 -1.0086 -1.8267
 8711TIP3    H247549   3.224   1.491  16.357 -1.7227 -0.5263  4.2699
 8712TIP3   OH247550   5.193   5.740   0.060  0.0972 -0.1440 -0.4378
 8712TIP3    H147551   5.110   5.771   0.096 -0.3190 -0.8869 -0.7498
 8712TIP3    H247552   5.185   5.644   0.059  1.6344 -0.3468  1.1872
 8713TIP3   OH247553   3.855   1.046  12.608  0.1735 -0.1102  0.0591
 8713TIP3    H147554   3.864   1.140  12.590  2.0746 -0.4901 -1.3075
 8713TIP3    H247555   3.761   1.032  12.619 -0.0867  2.0575  0.9858
 8714TIP3   OH247556   3.250   4.131   0.798  0.3860 -0.5118  0.2635
 8714TIP3    H147557   3.250   4.206   0.739 -0.3437 -0.9218 -0.2754
 8714TIP3    H247558   3.282   4.058   0.745  2.4808 -0.3160  1.1733
 8715TIP3   OH247559   6.000   4.493  13.764  0.4836  0.0422 -0.1118
 8715TIP3    H147560   6.061   4.437  13.814  0.7469  0.4128 -0.0120
 8715TIP3    H247561   6.035   4.491  13.675  0.1750 -0.3933 -0.2276
 8716TIP3   OH247562   2.704   3.260   0.098  0.3397  0.5906  0.1383
 8716TIP3    H147563   2.627   3.234   0.047  1.2854  0.5486 -1.3558
 8716TIP3    H247564   2.772   3.274   0.032  2.1931 -1.3423  1.5227
 8717TIP3   OH247565   4.064   3.664   0.654  0.0446 -0.0821  0.0228
 8717TIP3    H147566   4.079   3.759   0.662  0.7353 -0.1033 -0.8801
 8717TIP3    H247567   4.104   3.640   0.571 -0.3851 -1.1272  0.1012
 8718TIP3   OH247568   2.142   6.619  15.772  0.2456 -0.4669 -0.2560
 8718TIP3    H147569   2.124   6.587  15.860 -0.0515 -0.7967 -0.4387
 8718TIP3    H247570   2.238   6.627  15.769  0.1643  1.4937  0.7804
 8719TIP3   OH247571   6.714   5.261   1.488 -0.2623  0.7355  0.2446
 8719TIP3    H147572   6.794   5.311   1.509  0.3738 -0.5313  0.9298
 8719TIP3    H247573   6.719   5.246   1.394  0.4255  0.4886  0.3127
 8720TIP3   OH247574   0.689   1.798  10.375  0.2129  0.6741  0.0189
 8720TIP3    H147575   0.679   1.704  10.366 -0.6110  0.8685 -1.4832
 8720TIP3    H247576   0.778   1.816  10.346  1.3143  0.1335  2.7530
 8721TIP3   OH247577   6.033   0.748   3.747 -0.7131  0.4319  0.1609
 8721TIP3    H147578   5.992   0.662   3.736 -0.6958  0.5868 -1.3427
 8721TIP3    H247579   5.992   0.784   3.826 -2.1697 -0.1536 -0.2885
 8722TIP3   OH247580   3.391   4.455  11.374 -0.0837 -0.3955  0.0591
 8722TIP3    H147581   3.382   4.486  11.464  2.6452 -0.2817  0.3808
 8722TIP3    H247582   3.376   4.360  11.381 -0.8176 -0.2666  0.4327
 8723TIP3   OH247583   3.020   4.177  15.982  0.0276 -0.2776  0.2949
 8723TIP3    H147584   2.983   4.108  15.926  0.5932 -1.9908  1.8992
 8723TIP3    H247585   3.114   4.161  15.980  0.1090  0.0780  1.1553
 8724TIP3   OH247586   4.472   1.439   4.285  0.0911 -0.3590 -0.0502
 8724TIP3    H147587   4.497   1.363   4.339  0.5244 -1.2698 -1.4702
 8724TIP3    H247588   4.543   1.502   4.299 -0.1874 -0.2614  1.0172
 8725TIP3   OH247589   3.727   5.961  11.747 -0.3630 -0.0461  0.2598
 8725TIP3    H147590   3.645   6.003  11.720  0.7972  1.3766 -1.2171
 8725TIP3    H247591   3.756   5.913  11.670 -0.6531 -2.0188  1.3226
 8726TIP3   OH247592   5.683   1.210  14.681 -0.3158  0.0838  0.3243
 8726TIP3    H147593   5.754   1.272  14.672  1.3895 -1.9511 -1.3322
 8726TIP3    H247594   5.683   1.186  14.774  2.8707 -1.6653 -0.0136
 8727TIP3   OH247595   3.713   3.263  15.037 -0.0025 -0.1308 -0.3050
 8727TIP3    H147596   3.655   3.214  15.095 -0.0740 -0.2460 -0.4722
 8727TIP3    H247597   3.780   3.298  15.094  0.2866 -0.7782 -0.2413
 8728TIP3   OH247598   5.754   6.692  14.434 -0.2288 -0.1052 -0.3723
 8728TIP3    H147599   5.753   6.775  14.483 -0.1051  0.9270 -2.0186
 8728TIP3    H247600   5.670   6.652  14.454  0.6229 -0.8053  2.3270
 8729TIP3   OH247601   5.507   1.658  11.649 -0.3542  0.1279 -0.1960
 8729TIP3    H147602   5.460   1.707  11.581 -1.1700  0.5962  0.6843
 8729TIP3    H247603   5.497   1.566  11.624 -0.0734  0.3173 -1.0599
 8730TIP3   OH247604   6.065   4.033  12.161  0.0781 -0.3836  0.1623
 8730TIP3    H147605   6.099   3.955  12.119 -0.8907 -0.7323  0.0179
 8730TIP3    H247606   5.998   4.001  12.222  0.3208  0.2523  0.7869
 8731TIP3   OH247607   4.666   5.093  12.410  0.3722 -0.0635  0.0306
 8731TIP3    H147608   4.686   5.003  12.435  0.7584 -0.6401 -2.1261
 8731TIP3    H247609   4.749   5.127  12.376  0.3226  1.2585  1.1333
 8732TIP3   OH247610   3.333   2.925  15.148 -0.0479 -0.1632  0.4222
 8732TIP3    H147611   3.356   3.016  15.168  0.5225 -0.4013  0.8632
 8732TIP3    H247612   3.243   2.930  15.115  0.2101  0.6369 -0.1949
 8733TIP3   OH247613   0.889   4.318  16.044 -0.2231  0.3316  0.0699
 8733TIP3    H147614   0.950   4.295  15.974 -0.2382  0.5114 -0.0019
 8733TIP3    H247615   0.938   4.379  16.099 -0.6974  1.2837 -0.5581
 8734TIP3   OH247616   2.474   4.339  13.891 -0.3984 -0.2119  0.1489
 8734TIP3    H147617   2.509   4.377  13.810  2.5772 -1.6133  0.6442
 8734TIP3    H247618   2.485   4.409  13.956 -0.7397  0.1687 -0.1955
 8735TIP3   OH247619   6.497   3.250  16.722 -0.4192 -0.5044 -0.4147
 8735TIP3    H147620   6.451   3.169  16.743 -0.2044 -1.0683 -1.9589
 8735TIP3    H247621   6.547   3.270  16.801 -0.5267 -1.8422  0.0233
 8736TIP3   OH247622   4.927   1.402  17.056  0.4059  0.2384  0.1863
 8736TIP3    H147623   4.898   1.472  16.998 -0.4013 -0.0301  0.2563
 8736TIP3    H247624   4.857   1.393  17.120  1.1083  0.2659  0.9751
 8737TIP3   OH247625   1.810   0.351  14.006 -0.0171 -0.0145  0.0464
 8737TIP3    H147626   1.797   0.444  14.023 -0.4099 -0.3326  1.6313
 8737TIP3    H247627   1.732   0.324  13.959 -0.1753  0.3363  0.1040
 8738TIP3   OH247628   2.278   0.149  13.827 -0.2151  0.2663 -0.2776
 8738TIP3    H147629   2.265   0.122  13.918 -1.3014 -2.1443 -1.0565
 8738TIP3    H247630   2.189   0.161  13.792  0.1275 -0.1781 -1.3559
 8739TIP3   OH247631   3.299   1.139   3.301 -0.2100 -0.0647  0.3517
 8739TIP3    H147632   3.265   1.138   3.212 -1.3458 -0.1029  0.7727
 8739TIP3    H247633   3.273   1.055   3.338  0.7778 -0.3020  0.5450
 8740TIP3   OH247634   2.380   0.636   3.604 -0.7502  0.3358  0.3712
 8740TIP3    H147635   2.425   0.716   3.632 -0.8145  0.1277  1.1061
 8740TIP3    H247636   2.393   0.575   3.677 -0.1363 -0.5525 -0.4574
 8741TIP3   OH247637   5.232   6.773  11.530 -0.3497 -0.0595  0.0985
 8741TIP3    H147638   5.158   6.717  11.507  0.1295 -0.5689 -0.2359
 8741TIP3    H247639   5.296   6.756  11.461  1.3046 -1.9071  1.9372
 8742TIP3   OH247640   5.958   2.560   0.896 -0.2586 -0.2636 -0.5451
 8742TIP3    H147641   6.042   2.597   0.921 -0.2501 -0.8923  0.3891
 8742TIP3    H247642   5.980   2.483   0.842 -0.1530 -1.5471  1.2374
 8743TIP3   OH247643   3.907   2.667  14.252 -0.9515  0.0856 -0.3007
 8743TIP3    H147644   3.855   2.702  14.179 -0.6543  0.3356 -0.3961
 8743TIP3    H247645   3.849   2.671  14.327 -1.0131  0.5375 -0.3678
 8744TIP3   OH247646   0.473   5.272  11.761 -0.6321 -0.0809  0.3167
 8744TIP3    H147647   0.407   5.210  11.791  0.5285 -0.9070  1.2885
 8744TIP3    H247648   0.480   5.336  11.831  0.3640 -0.6316  0.7425
 8745TIP3   OH247649   4.534   3.528   0.544 -0.5335  0.5177  0.4987
 8745TIP3    H147650   4.625   3.506   0.525 -0.9107 -0.0548 -0.7632
 8745TIP3    H247651   4.539   3.599   0.608  0.7836 -0.0571  1.0715
 8746TIP3   OH247652   4.956   5.300  14.432 -0.1159 -0.1973 -0.0099
 8746TIP3    H147653   4.893   5.231  14.453 -0.2691  0.4447  1.7403
 8746TIP3    H247654   4.905   5.380  14.434  0.1912  0.0690 -1.4454
 8747TIP3   OH247655   1.596   4.668   4.237 -0.2046 -0.4367 -0.2582
 8747TIP3    H147656   1.563   4.666   4.147 -0.8087 -0.3991 -0.0395
 8747TIP3    H247657   1.691   4.674   4.227 -0.2435 -0.7592 -0.8953
 8748TIP3   OH247658   2.895   4.948   2.286 -0.0060  0.4352 -0.6801
 8748TIP3    H147659   2.925   4.898   2.361  0.8148  2.0258  0.1116
 8748TIP3    H247660   2.805   4.919   2.272  0.1260 -0.5312  0.3397
 8749TIP3   OH247661   0.902   3.272   3.147  0.1675  0.1261 -0.4511
 8749TIP3    H147662   0.848   3.348   3.124  0.9098  0.8068 -0.0220
 8749TIP3    H247663   0.991   3.308   3.154  0.3861 -0.6013  0.6786
 8750TIP3   OH247664   6.236   0.593   5.655 -0.0445 -0.0220  0.2522
 8750TIP3    H147665   6.277   0.540   5.587  0.7195  1.4413 -0.4759
 8750TIP3    H247666   6.279   0.567   5.736  0.5121 -0.3203 -0.1347
 8751TIP3   OH247667   2.521   4.098   4.450  0.4305  0.2334  0.0943
 8751TIP3    H147668   2.488   4.045   4.523 -1.8906  0.3647 -0.7581
 8751TIP3    H247669   2.536   4.034   4.380 -0.2960  0.4320 -0.2526
 8752TIP3   OH247670   5.480   4.799  15.646 -0.6617  0.5273 -0.0708
 8752TIP3    H147671   5.395   4.772  15.610 -0.9905  0.0574  1.0117
 8752TIP3    H247672   5.542   4.785  15.575 -1.4188  0.3988 -0.7133
 8753TIP3   OH247673   2.222   1.197  15.250 -0.1426 -0.5732  0.4666
 8753TIP3    H147674   2.147   1.147  15.285 -1.7968  0.8624 -0.8399
 8753TIP3    H247675   2.209   1.285  15.283  0.6983 -0.1952 -0.1919
 8754TIP3   OH247676   0.877   2.069   3.648 -0.7010  0.5082  0.0491
 8754TIP3    H147677   0.922   2.153   3.653 -0.0678  0.2624 -1.1993
 8754TIP3    H247678   0.894   2.028   3.733  0.9189  0.6775 -0.1697
 8755TIP3   OH247679   3.780   1.161  13.849 -0.0514 -0.3094  0.1886
 8755TIP3    H147680   3.795   1.139  13.941  0.1277 -0.9008  0.0170
 8755TIP3    H247681   3.783   1.078  13.803 -1.7609 -0.2174 -0.1434
 8756TIP3   OH247682   5.155   1.604  15.205 -0.4577  0.3734 -0.0339
 8756TIP3    H147683   5.179   1.672  15.267 -2.5224  0.2946  0.9198
 8756TIP3    H247684   5.061   1.616  15.190 -0.5378 -1.2264 -1.1381
 8757TIP3   OH247685   4.702   0.200   2.607 -0.2785 -0.1998  0.1662
 8757TIP3    H147686   4.760   0.161   2.542 -1.4313 -1.4745 -0.1393
 8757TIP3    H247687   4.700   0.293   2.585  2.9524  0.2841  1.2305
 8758TIP3   OH247688   1.764   2.626   4.287  0.0531  0.4817 -0.2786
 8758TIP3    H147689   1.740   2.715   4.262 -0.1417  0.3736 -0.4788
 8758TIP3    H247690   1.712   2.570   4.230  1.4632  0.2473 -1.3975
 8759TIP3   OH247691   6.161   4.339  10.669  0.2032  0.0438  0.2972
 8759TIP3    H147692   6.088   4.372  10.616 -0.4056 -3.0170 -1.0091
 8759TIP3    H247693   6.233   4.332  10.607  1.1149  1.3326  1.1685
 8760TIP3   OH247694   3.173   6.730  13.446  0.0615  0.0007 -0.3764
 8760TIP3    H147695   3.158   6.730  13.352  1.6989 -0.4789 -0.6817
 8760TIP3    H247696   3.224   6.809  13.463  0.3579 -0.2601 -0.0193
 8761TIP3   OH247697   5.696   3.315  15.555  0.3907  0.2078 -0.0771
 8761TIP3    H147698   5.621   3.263  15.526 -0.3161  0.0773  1.8444
 8761TIP3    H247699   5.707   3.381  15.486 -0.7717 -0.4569 -0.9399
 8762TIP3   OH247700   4.497   4.868   4.723  0.0353  0.0285  0.2617
 8762TIP3    H147701   4.413   4.878   4.768 -0.0046 -1.2826  0.5162
 8762TIP3    H247702   4.475   4.854   4.631 -0.0088  0.1243  0.2585
 8763TIP3   OH247703   1.795   2.689   0.256 -0.1361 -0.1809 -0.6163
 8763TIP3    H147704   1.853   2.762   0.272  0.8677 -1.1066  0.1062
 8763TIP3    H247705   1.729   2.695   0.326 -0.2652  0.2414 -0.7760
 8764TIP3   OH247706   3.063   2.362  16.961 -0.3997 -0.1255 -0.2856
 8764TIP3    H147707   3.128   2.431  16.966 -0.5547  0.0335 -0.4429
 8764TIP3    H247708   2.983   2.407  16.934 -1.2814  0.1490  2.4873
 8765TIP3   OH247709   5.135   0.698   2.911 -0.2657 -0.0771 -0.0286
 8765TIP3    H147710   5.079   0.773   2.932  1.5580  0.8912  1.6811
 8765TIP3    H247711   5.197   0.732   2.846  1.7154  0.5655  2.0486
 8766TIP3   OH247712   4.981   2.899   1.227  0.2483  0.0607 -0.1950
 8766TIP3    H147713   5.020   2.861   1.148 -0.4693  2.1203 -1.6132
 8766TIP3    H247714   4.899   2.850   1.238 -0.6947  1.1201 -2.0240
 8767TIP3   OH247715   3.559   5.415   0.631  0.1871 -0.9603 -0.1183
 8767TIP3    H147716   3.593   5.394   0.718  1.0714 -1.1005 -0.4851
 8767TIP3    H247717   3.617   5.368   0.571 -0.1880 -0.5711 -0.7983
 8768TIP3   OH247718   4.030   5.752   0.425 -0.0082  0.3154 -0.5153
 8768TIP3    H147719   4.112   5.702   0.424 -0.4375 -0.4462  0.1795
 8768TIP3    H247720   3.965   5.691   0.389 -0.6065  0.2399  0.6571
 8769TIP3   OH247721   3.206   4.975   0.887  0.0362 -0.1471 -0.5124
 8769TIP3    H147722   3.119   5.001   0.854  1.0442  1.2638 -2.2781
 8769TIP3    H247723   3.267   5.024   0.832  1.9483  0.9227  2.3548
 8770TIP3   OH247724   2.909   2.902   2.303  0.1265 -0.0014  0.0658
 8770TIP3    H147725   2.871   2.819   2.276  0.7629 -0.3112  0.0953
 8770TIP3    H247726   2.864   2.968   2.251 -1.0448 -0.2704  0.7110
 8771TIP3   OH247727   5.854   0.694   5.384 -0.3695  0.1434 -0.2691
 8771TIP3    H147728   5.846   0.648   5.468  0.1078  1.3426  0.4492
 8771TIP3    H247729   5.888   0.627   5.324 -1.2225 -0.8714  0.3377
 8772TIP3   OH247730   3.670   4.226  15.165  0.4529  0.1386 -0.1412
 8772TIP3    H147731   3.672   4.181  15.249 -0.8281 -0.5563 -0.4436
 8772TIP3    H247732   3.758   4.215  15.129  0.3079 -1.7467  0.0084
 8773TIP3   OH247733   3.366   6.229   1.995 -0.2320  0.1609 -0.4422
 8773TIP3    H147734   3.341   6.139   2.016 -0.4103  0.5819  1.3042
 8773TIP3    H247735   3.414   6.222   1.913 -0.4281 -1.4997 -0.4508
 8774TIP3   OH247736   6.546   1.086   3.916  0.2667  0.2578 -0.0972
 8774TIP3    H147737   6.528   1.011   3.860 -0.9258  2.8260 -3.5372
 8774TIP3    H247738   6.641   1.090   3.921  0.3593 -1.1567 -0.3041
 8775TIP3   OH247739   1.973   2.514  13.287  0.2677 -0.0202 -0.4505
 8775TIP3    H147740   1.941   2.535  13.374  0.3244  0.9917 -0.6606
 8775TIP3    H247741   1.896   2.488  13.238  0.3428 -1.3632  0.1018
 8776TIP3   OH247742   1.274   3.201  12.482  0.4203 -0.3040  0.6521
 8776TIP3    H147743   1.347   3.176  12.425  0.3021  0.6871  0.0462
 8776TIP3    H247744   1.254   3.291  12.457 -0.5866 -0.3464  1.2686
 8777TIP3   OH247745   2.292   3.671  12.296  0.0942  0.1134  0.5353
 8777TIP3    H147746   2.245   3.614  12.357  1.9341 -1.3151  0.7329
 8777TIP3    H247747   2.290   3.625  12.213 -1.9868  1.8287 -0.4391
 8778TIP3   OH247748   5.419   5.313  16.158 -0.0375  0.2199  0.1734
 8778TIP3    H147749   5.455   5.357  16.080 -1.1368 -0.5772 -0.8330
 8778TIP3    H247750   5.484   5.247  16.181  0.5827  0.8671  0.3202
 8779TIP3   OH247751   3.108   0.121  14.903 -0.0328 -0.0393 -0.0191
 8779TIP3    H147752   3.013   0.114  14.893 -0.0904  0.7200 -0.0842
 8779TIP3    H247753   3.128   0.212  14.878  0.7392 -0.2669 -0.2502
 8780TIP3   OH247754   4.710   6.324   6.177  0.1187  0.4099 -0.4056
 8780TIP3    H147755   4.711   6.289   6.087 -3.1286  1.3096 -0.9222
 8780TIP3    H247756   4.678   6.251   6.230 -2.0099  1.0524 -0.7202
 8781TIP3   OH247757   4.395   6.129  11.599 -0.1079 -0.0613 -0.1592
 8781TIP3    H147758   4.423   6.043  11.630 -0.8032 -0.6581 -1.1069
 8781TIP3    H247759   4.300   6.129  11.609 -0.0043  1.1103  1.0287
 8782TIP3   OH247760   2.843   4.339   3.473  0.0270  0.0517 -0.3494
 8782TIP3    H147761   2.825   4.414   3.416  0.4921  0.4245 -0.0115
 8782TIP3    H247762   2.786   4.353   3.549 -1.6782 -1.1906 -1.3193
 8783TIP3   OH247763   4.623   6.450   1.363  0.0357  0.2202 -0.5653
 8783TIP3    H147764   4.693   6.408   1.312 -1.9062 -1.9306 -1.6512
 8783TIP3    H247765   4.648   6.436   1.454 -0.4961 -3.6178 -0.8353
 8784TIP3   OH247766   6.334   3.150   3.988  0.4050 -0.2091 -0.0967
 8784TIP3    H147767   6.249   3.190   3.973  0.9886  0.9933 -0.3267
 8784TIP3    H247768   6.357   3.108   3.905  0.1430 -0.3484 -0.1001
 8785TIP3   OH247769   1.647   2.567  16.006 -0.0109 -0.3522 -0.3287
 8785TIP3    H147770   1.669   2.636  16.068 -1.2865  0.6455 -0.9322
 8785TIP3    H247771   1.690   2.592  15.924 -0.5895 -0.1751 -0.5881
 8786TIP3   OH247772   2.307   2.198  16.136  0.2626  0.3177 -0.0097
 8786TIP3    H147773   2.297   2.292  16.148 -1.1655  0.5690 -2.6093
 8786TIP3    H247774   2.220   2.162  16.153  1.1855 -0.8727  2.8372
 8787TIP3   OH247775   0.703   6.460  11.895  0.2428 -0.4035 -0.3782
 8787TIP3    H147776   0.629   6.407  11.925  0.8942 -0.2448  1.6865
 8787TIP3    H247777   0.680   6.550  11.921  0.8472 -0.2515 -0.3558
 8788TIP3   OH247778   4.274   3.031   0.022  0.2512 -0.5122 -0.2914
 8788TIP3    H147779   4.351   2.979   0.046  0.8312  0.4366 -0.0106
 8788TIP3    H247780   4.205   2.967   0.007  0.5041 -1.2989  1.5945
 8789TIP3   OH247781   3.414   2.657   3.589  0.1676  0.4230 -0.1402
 8789TIP3    H147782   3.352   2.669   3.661  0.5711  0.0028  0.2862
 8789TIP3    H247783   3.485   2.606   3.628  0.8978  1.1156 -0.5638
 8790TIP3   OH247784   4.520   2.093  14.257 -0.7548 -0.4829  0.5164
 8790TIP3    H147785   4.528   2.004  14.223  0.4589 -0.3012  0.2631
 8790TIP3    H247786   4.459   2.137  14.198 -0.8475 -0.9695  0.2502
 8791TIP3   OH247787   1.877   3.897   2.850 -0.5267 -0.0688 -0.1191
 8791TIP3    H147788   1.813   3.844   2.802 -0.8299 -0.9618  1.2284
 8791TIP3    H247789   1.832   3.979   2.867 -0.6335  0.0226 -0.8286
 8792TIP3   OH247790   1.745   3.947   3.170 -0.2525 -0.6505 -0.4893
 8792TIP3    H147791   1.662   3.935   3.217 -0.1685 -1.2987 -0.5022
 8792TIP3    H247792   1.728   4.021   3.111  0.3764  1.8915  2.2656
 8793TIP3   OH247793   0.424   6.415   3.743 -0.1866 -0.0966  0.1090
 8793TIP3    H147794   0.450   6.490   3.796  1.2534 -1.0128  0.7340
 8793TIP3    H247795   0.340   6.388   3.780  0.8771 -0.8349  2.1117
 8794TIP3   OH247796   2.473   1.968  16.635  0.5553 -0.2073 -0.5962
 8794TIP3    H147797   2.520   1.900  16.586  0.9454 -0.5368  0.2234
 8794TIP3    H247798   2.399   1.991  16.578 -0.4873 -2.4120 -0.2526
 8795TIP3   OH247799   0.381   4.157   4.042  0.0869 -0.2899 -0.0420
 8795TIP3    H147800   0.387   4.065   4.066 -1.3849  0.2188  2.7526
 8795TIP3    H247801   0.287   4.174   4.034  0.3077  1.0568 -0.0178
 8796TIP3   OH247802   3.802   3.997   2.446 -0.3142  0.6673  0.6376
 8796TIP3    H147803   3.897   3.991   2.444 -0.3498 -1.0849  1.5977
 8796TIP3    H247804   3.784   4.069   2.506  0.4179  0.4167  1.1742
 8797TIP3   OH247805   6.589   2.835  16.000  0.2095 -0.2154  0.6270
 8797TIP3    H147806   6.570   2.872  15.914  0.1688 -1.8048 -0.0684
 8797TIP3    H247807   6.676   2.869  16.022  0.7084 -0.6909 -0.5530
 8798TIP3   OH247808   4.478   2.173   1.256 -0.3021 -0.4746 -0.7197
 8798TIP3    H147809   4.473   2.179   1.352  0.4188  2.6102 -0.7633
 8798TIP3    H247810   4.570   2.157   1.238 -0.1129  0.7396 -0.8961
 8799TIP3   OH247811   4.123   4.499   2.617 -0.0406 -0.7741  0.3787
 8799TIP3    H147812   4.126   4.465   2.527 -0.7751  1.5175 -0.5828
 8799TIP3    H247813   4.133   4.421   2.672  0.0044 -2.3086 -1.6686
 8800TIP3   OH247814   1.538   6.572   3.688 -0.5655  0.2544 -0.6007
 8800TIP3    H147815   1.457   6.608   3.726 -0.4244  0.4043 -0.4377
 8800TIP3    H247816   1.605   6.637   3.710  0.0261 -0.8601  1.0983
 8801TIP3   OH247817   3.523   2.584   2.509 -0.0309  0.2288 -0.4413
 8801TIP3    H147818   3.600   2.550   2.465  0.5575 -0.4756  1.0748
 8801TIP3    H247819   3.554   2.612   2.595 -1.7213 -1.6361  0.8718
 8802TIP3   OH247820   3.277   3.347  11.615 -0.4073 -0.7274 -0.0778
 8802TIP3    H147821   3.202   3.338  11.556 -1.7642 -0.8914  1.5725
 8802TIP3    H247822   3.277   3.265  11.665  1.9576 -1.4818 -1.1745
 8803TIP3   OH247823   3.163   1.256   0.423  0.0295  0.1029  0.3514
 8803TIP3    H147824   3.160   1.339   0.375  0.0047  0.0363  0.2367
 8803TIP3    H247825   3.156   1.189   0.355  0.9206 -0.0089  0.3524
 8804TIP3   OH247826   3.598   1.665   2.774  0.1342  0.1926 -0.0634
 8804TIP3    H147827   3.553   1.700   2.697 -0.1032  1.4457  0.6087
 8804TIP3    H247828   3.690   1.688   2.761 -0.0112  1.0594  0.3437
 8805TIP3   OH247829   5.635   4.781  15.439  0.8225 -0.2005  0.4036
 8805TIP3    H147830   5.600   4.787  15.350 -0.6609 -1.7603  0.8225
 8805TIP3    H247831   5.728   4.801  15.429  0.6226  0.0487 -1.4222
 8806TIP3   OH247832   3.486   0.683  13.143  0.4095 -0.4257  0.0190
 8806TIP3    H147833   3.574   0.711  13.168  0.3073 -0.6986  0.6755
 8806TIP3    H247834   3.430   0.711  13.215  0.3761 -2.8149  1.0081
 8807TIP3   OH247835   1.757   2.130  12.714 -0.0041 -0.0947  0.2974
 8807TIP3    H147836   1.743   2.051  12.663 -0.5107  0.3527 -0.2832
 8807TIP3    H247837   1.674   2.177  12.709  0.3375  0.5533  0.4965
 8808TIP3   OH247838   6.063   2.388   5.616  0.0478 -0.2724  0.2801
 8808TIP3    H147839   6.085   2.379   5.709 -1.8810 -0.3583  0.7851
 8808TIP3    H247840   6.073   2.299   5.581 -0.4515 -0.5122  0.7230
 8809TIP3   OH247841   2.438   6.243   0.899 -0.8287 -0.8631 -0.3003
 8809TIP3    H147842   2.361   6.299   0.907  0.1718  0.3888  1.4045
 8809TIP3    H247843   2.439   6.192   0.980 -0.4666 -1.6746 -0.8070
 8810TIP3   OH247844   1.343   6.405  11.029 -0.6415  0.0127 -0.1230
 8810TIP3    H147845   1.270   6.453  11.067 -1.8914 -1.1981 -0.9131
 8810TIP3    H247846   1.404   6.473  11.002 -1.4514  1.0533  0.5592
 8811TIP3   OH247847   0.367   6.393   5.825  0.4961 -0.3801 -0.2143
 8811TIP3    H147848   0.405   6.433   5.746 -1.8129  1.0067 -0.7358
 8811TIP3    H247849   0.282   6.436   5.834  0.5442 -0.7673  2.8788
 8812TIP3   OH247850   4.363   4.626   5.677  0.1535 -0.1902  0.0234
 8812TIP3    H147851   4.311   4.593   5.751  0.8743  0.6427  0.9213
 8812TIP3    H247852   4.418   4.552   5.652 -0.0761 -0.4723  0.3330
 8813TIP3   OH247853   1.852   2.620   5.236  0.1309 -0.0005  0.2565
 8813TIP3    H147854   1.768   2.575   5.247  0.4477 -0.3974  1.2578
 8813TIP3    H247855   1.833   2.693   5.178 -0.9493  0.0208  0.6150
 8814TIP3   OH247856   0.020   4.074  14.642 -0.0810  0.2986  0.8534
 8814TIP3    H147857  -0.048   4.132  14.675  0.7075  0.7799  1.6838
 8814TIP3    H247858  -0.008   3.986  14.669 -2.9144 -0.2861 -3.0697
 8815TIP3   OH247859   6.083   4.535  16.630  0.1318 -0.4035  0.2531
 8815TIP3    H147860   5.998   4.549  16.589  0.5629 -1.4432 -1.0575
 8815TIP3    H247861   6.125   4.468  16.576  2.1341  0.7008  0.3334
 8816TIP3   OH247862   5.282   2.078   4.505 -0.8808  0.5450  0.1267
 8816TIP3    H147863   5.222   2.011   4.537  0.2109  1.0831  3.7425
 8816TIP3    H247864   5.364   2.031   4.488 -1.0613  0.4892 -0.6475
 8817TIP3   OH247865   1.839   5.255  11.423  0.3346  0.6664 -0.0007
 8817TIP3    H147866   1.821   5.162  11.435  2.0284  0.0813 -1.5604
 8817TIP3    H247867   1.927   5.258  11.387  0.1010  2.8582 -0.5270
 8818TIP3   OH247868   2.233   2.080  13.369 -0.0522 -0.3740  0.0843
 8818TIP3    H147869   2.190   2.165  13.378 -2.0118 -1.4372  1.4368
 8818TIP3    H247870   2.228   2.061  13.275 -1.4196  0.1138  0.0343
 8819TIP3   OH247871   3.026   6.222  17.068  0.8557 -0.7862 -0.3494
 8819TIP3    H147872   3.043   6.169  17.146  2.0449  0.2392  0.1182
 8819TIP3    H247873   3.085   6.297  17.077  0.6607 -0.4054 -1.9964
 8820TIP3   OH247874   3.614   2.722  12.355  0.1608  0.0385 -0.2536
 8820TIP3    H147875   3.600   2.645  12.300  1.8386  0.5056 -1.4173
 8820TIP3    H247876   3.551   2.786  12.322 -0.3027 -0.3764 -0.1896
 8821TIP3   OH247877   6.329   6.645  11.328  0.8890 -0.0402 -0.1554
 8821TIP3    H147878   6.287   6.730  11.344 -1.1348 -0.9861 -0.1208
 8821TIP3    H247879   6.383   6.630  11.405 -1.5307 -0.3468  1.5916
 8822TIP3   OH247880   6.742   1.870  14.149 -0.2513  0.0671  0.7666
 8822TIP3    H147881   6.807   1.847  14.215  1.1095 -1.6075 -1.0189
 8822TIP3    H247882   6.763   1.961  14.126  2.0619 -0.6462 -0.2962
 8823TIP3   OH247883   1.369   3.533   0.711 -0.1574 -0.3834  0.4431
 8823TIP3    H147884   1.393   3.540   0.619 -0.5110 -0.3447  0.3513
 8823TIP3    H247885   1.309   3.458   0.715 -1.4802  0.6239  0.3538
 8824TIP3   OH247886   4.004   0.731  15.425 -0.5480 -0.6295  0.0193
 8824TIP3    H147887   3.946   0.803  15.449 -0.6879 -1.2295  1.5843
 8824TIP3    H247888   4.033   0.753  15.337 -0.8569  1.1570  0.3164
 8825TIP3   OH247889   6.396   2.349   5.653  0.1904  0.4341 -0.2909
 8825TIP3    H147890   6.448   2.412   5.603  0.2140  0.5256 -0.1508
 8825TIP3    H247891   6.320   2.399   5.682  1.5314  1.1951  2.1993
 8826TIP3   OH247892   6.104   3.828   4.984 -0.1403  0.1315 -0.2143
 8826TIP3    H147893   6.083   3.777   5.062 -1.1023  0.2767 -0.3705
 8826TIP3    H247894   6.042   3.798   4.918  0.3771  0.3288 -0.7984
 8827TIP3   OH247895   4.999   5.343  10.984 -0.0605  0.2858  0.0324
 8827TIP3    H147896   4.948   5.355  11.064  0.4744  0.4927  0.3465
 8827TIP3    H247897   4.942   5.291  10.927  0.0965 -1.0839  1.0789
 8828TIP3   OH247898   0.046   0.447   5.470  0.8967 -0.1649  0.3035
 8828TIP3    H147899  -0.001   0.439   5.387  2.7101  0.3411 -0.8346
 8828TIP3    H247900   0.048   0.541   5.488  0.5199 -0.2722  0.9261
 8829TIP3   OH247901   1.155   1.194  14.125  0.0893 -0.4632 -0.0340
 8829TIP3    H147902   1.135   1.277  14.083  0.4627  0.4154  1.4510
 8829TIP3    H247903   1.250   1.189  14.125  0.0699 -0.8947 -0.1110
 8830TIP3   OH247904   6.539   1.001  11.602  0.3747 -0.1476  0.1106
 8830TIP3    H147905   6.549   1.088  11.641 -0.9419 -0.6208  1.5995
 8830TIP3    H247906   6.598   1.002  11.526 -1.1014  2.7682 -1.1685
 8831TIP3   OH247907   4.947   3.172   0.171  0.5160  0.1338 -0.1443
 8831TIP3    H147908   5.011   3.179   0.100 -0.2699  1.3798 -0.7739
 8831TIP3    H247909   4.864   3.197   0.131 -0.2812 -0.9042  0.7938
 8832TIP3   OH247910   6.020   3.187   4.016 -0.5286  0.1197  0.3065
 8832TIP3    H147911   6.031   3.247   3.943  0.8456  0.4026  0.7145
 8832TIP3    H247912   5.961   3.232   4.076  3.5779  3.1163  2.5833
 8833TIP3   OH247913   0.350   3.642  15.336  0.1444  0.4177  0.2967
 8833TIP3    H147914   0.396   3.612  15.258  0.8391 -0.5186  1.0318
 8833TIP3    H247915   0.395   3.598  15.408 -1.3801  0.1419  1.1226
 8834TIP3   OH247916   0.283   5.440   2.037  0.0865  0.0363 -0.4696
 8834TIP3    H147917   0.295   5.533   2.057  1.6793 -0.2649  0.1598
 8834TIP3    H247918   0.319   5.429   1.949  0.6828 -0.1306 -0.2078
 8835TIP3   OH247919   3.290   4.189  11.340  0.0392 -0.1630  0.4489
 8835TIP3    H147920   3.289   4.161  11.249 -0.3496  2.2184 -0.3415
 8835TIP3    H247921   3.353   4.130  11.383  0.6178 -0.9888 -1.4313
 8836TIP3   OH247922   0.426   1.022  14.043 -0.4370 -0.9929 -0.1156
 8836TIP3    H147923   0.515   1.052  14.063 -0.7970 -0.7398  1.1989
 8836TIP3    H247924   0.398   1.077  13.970  0.8079 -1.7142 -1.1924
 8837TIP3   OH247925   3.191   5.290  15.867 -0.7986 -0.6036  0.0893
 8837TIP3    H147926   3.253   5.329  15.805 -2.6729 -0.9761 -2.1444
 8837TIP3    H247927   3.207   5.196  15.861 -2.1820 -0.7882 -1.2761
 8838TIP3   OH247928   6.552   1.379  11.195  0.2100 -0.2766 -0.3516
 8838TIP3    H147929   6.592   1.343  11.116 -0.0256 -0.3600 -0.4355
 8838TIP3    H247930   6.609   1.352  11.267 -0.3653 -1.4788 -0.3244
 8839TIP3   OH247931   4.082   6.172   5.772 -0.4945 -0.4176  0.2356
 8839TIP3    H147932   4.000   6.122   5.769 -0.1072 -1.1434  1.1634
 8839TIP3    H247933   4.139   6.120   5.829  0.2472  0.6208  0.4572
 8840TIP3   OH247934   2.312   1.802   3.971 -0.3009 -0.1057  0.1154
 8840TIP3    H147935   2.254   1.815   4.047  0.2266  1.4148  0.2819
 8840TIP3    H247936   2.252   1.786   3.898 -0.8702 -0.1546  0.5824
 8841TIP3   OH247937   1.901   5.212  15.148  0.2319 -0.1885  0.2047
 8841TIP3    H147938   1.820   5.204  15.199 -0.4737  2.4880 -0.3119
 8841TIP3    H247939   1.871   5.236  15.060  1.5491  0.8487 -0.0008
 8842TIP3   OH247940   5.780   1.914   1.415  0.0241 -0.4473 -0.2284
 8842TIP3    H147941   5.786   1.982   1.483  1.7197 -1.0054  0.2301
 8842TIP3    H247942   5.817   1.956   1.337 -1.2074 -0.0604 -0.6192
 8843TIP3   OH247943   4.628   4.277   3.378 -0.3345 -0.8572  0.5747
 8843TIP3    H147944   4.618   4.346   3.313  2.4196 -0.4985  0.4107
 8843TIP3    H247945   4.601   4.197   3.334  0.2114 -0.4194 -0.5839
 8844TIP3   OH247946   3.580   5.047  15.891 -0.0348 -0.1028  0.2215
 8844TIP3    H147947   3.635   5.049  15.813  1.0101 -0.1529  0.9368
 8844TIP3    H247948   3.559   4.955  15.904  0.6117 -0.2125  0.5429
 8845TIP3   OH247949   0.232   4.652  14.418  0.2530 -0.4050 -0.7024
 8845TIP3    H147950   0.261   4.620  14.503  0.3020  0.5936 -0.3278
 8845TIP3    H247951   0.210   4.744  14.433 -0.5888 -0.4446 -1.5695
 8846TIP3   OH247952   6.285   0.134   6.370  0.3581 -0.5122 -0.5083
 8846TIP3    H147953   6.373   0.114   6.403  0.7490 -0.9272 -1.7500
 8846TIP3    H247954   6.255   0.053   6.329 -1.1771 -0.7831  1.0569
 8847TIP3   OH247955   3.019   1.478   1.106 -0.4226 -0.2633 -0.5211
 8847TIP3    H147956   3.002   1.430   1.187 -0.0170 -1.1858 -0.9686
 8847TIP3    H247957   2.978   1.425   1.038 -1.2498  0.7895 -0.8806
 8848TIP3   OH247958   2.655   3.777   0.795 -0.3177  0.0931  0.0876
 8848TIP3    H147959   2.711   3.700   0.799 -1.6093 -0.8441  0.7557
 8848TIP3    H247960   2.572   3.750   0.835 -0.6200  1.9939  0.8926
 8849TIP3   OH247961   6.758   5.926  14.025 -0.4691  0.1737 -1.3411
 8849TIP3    H147962   6.802   5.981  13.961 -1.2365  0.6817 -1.4476
 8849TIP3    H247963   6.739   5.845  13.978 -3.4591  1.4928 -2.7201
 8850TIP3   OH247964   3.138   4.790   3.498 -0.2438 -0.2138  0.1782
 8850TIP3    H147965   3.188   4.870   3.513 -0.4787 -0.0176 -0.0600
 8850TIP3    H247966   3.100   4.802   3.411 -1.3977  0.0109  0.6963
 8851TIP3   OH247967   5.345   5.836  17.069  0.6016  0.3635  0.0980
 8851TIP3    H147968   5.325   5.912  17.015 -1.5503 -0.4045 -0.3208
 8851TIP3    H247969   5.304   5.855  17.153  0.0631 -0.2934 -0.0046
 8852TIP3   OH247970   6.252   6.009  13.975 -0.0545 -0.3413  0.0944
 8852TIP3    H147971   6.235   5.917  13.956  0.7653 -0.5572  0.3792
 8852TIP3    H247972   6.311   6.008  14.050  2.0229  0.3092 -1.4023
 8853TIP3   OH247973   6.474   1.719   4.658 -0.3463  0.1135  0.5465
 8853TIP3    H147974   6.420   1.689   4.585  1.7824 -0.1961 -0.9961
 8853TIP3    H247975   6.484   1.813   4.643 -0.8203  0.2594  1.1045
 8854TIP3   OH247976   0.153   3.816  12.476 -0.2286 -0.4777 -0.0220
 8854TIP3    H147977   0.146   3.722  12.457  1.9612 -0.7471  0.2372
 8854TIP3    H247978   0.162   3.820  12.571  2.1227 -0.2377 -0.2132
 8855TIP3   OH247979   3.596   4.875   4.271  0.1409  0.4858 -0.9039
 8855TIP3    H147980   3.517   4.852   4.319 -0.0400  0.1036 -1.3772
 8855TIP3    H247981   3.627   4.955   4.312  3.3354 -2.7207  4.0293
 8856TIP3   OH247982   3.310   4.944  16.916  0.1789  0.0050 -0.3253
 8856TIP3    H147983   3.304   4.905  16.829  0.1215 -0.7238  0.0030
 8856TIP3    H247984   3.402   4.937  16.939  0.1169 -0.2255 -0.1389
 8857TIP3   OH247985   5.133   6.047  13.277  0.0830 -0.3424 -1.2145
 8857TIP3    H147986   5.091   5.962  13.263  0.5946 -0.6920 -0.6899
 8857TIP3    H247987   5.172   6.040  13.365  0.4719  0.2908 -1.3295
 8858TIP3   OH247988   3.491   1.985   0.194 -0.3295 -0.0502  0.3372
 8858TIP3    H147989   3.564   2.012   0.138 -0.9902 -0.7861 -0.9311
 8858TIP3    H247990   3.417   2.038   0.165 -0.6595 -0.3799  0.5621
 8859TIP3   OH247991   3.905   4.451  12.870 -0.5107 -1.0170 -0.2995
 8859TIP3    H147992   3.926   4.369  12.824 -0.0248 -0.5736 -0.8893
 8859TIP3    H247993   3.985   4.503  12.862 -0.1893 -1.1682  1.6233
 8860TIP3   OH247994   3.582   0.527   2.427 -0.0473 -0.5588  0.1772
 8860TIP3    H147995   3.663   0.518   2.477 -0.1493 -0.3384  0.3865
 8860TIP3    H247996   3.579   0.620   2.404 -1.3988 -0.0409  2.1734
 8861TIP3   OH247997   2.767   0.360  13.203  0.3636 -0.4599  0.0136
 8861TIP3    H147998   2.735   0.448  13.223 -0.0179 -0.4438 -0.6324
 8861TIP3    H247999   2.828   0.373  13.129  0.3005 -0.7351 -0.0893
 8862TIP3   OH248000   0.837   6.748  11.580  0.3167 -0.1685  0.4615
 8862TIP3    H148001   0.815   6.667  11.533 -1.6527  0.5953 -0.0160
 8862TIP3    H248002   0.888   6.718  11.656  2.1338 -1.5734 -1.2061
 8863TIP3   OH248003   4.404   1.529  14.390 -0.0497  0.5324  0.2613
 8863TIP3    H148004   4.401   1.436  14.411  1.1871  0.4357  0.0825
 8863TIP3    H248005   4.402   1.532  14.294 -1.3877  0.7611  0.2878
 8864TIP3   OH248006   4.594   3.771   2.509 -0.1218 -0.0309  0.0770
 8864TIP3    H148007   4.650   3.840   2.476 -0.7008  2.5090  3.8354
 8864TIP3    H248008   4.532   3.815   2.567 -2.8588 -3.3036 -0.0354
 8865TIP3   OH248009   4.939   3.070  15.746 -0.2600  0.2036  0.0884
 8865TIP3    H148010   4.944   3.113  15.831  1.5200  0.1469  0.0583
 8865TIP3    H248011   4.969   3.136  15.684 -0.1713 -0.2022 -0.3081
 8866TIP3   OH248012   0.752   2.928   0.946  0.0763 -0.2291  0.3316
 8866TIP3    H148013   0.662   2.947   0.921 -0.0496 -1.1690  0.0311
 8866TIP3    H248014   0.775   2.850   0.896  0.9579 -0.1770  0.6338
 8867TIP3   OH248015   4.498   4.956   3.094  0.5966 -0.4627  0.2885
 8867TIP3    H148016   4.525   4.948   3.002 -2.6019 -0.1897 -0.8299
 8867TIP3    H248017   4.530   5.042   3.121  1.3080 -0.4035 -0.6832
 8868TIP3   OH248018   2.702   1.578   1.593 -0.1090 -0.7938 -0.2896
 8868TIP3    H148019   2.635   1.647   1.595  0.0992 -0.5455 -1.2490
 8868TIP3    H248020   2.701   1.542   1.681 -0.8506 -0.1609 -0.0188
 8869TIP3   OH248021   4.672   3.256   2.647 -0.3806  0.0048 -0.0211
 8869TIP3    H148022   4.656   3.348   2.624 -0.1694  0.4117  1.3364
 8869TIP3    H248023   4.705   3.260   2.737  1.4994 -1.2784 -0.6050
 8870TIP3   OH248024   3.174   5.777  13.325 -0.3392  0.4596 -0.1415
 8870TIP3    H148025   3.218   5.709  13.377 -2.0828 -0.2700  0.4447
 8870TIP3    H248026   3.170   5.740  13.236 -0.4644  0.1989 -0.0283
 8871TIP3   OH248027   5.589   6.425  11.492 -0.5465 -0.5140 -0.6361
 8871TIP3    H148028   5.673   6.416  11.446  0.1777  0.1883  0.4957
 8871TIP3    H248029   5.578   6.519  11.504 -0.2905 -0.6916  1.3215
 8872TIP3   OH248030   0.167   5.818   2.596 -0.1419 -0.1257  0.3734
 8872TIP3    H148031   0.211   5.902   2.584 -2.5222  1.0621 -0.6839
 8872TIP3    H248032   0.103   5.834   2.665  0.0410 -1.3853  0.8649
 8873TIP3   OH248033   5.070   3.838   6.228  0.4085 -0.3792 -0.3100
 8873TIP3    H148034   4.992   3.893   6.240  0.6052 -0.4263  1.3838
 8873TIP3    H248035   5.056   3.764   6.286  0.9545 -1.2708 -1.2790
 8874TIP3   OH248036   1.827   5.693  16.671 -0.4764 -0.5394  0.0934
 8874TIP3    H148037   1.812   5.668  16.762 -0.9939  0.6099  0.3387
 8874TIP3    H248038   1.861   5.782  16.675  3.3732 -1.7833 -0.6401
 8875TIP3   OH248039   2.927   2.578  10.824  0.5724 -0.2594  0.8170
 8875TIP3    H148040   3.006   2.630  10.809  0.5712 -0.0580  1.4875
 8875TIP3    H248041   2.870   2.634  10.876  0.0888 -0.5021  0.5549
 8876TIP3   OH248042   2.631   0.362   2.479  0.1874 -0.0068 -0.3220
 8876TIP3    H148043   2.645   0.400   2.565 -4.2137  1.1143  0.1474
 8876TIP3    H248044   2.613   0.269   2.496 -0.9249  0.2645  0.0746
 8877TIP3   OH248045   3.193   1.454  14.395  0.0774 -0.2235 -0.6232
 8877TIP3    H148046   3.267   1.402  14.362  0.5548  0.8712 -1.3340
 8877TIP3    H248047   3.145   1.394  14.452  1.6238 -0.9038  0.0088
 8878TIP3   OH248048   1.370   3.795   3.702 -0.0198  0.3476  0.2426
 8878TIP3    H148049   1.277   3.811   3.717 -0.2881  0.1042 -1.0634
 8878TIP3    H248050   1.392   3.846   3.625  0.1655 -1.9712 -1.3398
 8879TIP3   OH248051   0.909   3.988  13.284 -0.2736  0.2004  0.2743
 8879TIP3    H148052   1.000   4.011  13.300 -0.1676 -0.7085  1.0886
 8879TIP3    H248053   0.904   3.894  13.303 -1.5673  0.4121  1.1423
 8880TIP3   OH248054   5.222   6.662  13.787 -0.4181  0.0971  0.3182
 8880TIP3    H148055   5.230   6.612  13.868 -0.5336  0.5432  0.6102
 8880TIP3    H248056   5.129   6.655  13.764 -0.2621 -0.5836 -0.1430
 8881TIP3   OH248057   6.298   0.504   4.837  0.1322  0.7813 -0.0535
 8881TIP3    H148058   6.351   0.515   4.758  1.1492 -1.7134  0.1791
 8881TIP3    H248059   6.357   0.525   4.909  1.0780 -2.3228  0.2244
 8882TIP3   OH248060   6.559   4.339   6.537  0.2444  0.0884 -0.3356
 8882TIP3    H148061   6.532   4.429   6.520  1.7380  0.4413 -0.9872
 8882TIP3    H248062   6.546   4.294   6.454  0.3287 -0.0895 -0.2519
 8883TIP3   OH248063   6.057   1.452   2.065  0.4063 -0.3040 -0.0609
 8883TIP3    H148064   6.026   1.521   2.006 -1.4495 -0.0035  1.1869
 8883TIP3    H248065   6.104   1.499   2.134  1.4377 -0.5476 -0.5746
 8884TIP3   OH248066   3.604   5.547  10.948  0.5151  0.0687  0.3084
 8884TIP3    H148067   3.530   5.542  10.888  0.5932  0.9923  0.1129
 8884TIP3    H248068   3.663   5.611  10.908  0.9428  0.0915  0.9616
 8885TIP3   OH248069   2.591   1.703   3.978  0.0035  0.7981  0.3408
 8885TIP3    H148070   2.566   1.611   3.975  0.1363  0.4115  4.8628
 8885TIP3    H248071   2.507   1.750   3.973 -0.5284  0.1490  2.3137
 8886TIP3   OH248072   3.891   2.947   0.043  0.5094  0.3062 -0.2689
 8886TIP3    H148073   3.862   3.027  -0.001  0.8382  0.4068 -0.3093
 8886TIP3    H248074   3.960   2.912  -0.013 -0.0113 -0.3118 -0.5345
 8887TIP3   OH248075   4.534   2.450  12.464 -0.3048 -0.0216  0.2652
 8887TIP3    H148076   4.546   2.510  12.391 -2.5416  0.1327 -0.0216
 8887TIP3    H248077   4.457   2.482  12.510 -0.6344 -1.7732  1.0142
 8888TIP3   OH248078   0.098   4.054   2.600 -0.6467  0.0293  0.1061
 8888TIP3    H148079   0.099   4.022   2.691 -0.6019 -1.7940 -0.5010
 8888TIP3    H248080   0.117   3.977   2.547  1.4929  1.4534 -1.3874
 8889TIP3   OH248081   4.482   1.270  14.416 -0.3078 -0.4771  0.0974
 8889TIP3    H148082   4.501   1.190  14.465 -0.6216  0.2728  1.5062
 8889TIP3    H248083   4.566   1.297  14.379 -0.5862 -2.7182 -2.4907
 8890TIP3   OH248084   0.710   6.084  11.584 -0.0466 -0.0112  0.2504
 8890TIP3    H148085   0.805   6.079  11.582 -0.0666 -1.9044  1.2154
 8890TIP3    H248086   0.685   6.046  11.668 -1.6780 -1.1817 -0.6735
 8891TIP3   OH248087   3.378   3.995  13.308 -0.3202 -0.0265 -0.4187
 8891TIP3    H148088   3.375   3.973  13.215  2.9795  0.1324 -0.6873
 8891TIP3    H248089   3.382   3.911  13.353  0.3064 -0.1063 -0.6112
 8892TIP3   OH248090   6.262   3.554   1.424 -0.8674  0.6116  0.1468
 8892TIP3    H148091   6.225   3.497   1.357 -0.8808  1.1335 -0.2925
 8892TIP3    H248092   6.356   3.545   1.414 -0.8471 -0.6276  1.1895
 8893TIP3   OH248093   2.478   3.790  13.085 -0.1983  0.2904  0.3231
 8893TIP3    H148094   2.420   3.778  13.009  0.7601  2.1010 -0.7583
 8893TIP3    H248095   2.418   3.789  13.160 -1.4724  0.6543 -0.6348
 8894TIP3   OH248096   4.201   0.518   0.964  0.3578  0.3744  0.2609
 8894TIP3    H148097   4.214   0.426   0.942 -1.8594  0.3985 -1.4808
 8894TIP3    H248098   4.204   0.520   1.060  2.1933 -1.1696  0.2917
 8895TIP3   OH248099   1.243   4.252  12.150 -0.4057  0.3055 -0.4587
 8895TIP3    H148100   1.167   4.232  12.095 -0.4527 -0.6329 -0.0824
 8895TIP3    H248101   1.279   4.166  12.172  0.8205  0.7413 -0.6983
 8896TIP3   OH248102   6.457   1.345  15.699 -0.0769  0.0266 -0.0796
 8896TIP3    H148103   6.470   1.284  15.626 -0.4665  1.1117 -1.0939
 8896TIP3    H248104   6.390   1.304  15.753  0.5633 -1.0266 -0.0557
 8897TIP3   OH248105   0.239   4.624  15.392  0.5639  0.5031 -0.2827
 8897TIP3    H148106   0.210   4.631  15.301  1.9445 -2.6104 -1.0757
 8897TIP3    H248107   0.331   4.651  15.390  0.6193  0.3573  0.1784
 8898TIP3   OH248108   3.274   1.540   4.959 -0.2348  0.0824 -0.3287
 8898TIP3    H148109   3.264   1.445   4.959 -2.6477  0.1943 -2.9844
 8898TIP3    H248110   3.351   1.556   4.905 -0.2944 -0.3920 -0.5632
 8899TIP3   OH248111   0.437   1.924   4.155  0.0250 -0.0226  0.1788
 8899TIP3    H148112   0.451   1.866   4.080 -0.6657 -0.1129  0.1105
 8899TIP3    H248113   0.469   2.010   4.126  1.4203 -0.4377  0.4217
 8900TIP3   OH248114   0.658   3.712  12.240  0.3679 -0.0645 -0.1193
 8900TIP3    H148115   0.687   3.633  12.193  0.7891  0.0015  0.0259
 8900TIP3    H248116   0.603   3.678  12.311  2.0079 -0.3869  1.0697
 8901TIP3   OH248117   1.200   2.358  13.533 -0.0916 -0.3839  0.1977
 8901TIP3    H148118   1.279   2.412  13.526 -0.7045  0.4338 -0.7194
 8901TIP3    H248119   1.165   2.380  13.619  1.4408 -1.8739  1.2561
 8902TIP3   OH248120   3.933   5.133   6.474 -0.0629 -0.3895 -0.7358
 8902TIP3    H148121   3.889   5.211   6.508 -1.2287 -0.9821 -0.8323
 8902TIP3    H248122   3.913   5.065   6.537  0.1482 -0.8284 -1.1398
 8903TIP3   OH248123   2.191   3.369   5.496 -0.1729  0.2433 -0.0492
 8903TIP3    H148124   2.136   3.337   5.425  0.5544 -0.3173 -0.3754
 8903TIP3    H248125   2.171   3.462   5.503 -1.2591  0.0231 -0.0627
 8904TIP3   OH248126   1.384   2.728   0.629  0.2119 -0.1374  0.1590
 8904TIP3    H148127   1.432   2.745   0.710  1.4785  0.2535 -0.6425
 8904TIP3    H248128   1.294   2.752   0.649  0.5262  0.0621  1.4185
 8905TIP3   OH248129   0.478   5.391   1.055 -0.4368  0.2089  0.0972
 8905TIP3    H148130   0.414   5.434   1.113 -0.0056  0.0201  0.7214
 8905TIP3    H248131   0.552   5.452   1.053 -1.3320  1.3507 -2.1281
 8906TIP3   OH248132   0.593   1.261   1.898  0.1534  0.2503  0.0521
 8906TIP3    H148133   0.566   1.294   1.812  0.9231 -0.9738 -0.6902
 8906TIP3    H248134   0.689   1.262   1.895  0.1857  0.0174  0.8369
 8907TIP3   OH248135   2.827   1.750   0.156 -0.6540 -0.1817 -0.3904
 8907TIP3    H148136   2.865   1.674   0.200 -0.3574 -0.1258 -0.5475
 8907TIP3    H248137   2.890   1.821   0.172 -0.6670 -0.1018 -0.6997
 8908TIP3   OH248138   4.477   4.292  15.970 -0.1858 -0.5132 -0.0591
 8908TIP3    H148139   4.447   4.210  16.010  1.0950 -0.5294  0.9360
 8908TIP3    H248140   4.549   4.265  15.913 -0.3646 -0.1878 -0.4375
 8909TIP3   OH248141   3.362   3.419   0.324 -0.4918  0.1867  0.0573
 8909TIP3    H148142   3.302   3.494   0.329 -0.2149  0.3204  3.9494
 8909TIP3    H248143   3.444   3.456   0.291 -0.7730  1.3182  0.5922
 8910TIP3   OH248144   1.412   3.100  13.050 -0.0276  0.6406  0.3544
 8910TIP3    H148145   1.349   3.160  13.088  0.2017  0.8502  0.4086
 8910TIP3    H248146   1.497   3.142  13.064  0.0280  0.9258 -0.7821
 8911TIP3   OH248147   1.715   6.387  13.605  0.1913 -0.1754  0.5390
 8911TIP3    H148148   1.722   6.337  13.523  0.2946 -1.7692  1.4626
 8911TIP3    H248149   1.622   6.408  13.614 -0.1959 -1.9202  1.0456
 8912TIP3   OH248150   6.027   1.254  16.748  0.3715  0.2298  0.0700
 8912TIP3    H148151   5.948   1.200  16.739 -1.1149  2.1323  0.9349
 8912TIP3    H248152   6.022   1.287  16.838  1.6498  1.1678 -0.1899
 8913TIP3   OH248153   5.362   3.370   1.931 -0.6416 -0.2126  0.0705
 8913TIP3    H148154   5.453   3.362   1.902 -0.3180 -1.5454  1.3587
 8913TIP3    H248155   5.368   3.399   2.022 -1.4829 -0.7659  0.3150
 8914TIP3   OH248156   2.508   5.175   1.842 -0.6219  0.0985  0.0101
 8914TIP3    H148157   2.424   5.149   1.806  0.2523 -0.6638 -1.5989
 8914TIP3    H248158   2.532   5.103   1.901 -0.1430 -0.7487 -1.1845
 8915TIP3   OH248159   2.856   4.080  16.751  0.4505  0.4278 -0.3405
 8915TIP3    H148160   2.860   4.172  16.727  1.8523  0.3670 -0.4390
 8915TIP3    H248161   2.911   4.036  16.686  2.3448 -0.0459  1.4714
 8916TIP3   OH248162   1.911   2.376   4.136 -0.9517  0.3033 -0.1927
 8916TIP3    H148163   1.831   2.377   4.188 -1.8896  0.4485 -1.6128
 8916TIP3    H248164   1.933   2.283   4.128 -3.0933 -0.0996 -2.8745
 8917TIP3   OH248165   2.782   5.172   3.998 -0.1617  0.3334  0.1030
 8917TIP3    H148166   2.707   5.116   3.982 -0.5090  0.7004  0.4510
 8917TIP3    H248167   2.855   5.126   3.956 -0.6160  0.0894 -0.4365
 8918TIP3   OH248168   5.061   1.882  15.138 -0.2031 -0.1209  0.0012
 8918TIP3    H148169   4.986   1.829  15.164 -0.8496  0.3798 -0.8077
 8918TIP3    H248170   5.023   1.963  15.104  0.5760 -0.6572 -2.3460
 8919TIP3   OH248171   0.367   4.554   3.949 -0.5963 -0.2473  0.2515
 8919TIP3    H148172   0.437   4.605   3.909 -0.1722 -0.4989  0.6587
 8919TIP3    H248173   0.293   4.614   3.954 -0.9233 -0.4524 -1.6358
 8920TIP3   OH248174   4.374   3.054  16.018 -0.7718 -0.0791  0.2252
 8920TIP3    H148175   4.334   3.045  15.931  1.1699  2.6966 -1.1036
 8920TIP3    H248176   4.302   3.041  16.079 -2.4865 -0.8067 -1.8154
 8921TIP3   OH248177   6.184   0.262   2.793 -0.1114  0.0800  0.1262
 8921TIP3    H148178   6.151   0.174   2.774 -0.0687 -0.2211  1.3595
 8921TIP3    H248179   6.127   0.320   2.743  0.6545 -0.6831 -1.7517
 8922TIP3   OH248180   3.613   5.357   6.155 -0.8014 -0.8468 -0.3310
 8922TIP3    H148181   3.627   5.451   6.165 -0.7836 -0.8603 -0.2295
 8922TIP3    H248182   3.527   5.349   6.115 -0.3385 -0.7424 -1.3887
 8923TIP3   OH248183   6.456   5.228  10.606 -0.0901 -0.0373 -0.5376
 8923TIP3    H148184   6.455   5.320  10.580 -0.4935 -0.0379 -0.5402
 8923TIP3    H248185   6.365   5.210  10.630 -0.1651 -0.6387 -1.2516
 8924TIP3   OH248186   0.679   4.977  14.734  0.1729  0.4155  0.2919
 8924TIP3    H148187   0.742   4.918  14.775  0.2457  0.4140  0.1786
 8924TIP3    H248188   0.716   5.064  14.745  0.9486  0.2978 -1.0744
 8925TIP3   OH248189   3.747   5.471  13.845 -0.1386  0.3216 -0.6820
 8925TIP3    H148190   3.663   5.516  13.837  0.0346  0.7143 -0.3427
 8925TIP3    H248191   3.807   5.538  13.878  0.1056 -0.1838 -0.0911
 8926TIP3   OH248192   3.474   4.615  13.136  0.5080 -0.1230 -0.5035
 8926TIP3    H148193   3.395   4.564  13.116  0.5954 -0.6187  0.3517
 8926TIP3    H248194   3.546   4.562  13.102  0.7210 -1.3507  1.6737
 8927TIP3   OH248195   6.358   4.328   5.385  0.0107  0.6764  0.1059
 8927TIP3    H148196   6.410   4.283   5.450 -1.6638  1.1998  1.9013
 8927TIP3    H248197   6.286   4.368   5.434 -0.6381  2.1636 -1.8946
 8928TIP3   OH248198   0.282   4.227  14.012  0.2969  0.3023 -0.0746
 8928TIP3    H148199   0.302   4.149  14.062 -1.8204 -0.8593 -0.8961
 8928TIP3    H248200   0.318   4.209  13.925  0.3015  0.4821 -0.1098
 8929TIP3   OH248201   0.326   0.283  11.776 -0.8845 -0.1333 -0.2627
 8929TIP3    H148202   0.329   0.336  11.696  1.8856 -0.4117 -0.4569
 8929TIP3    H248203   0.359   0.341  11.845 -1.7472 -0.3716  0.3639
 8930TIP3   OH248204   6.743   2.338   3.623 -0.2408 -0.3361  0.2589
 8930TIP3    H148205   6.746   2.429   3.650  1.4448 -0.1290 -0.4716
 8930TIP3    H248206   6.700   2.292   3.695 -1.9657  1.1398  0.2323
 8931TIP3   OH248207   1.628   5.478  12.787  0.7224  0.1004 -0.1651
 8931TIP3    H148208   1.543   5.446  12.816  1.1461 -1.4519 -0.5309
 8931TIP3    H248209   1.637   5.564  12.828 -0.0179 -0.7005  1.7944
 8932TIP3   OH248210   4.071   0.563   3.239  0.1793 -1.0290 -0.5331
 8932TIP3    H148211   4.148   0.513   3.267 -0.2965 -1.1079  0.6684
 8932TIP3    H248212   3.997   0.505   3.257 -0.2971 -0.2918 -0.0569
 8933TIP3   OH248213   1.798   0.125   2.419 -0.4089  0.8031  1.0214
 8933TIP3    H148214   1.867   0.178   2.459  1.4690  0.8683 -2.0096
 8933TIP3    H248215   1.768   0.177   2.344 -0.6350 -1.0978 -0.2639
 8934TIP3   OH248216   2.852   3.243  16.705  0.7943  0.3785 -0.2639
 8934TIP3    H148217   2.849   3.335  16.680 -1.2714  0.8026  1.2668
 8934TIP3    H248218   2.798   3.198  16.639  0.2257  0.5747  0.0620
 8935TIP3   OH248219   3.091   5.484   5.006 -0.3807 -0.3749  0.2078
 8935TIP3    H148220   3.153   5.487   4.933  0.4272 -1.0249  0.8441
 8935TIP3    H248221   3.146   5.489   5.084 -1.0823 -1.4362  0.7959
 8936TIP3   OH248222   0.822   5.560  12.971  0.1499 -0.1329  0.1150
 8936TIP3    H148223   0.754   5.494  12.986 -0.9464  0.8430 -0.4525
 8936TIP3    H248224   0.822   5.572  12.876  0.1119  0.9314  0.2452
 8937TIP3   OH248225   1.263   5.646  13.916 -0.0242  0.1363  0.2238
 8937TIP3    H148226   1.186   5.700  13.897  0.0362  0.0018 -0.4344
 8937TIP3    H248227   1.282   5.601  13.833  1.3868  0.9570  0.0687
 8938TIP3   OH248228   4.849   3.789  15.557 -0.1429  0.2132 -0.0690
 8938TIP3    H148229   4.818   3.841  15.483  1.4581 -1.4277 -2.0499
 8938TIP3    H248230   4.785   3.718  15.565  0.0495  0.0010 -0.3748
 8939TIP3   OH248231   4.391   2.871   2.568  0.0821  0.6489 -0.4636
 8939TIP3    H148232   4.344   2.833   2.642  0.8302 -0.7484 -0.6492
 8939TIP3    H248233   4.324   2.892   2.504 -0.5868  1.9877  0.6368
 8940TIP3   OH248234   4.782   2.710   4.237  0.2290 -0.2028  0.0990
 8940TIP3    H148235   4.754   2.650   4.306 -0.9534  2.3337  2.0466
 8940TIP3    H248236   4.716   2.701   4.168 -1.5881  0.7356  1.6056
 8941TIP3   OH248237   6.189   4.856  16.634  0.0016 -0.0488 -0.0115
 8941TIP3    H148238   6.225   4.917  16.698 -0.5911 -1.0919  1.3806
 8941TIP3    H248239   6.228   4.771  16.657 -0.8160 -0.5836 -0.5236
 8942TIP3   OH248240   3.694   1.822  16.443 -0.0849  0.4334  0.0680
 8942TIP3    H148241   3.719   1.846  16.354 -2.2099 -1.7284 -1.2445
 8942TIP3    H248242   3.777   1.798  16.486  1.0626  2.2431 -1.0032
 8943TIP3   OH248243   6.207   5.236  14.960  0.0322  0.1164 -0.0886
 8943TIP3    H148244   6.296   5.267  14.949 -0.3999  1.3065 -0.3954
 8943TIP3    H248245   6.156   5.285  14.895 -0.9584 -0.0537  0.5320
 8944TIP3   OH248246   1.032   4.993  13.439 -0.4893  0.2852  0.6415
 8944TIP3    H148247   1.042   4.904  13.471 -1.9467 -0.4059 -0.6816
 8944TIP3    H248248   1.121   5.027  13.431  0.2286 -1.7725 -0.7562
 8945TIP3   OH248249   2.974   4.668   1.775 -0.0536  0.3763  0.4740
 8945TIP3    H148250   3.047   4.713   1.818 -0.3540  0.3747  1.0013
 8945TIP3    H248251   3.008   4.580   1.756  0.1109  0.4023  0.6401
 8946TIP3   OH248252   1.683   5.053   1.906 -0.1771 -0.0634  0.9759
 8946TIP3    H148253   1.601   5.098   1.889 -0.3774 -0.8898 -0.4374
 8946TIP3    H248254   1.667   5.002   1.986 -0.5369  0.9208  1.5410
 8947TIP3   OH248255   3.194   4.231  14.913  0.0682 -0.0342  0.1264
 8947TIP3    H148256   3.282   4.237  14.948 -0.0074 -0.5862  0.4265
 8947TIP3    H248257   3.203   4.178  14.834  0.1345  0.6322 -0.3150
 8948TIP3   OH248258   1.588   5.978  12.245 -0.6259 -0.1854  0.4021
 8948TIP3    H148259   1.499   5.942  12.241 -0.5439 -0.3263 -0.2540
 8948TIP3    H248260   1.584   6.056  12.189 -0.1645 -0.5726 -0.1775
 8949TIP3   OH248261   5.618   2.530  16.522  0.5779 -0.9209  0.5091
 8949TIP3    H148262   5.678   2.474  16.570  3.7035  2.4505  0.9651
 8949TIP3    H248263   5.623   2.499  16.432 -0.1889 -3.1809  1.1990
 8950TIP3   OH248264   1.461   6.517  12.381  0.3961  0.0702  0.2615
 8950TIP3    H148265   1.474   6.531  12.475 -0.0453 -3.5101  1.0269
 8950TIP3    H248266   1.546   6.488  12.349  0.3847  0.6687 -0.3290
 8951TIP3   OH248267   1.001   3.751  13.397 -0.1698 -0.0683 -0.1044
 8951TIP3    H148268   1.056   3.786  13.467  0.1569  1.8505 -1.2462
 8951TIP3    H248269   1.061   3.704  13.340 -0.1351 -0.1306 -0.0159
 8952TIP3   OH248270   3.925   0.719   2.370 -0.5470  0.1858 -0.1424
 8952TIP3    H148271   3.866   0.780   2.327 -0.7222  0.6628  0.7489
 8952TIP3    H248272   3.982   0.686   2.300 -0.6651  1.1225 -0.6859
 8953TIP3   OH248273   0.417   3.849  14.299  0.1144 -0.3225 -0.0297
 8953TIP3    H148274   0.499   3.831  14.344  1.2725  1.7000 -1.1919
 8953TIP3    H248275   0.422   3.942  14.275 -2.0314 -0.4071 -1.1016
 8954TIP3   OH248276   2.765   5.655   1.404 -0.2463 -0.2650  0.2078
 8954TIP3    H148277   2.755   5.730   1.463 -2.3433 -0.8403  0.6299
 8954TIP3    H248278   2.801   5.586   1.459 -1.0159 -0.4228  0.5186
 8955TIP3   OH248279   5.262   4.293   3.240  0.3751 -0.5189  0.9695
 8955TIP3    H148280   5.270   4.262   3.330 -1.4425 -1.6667  0.7832
 8955TIP3    H248281   5.197   4.235   3.200  0.3586  0.6266 -0.7747
 8956TIP3   OH248282   3.452   5.730   1.305  0.0077  0.0438  0.0663
 8956TIP3    H148283   3.398   5.662   1.345 -0.3643  0.3842  0.1547
 8956TIP3    H248284   3.404   5.754   1.225  0.5721 -0.3962 -0.4126
 8957TIP3   OH248285   2.844   5.156  11.360 -0.2654  0.2838 -0.2369
 8957TIP3    H148286   2.810   5.067  11.365 -1.6221  0.7877 -0.2132
 8957TIP3    H248287   2.893   5.167  11.442 -0.9787 -0.0877  0.2522
 8958TIP3   OH248288   3.554   0.848   5.783 -0.7879  0.0664  0.2705
 8958TIP3    H148289   3.461   0.860   5.802 -0.3443 -0.2865  3.1109
 8958TIP3    H248290   3.566   0.753   5.777 -0.7090  0.1320 -0.9817
 8959TIP3   OH248291   6.020   3.847  15.591 -0.2075  0.0762  0.1756
 8959TIP3    H148292   6.018   3.903  15.514 -0.9310 -1.7983 -1.2648
 8959TIP3    H248293   5.959   3.888  15.653 -1.6966  0.2503 -1.3249
 8960TIP3   OH248294   0.218   2.983   1.900 -0.2979  0.3218  0.0752
 8960TIP3    H148295   0.257   2.899   1.925  0.2586  0.7466  0.6754
 8960TIP3    H248296   0.187   2.969   1.811  1.3897 -0.0002 -0.5137
 8961TIP3   OH248297   5.129   4.894   5.739  0.1792  0.8662 -0.2220
 8961TIP3    H148298   5.097   4.854   5.819  0.4170  0.2870 -0.4120
 8961TIP3    H248299   5.207   4.943   5.765 -0.1730  1.3053  0.0286
 8962TIP3   OH248300   0.743   0.505   6.062 -0.1453  0.0567  0.7210
 8962TIP3    H148301   0.657   0.528   6.028  0.5554  0.9418 -0.5582
 8962TIP3    H248302   0.753   0.558   6.141 -0.7336  0.0287  0.8149
 8963TIP3   OH248303   2.449   6.504   4.221  0.2847 -0.3526  0.0186
 8963TIP3    H148304   2.402   6.425   4.196 -0.3855 -0.0482  0.2872
 8963TIP3    H248305   2.518   6.513   4.155 -0.3841 -0.5011 -0.7166
 8964TIP3   OH248306   1.363   4.573  15.026  0.3009 -0.4760 -0.1405
 8964TIP3    H148307   1.327   4.661  15.014  1.1886  0.0070  0.5986
 8964TIP3    H248308   1.424   4.562  14.952 -0.2214 -0.7032 -0.5459
 8965TIP3   OH248309   5.804   2.711  12.192 -0.1355  0.2238 -0.1847
 8965TIP3    H148310   5.756   2.771  12.135  0.4218  0.8300 -0.0269
 8965TIP3    H248311   5.879   2.684  12.139 -0.0978  0.0811 -0.0590
 8966TIP3   OH248312   1.931   6.360   0.311  0.4081  0.4290 -0.1915
 8966TIP3    H148313   1.964   6.447   0.335 -0.5481  1.2694 -1.7309
 8966TIP3    H248314   1.956   6.349   0.219  2.3873 -1.8854  0.5191
 8967TIP3   OH248315   5.112   0.349  16.093  0.0191  0.3923  0.4097
 8967TIP3    H148316   5.023   0.372  16.066  0.3742  1.5928  0.2077
 8967TIP3    H248317   5.136   0.276  16.036 -0.5244  0.6327 -0.1456
 8968TIP3   OH248318   5.742   4.179  10.758  0.2317 -0.0666  0.1519
 8968TIP3    H148319   5.664   4.235  10.754 -0.6193 -1.2930 -2.0682
 8968TIP3    H248320   5.790   4.210  10.835 -1.4824  1.9812  0.4790
 8969TIP3   OH248321   4.529   1.509   0.495 -0.7203  0.5239  0.0775
 8969TIP3    H148322   4.518   1.428   0.544 -1.5579  0.2401 -0.5593
 8969TIP3    H248323   4.610   1.496   0.444  0.5213  1.0743  1.8055
 8970TIP3   OH248324   1.177   4.704  14.122  0.4750 -0.5514  0.2116
 8970TIP3    H148325   1.253   4.760  14.137 -0.9242  0.8689  2.8928
 8970TIP3    H248326   1.203   4.619  14.157  1.4663 -0.6631 -0.7410
 8971TIP3   OH248327   1.824   5.745   0.744  0.1886 -0.4612  0.6028
 8971TIP3    H148328   1.731   5.737   0.767  0.1435 -2.3012 -0.0325
 8971TIP3    H248329   1.863   5.662   0.773  1.2582 -0.4728 -0.7712
 8972TIP3   OH248330   3.969   0.406  16.331 -0.1182  0.1552  0.5115
 8972TIP3    H148331   4.012   0.332  16.289  0.3371  0.8235 -0.2399
 8972TIP3    H248332   3.986   0.395  16.424 -0.0931 -0.6963  0.4091
 8973TIP3   OH248333   2.223   2.955  14.765 -0.1816  0.2907  0.1038
 8973TIP3    H148334   2.142   2.996  14.796 -0.3499  0.3630 -0.4210
 8973TIP3    H248335   2.196   2.870  14.731  0.2344 -0.4890  1.6170
 8974TIP3   OH248336   1.183   0.320   5.777  0.2240 -0.2508  0.2112
 8974TIP3    H148337   1.147   0.248   5.829 -0.2214  0.3864  0.8035
 8974TIP3    H248338   1.261   0.284   5.735  0.6197 -0.7666  1.3634
 8975TIP3   OH248339   4.754   1.238  15.010 -0.1314 -0.4058 -0.0360
 8975TIP3    H148340   4.676   1.183  14.999 -0.5202 -0.3709  2.1434
 8975TIP3    H248341   4.827   1.182  14.982 -0.7876 -0.9712 -0.6571
 8976TIP3   OH248342   6.741   4.310   0.957 -0.0238  0.5465  0.3099
 8976TIP3    H148343   6.711   4.297   1.047 -0.3633 -0.7391  0.0242
 8976TIP3    H248344   6.672   4.364   0.917  0.0513  0.9909  0.7631
 8977TIP3   OH248345   2.458   3.879   3.691  0.0691  0.7530 -0.6484
 8977TIP3    H148346   2.436   3.809   3.629 -0.3345  1.2537 -1.0859
 8977TIP3    H248347   2.547   3.858   3.720 -0.7464 -1.0377  0.7747
 8978TIP3   OH248348   1.742   3.142  15.775 -0.7200 -0.4246 -0.7335
 8978TIP3    H148349   1.817   3.099  15.817 -0.3348  0.9606  0.0997
 8978TIP3    H248350   1.670   3.129  15.836 -0.5931  0.1084 -0.4611
 8979TIP3   OH248351   4.233   4.757  14.318  0.4748  0.2867 -0.2372
 8979TIP3    H148352   4.282   4.742  14.399  1.7077  3.1670 -0.3201
 8979TIP3    H248353   4.199   4.671  14.294  4.3858 -1.7159  0.5963
 8980TIP3   OH248354   5.908   3.568  14.467 -0.0434 -0.6714 -0.3176
 8980TIP3    H148355   5.935   3.656  14.494  1.5700 -1.0497 -0.6214
 8980TIP3    H248356   5.829   3.583  14.414  0.1980  0.5821 -0.3624
 8981TIP3   OH248357   6.253   1.679  11.392 -0.6470  0.5717 -0.3651
 8981TIP3    H148358   6.277   1.639  11.476 -0.3036 -0.0429 -0.7480
 8981TIP3    H248359   6.171   1.637  11.367 -1.0516  1.1711 -0.0642
 8982TIP3   OH248360   1.160   2.103   3.395  0.1102 -0.2911  0.1976
 8982TIP3    H148361   1.075   2.147   3.395  0.7956  1.1785  1.5614
 8982TIP3    H248362   1.141   2.013   3.419 -0.9864  0.3406  1.9384
 8983TIP3   OH248363   3.722   4.645  16.052  0.0016  0.0965 -0.0229
 8983TIP3    H148364   3.779   4.569  16.039 -0.4091 -0.2003 -0.0999
 8983TIP3    H248365   3.700   4.674  15.964 -0.9703 -0.5512 -0.0047
 8984TIP3   OH248366   5.093   3.062   1.416 -0.4801  0.1874  0.3615
 8984TIP3    H148367   5.064   2.998   1.350  2.6967 -0.4984 -0.5234
 8984TIP3    H248368   5.013   3.081   1.466 -2.2964 -1.8815 -1.4756
 8985TIP3   OH248369   2.599   6.403   2.157 -0.2905  0.1272  0.0980
 8985TIP3    H148370   2.546   6.451   2.220 -1.9911 -1.4652 -0.0341
 8985TIP3    H248371   2.583   6.446   2.074 -0.2948  0.4901  0.2862
 8986TIP3   OH248372   5.847   3.655   5.019  0.4473 -0.1114  0.0937
 8986TIP3    H148373   5.786   3.723   5.046  3.1184  2.9391 -0.8392
 8986TIP3    H248374   5.887   3.626   5.101  0.5774  0.8501  0.3890
 8987TIP3   OH248375   0.287   5.252  14.934 -0.0281  0.3194 -0.0583
 8987TIP3    H148376   0.271   5.238  15.028 -0.6723 -0.7927 -0.3151
 8987TIP3    H248377   0.259   5.343  14.918  0.1228  0.5291  0.8279
 8988TIP3   OH248378   2.920   2.272   2.994 -0.1391  0.6524 -0.2460
 8988TIP3    H148379   2.840   2.298   2.948  1.2973  3.0867 -1.5640
 8988TIP3    H248380   2.956   2.354   3.027  1.0699 -0.5745  1.6770
 8989TIP3   OH248381   4.421   3.257  14.530 -0.3428  0.5239  0.5093
 8989TIP3    H148382   4.448   3.347  14.508  1.1104 -0.1413 -0.6062
 8989TIP3    H248383   4.497   3.221  14.576 -1.0651 -0.0431  1.2878
 8990TIP3   OH248384   2.753   4.993  17.064 -0.1569  0.1031  0.2183
 8990TIP3    H148385   2.764   4.917  17.008 -1.6575 -0.8014  1.0896
 8990TIP3    H248386   2.694   5.051  17.015  1.6425  1.1391 -0.8118
 8991TIP3   OH248387   6.436   0.893  14.093 -0.0248  0.2693 -0.1897
 8991TIP3    H148388   6.385   0.812  14.088 -0.0485  0.3475 -3.1022
 8991TIP3    H248389   6.375   0.961  14.067  0.3876  1.0306  0.8007
 8992TIP3   OH248390   2.562   0.089   5.130  0.1387  0.5978 -0.5623
 8992TIP3    H148391   2.522   0.166   5.092  0.7591  0.7562 -0.9116
 8992TIP3    H248392   2.531   0.016   5.076  0.3155  0.7167 -0.8245
 8993TIP3   OH248393   2.979   2.153   1.628  0.3496  0.2366 -0.7321
 8993TIP3    H148394   3.030   2.075   1.648 -0.6947 -0.3510 -0.2628
 8993TIP3    H248395   2.890   2.121   1.615  0.0121  1.2819 -1.1077
 8994TIP3   OH248396   0.111   0.219  11.473 -0.3022  0.3803  0.1097
 8994TIP3    H148397   0.100   0.154  11.541  0.0655  2.6484  2.5025
 8994TIP3    H248398   0.133   0.169  11.394 -0.1438 -2.3209  1.7694
 8995TIP3   OH248399   2.032   0.398  14.961 -0.2113  0.2110 -0.0077
 8995TIP3    H148400   2.041   0.309  14.928  0.7900  0.8109 -1.4656
 8995TIP3    H248401   1.990   0.446  14.889 -4.4458  0.1855  2.1018
 8996TIP3   OH248402   1.153   0.328   3.054  0.2479  0.1330  0.1267
 8996TIP3    H148403   1.229   0.274   3.076 -0.2648 -0.4352  0.5263
 8996TIP3    H248404   1.158   0.338   2.959  0.1290 -0.9825 -0.0137
 8997TIP3   OH248405   1.774   5.037  12.947  0.0674 -0.0812 -0.2572
 8997TIP3    H148406   1.806   4.969  13.006  2.1447  0.8972 -0.1786
 8997TIP3    H248407   1.846   5.053  12.887 -0.6302  1.5623 -0.7158
 8998TIP3   OH248408   6.023   2.769   3.701 -0.4879 -0.1966  0.0371
 8998TIP3    H148409   5.940   2.751   3.745 -0.5378 -1.1598 -0.4262
 8998TIP3    H248410   6.007   2.747   3.609  0.5515 -1.3685  0.1063
 8999TIP3   OH248411   6.388   2.036  16.843  0.2895 -0.2760  0.7466
 8999TIP3    H148412   6.449   2.104  16.815 -2.1396  2.6205  1.7615
 8999TIP3    H248413   6.316   2.042  16.780  0.2392 -2.3720  0.5607
 9000TIP3   OH248414   0.094   4.959  15.574  0.1072  0.2255  0.4473
 9000TIP3    H148415   0.029   4.895  15.602  1.9922 -1.3185  1.4875
 9000TIP3    H248416   0.138   4.919  15.499  0.7799  0.6529  0.6041
 9001TIP3   OH248417   6.311   3.308   2.181  0.5381 -0.3301  0.2689
 9001TIP3    H148418   6.353   3.390   2.153 -0.2049 -0.2771 -0.7334
 9001TIP3    H248419   6.224   3.334   2.210  0.3811 -0.7288  0.1638
 9002TIP3   OH248420   2.674   0.852  16.953 -0.1102 -0.3588 -0.0862
 9002TIP3    H148421   2.607   0.888  17.011  1.6366  1.4308  0.9629
 9002TIP3    H248422   2.749   0.838  17.011  1.6301  1.2761 -1.8279
 9003TIP3   OH248423   4.000   0.934  12.410 -0.0122  0.1659  0.2041
 9003TIP3    H148424   3.965   0.964  12.494  1.1821  2.6802 -0.1043
 9003TIP3    H248425   3.948   0.979  12.344 -0.1199 -0.8004 -0.3843
 9004TIP3   OH248426   0.968   3.512  14.420  0.3671 -0.4736 -0.1412
 9004TIP3    H148427   0.937   3.493  14.509 -0.7615 -0.1309 -0.4460
 9004TIP3    H248428   0.907   3.465  14.363 -0.3367  1.1435 -0.7915
 9005TIP3   OH248429   0.153   1.965  14.612 -0.6410  0.2223 -0.4032
 9005TIP3    H148430   0.240   2.003  14.603 -0.4883 -0.3958 -1.8147
 9005TIP3    H248431   0.093   2.040  14.612 -0.1934  0.5809 -0.7497
 9006TIP3   OH248432   6.015   3.332  12.355  0.5216  0.4261 -0.2949
 9006TIP3    H148433   6.074   3.291  12.292  0.9721 -0.5940  0.7445
 9006TIP3    H248434   5.954   3.262  12.380  0.2571  0.8494  0.2645
 9007TIP3   OH248435   3.953   2.839   3.114 -0.8125 -0.8520 -0.1940
 9007TIP3    H148436   4.037   2.835   3.069 -0.1983 -1.1982  0.9397
 9007TIP3    H248437   3.931   2.932   3.116 -1.9726 -0.9516 -3.1225
 9008TIP3   OH248438   3.971   0.228   4.415  0.1995  0.5903 -0.5462
 9008TIP3    H148439   3.908   0.232   4.343 -0.2227  0.1204 -0.2106
 9008TIP3    H248440   4.030   0.156   4.391 -0.3886 -0.0613 -0.0755
 9009TIP3   OH248441   0.559   5.945  13.881  0.1485 -0.1170  0.0901
 9009TIP3    H148442   0.468   5.964  13.857  0.2353 -0.8389 -0.8367
 9009TIP3    H248443   0.571   5.853  13.858  0.8317 -0.2994  1.1107
 9010TIP3   OH248444   6.546   2.144  10.442  0.0208  0.1185 -0.3492
 9010TIP3    H148445   6.634   2.119  10.413 -0.1811 -0.9542 -0.0925
 9010TIP3    H248446   6.533   2.232  10.407  1.4450  0.5609  0.1641
 9011TIP3   OH248447   0.702   4.266  11.252 -0.2293  0.3408 -0.1012
 9011TIP3    H148448   0.628   4.241  11.196 -0.4854 -1.3057  0.9046
 9011TIP3    H248449   0.779   4.254  11.197 -0.6368  1.3749 -0.9341
 9012TIP3   OH248450   6.041   3.421   1.945  0.2497 -0.2143  0.3662
 9012TIP3    H148451   5.969   3.364   1.919  2.0039 -1.6098 -1.8326
 9012TIP3    H248452   6.039   3.493   1.881  0.5236 -0.0291  0.5601
 9013TIP3   OH248453   3.403   1.267  15.415  0.3803 -0.5801  0.2366
 9013TIP3    H148454   3.380   1.178  15.387  0.2578  0.1621 -2.2763
 9013TIP3    H248455   3.498   1.269  15.413  0.3711 -0.4867 -0.3762
 9014TIP3   OH248456   2.645   2.602   4.734  0.1046  0.0537 -0.0729
 9014TIP3    H148457   2.589   2.581   4.659  0.5998 -0.9671 -0.1646
 9014TIP3    H248458   2.673   2.517   4.769  2.9067  0.4799 -1.0121
 9015TIP3   OH248459   4.684   3.251  11.838 -0.4645 -0.3755  0.1364
 9015TIP3    H148460   4.763   3.264  11.787 -0.6479 -1.0975 -0.3449
 9015TIP3    H248461   4.625   3.322  11.812  0.5371  1.0459  1.5678
 9016TIP3   OH248462   6.383   2.092   3.932 -0.0515  0.4336  0.4549
 9016TIP3    H148463   6.323   2.155   3.892 -0.1613  1.1286  1.6573
 9016TIP3    H248464   6.378   2.111   4.026 -0.3318 -1.5799  0.8972
 9017TIP3   OH248465   3.668   4.554   5.691  0.7830 -0.3413  0.5879
 9017TIP3    H148466   3.719   4.513   5.621  0.9164 -2.0809  1.6542
 9017TIP3    H248467   3.618   4.483   5.730 -0.9070  0.9642  0.9336
 9018TIP3   OH248468   0.542   1.289  15.081 -0.2645  0.3340  0.0806
 9018TIP3    H148469   0.619   1.334  15.045 -1.4424  1.4510 -1.1412
 9018TIP3    H248470   0.513   1.345  15.153 -0.8843  0.8001 -0.5192
 9019TIP3   OH248471   5.456   4.734   3.747 -0.1825  0.0083  0.8339
 9019TIP3    H148472   5.362   4.748   3.758 -0.2815 -0.6762  0.9219
 9019TIP3    H248473   5.484   4.805   3.690 -0.5973  0.7006  1.4736
 9020TIP3   OH248474   2.628   0.444  16.427  0.1447 -0.2925  0.6718
 9020TIP3    H148475   2.698   0.418  16.487  2.1328  0.6113 -1.0993
 9020TIP3    H248476   2.562   0.375  16.435  1.6859 -1.7147  1.7393
 9021TIP3   OH248477   3.442   5.607  12.747  0.1545  0.4424 -0.0671
 9021TIP3    H148478   3.378   5.618  12.818  0.2529  1.3052 -0.1032
 9021TIP3    H248479   3.501   5.682  12.756  1.3942 -0.5148  0.1882
 9022TIP3   OH248480   3.979   1.157  14.990  0.6590 -0.3566  0.2811
 9022TIP3    H148481   3.989   1.117  15.076  2.3170 -0.5318  0.0363
 9022TIP3    H248482   3.929   1.237  15.006 -0.6080 -1.2781  1.1242
 9023TIP3   OH248483   0.300   0.083  13.698  0.5978  0.5379  0.4041
 9023TIP3    H148484   0.389   0.105  13.728  0.6029  1.8694 -0.4547
 9023TIP3    H248485   0.309   0.073  13.603 -0.4129  2.2277  0.0902
 9024TIP3   OH248486   2.888   5.881  11.871 -0.2678 -0.4171 -0.4105
 9024TIP3    H148487   2.896   5.787  11.886  0.9866 -0.3033 -0.1989
 9024TIP3    H248488   2.803   5.905  11.907  0.7145 -0.9306  2.5224
 9025TIP3   OH248489   0.947   5.210  15.161  0.1756  0.4848 -0.5831
 9025TIP3    H148490   1.036   5.244  15.171 -0.0469  0.7186  0.7331
 9025TIP3    H248491   0.899   5.245  15.236 -0.7507 -0.5552 -0.6650
 9026TIP3   OH248492   5.672   2.565  16.206  0.4685 -0.6191 -0.2807
 9026TIP3    H148493   5.582   2.546  16.177  1.0880 -1.0417 -2.0457
 9026TIP3    H248494   5.668   2.655  16.239 -0.4251 -0.3231 -1.1489
 9027TIP3   OH248495   1.284   4.945   3.043  0.3046 -0.9359 -0.0079
 9027TIP3    H148496   1.328   4.887   2.980 -0.2389  0.0520 -1.3440
 9027TIP3    H248497   1.196   4.955   3.008 -0.8398 -2.3525  2.2846
 9028TIP3   OH248498   6.335   3.179  11.113 -0.4802 -0.0586 -0.6672
 9028TIP3    H148499   6.319   3.136  11.197  0.7831  0.0077 -0.3707
 9028TIP3    H248500   6.382   3.260  11.136 -0.9762  0.4490 -1.3741
 9029TIP3   OH248501   3.957   2.120  14.095  0.1629 -0.3268 -0.8809
 9029TIP3    H148502   4.024   2.186  14.077  1.2747 -0.8506  1.0027
 9029TIP3    H248503   4.006   2.040  14.112 -1.0257 -1.0525 -0.7303
 9030TIP3   OH248504   3.436   0.123  13.717 -0.2941 -0.2210 -0.5100
 9030TIP3    H148505   3.453   0.051  13.657  0.4140 -0.0434 -0.5270
 9030TIP3    H248506   3.393   0.190  13.664  0.7102  0.1081 -0.9293
 9031TIP3   OH248507   2.714   6.400  12.284  0.2454 -0.1941  0.2185
 9031TIP3    H148508   2.621   6.423  12.282  0.2518  0.0514  1.5871
 9031TIP3    H248509   2.718   6.315  12.240 -1.2086 -1.8637  2.9755
 9032TIP3   OH248510   4.842   6.487   4.148  0.0080  0.4558  0.1032
 9032TIP3    H148511   4.804   6.537   4.221  0.7646  1.2302 -0.0074
 9032TIP3    H248512   4.859   6.400   4.185 -1.1858  0.3098  0.3488
 9033TIP3   OH248513   1.454   0.465  14.930 -0.2529  0.5430  0.4744
 9033TIP3    H148514   1.407   0.549  14.936  0.4250  0.8848  1.1443
 9033TIP3    H248515   1.453   0.431  15.019 -1.8398 -0.9169 -0.0553
 9034TIP3   OH248516   5.200   2.500   2.574 -0.1484  0.1838  0.1022
 9034TIP3    H148517   5.215   2.552   2.495  1.8192 -0.8898 -0.2824
 9034TIP3    H248518   5.161   2.418   2.542 -1.0520  0.4565  0.4643
 9035TIP3   OH248519   2.929   6.644  14.047  0.1873  0.2727 -0.2983
 9035TIP3    H148520   2.892   6.672  13.963 -0.4003 -1.8956 -0.8165
 9035TIP3    H248521   3.022   6.632  14.030  0.0655 -0.1834 -0.6510
 9036TIP3   OH248522   0.154   2.032  12.187  0.2895 -0.0776 -0.0923
 9036TIP3    H148523   0.161   2.080  12.104 -2.0721  0.1608 -0.2204
 9036TIP3    H248524   0.190   2.093  12.252 -0.5793  0.9951 -0.5675
 9037TIP3   OH248525   5.666   1.524   2.495  0.1990  0.7634 -0.2225
 9037TIP3    H148526   5.619   1.449   2.459  1.5361 -0.4389  0.4248
 9037TIP3    H248527   5.622   1.543   2.578  0.2557  0.2737 -0.0798
 9038TIP3   OH248528   2.250   6.789   5.673  0.2501  0.2913  0.4511
 9038TIP3    H148529   2.297   6.750   5.746  0.1436 -0.5925  0.0685
 9038TIP3    H248530   2.236   6.880   5.698  0.6271  0.1157  1.3193
 9039TIP3   OH248531   6.348   1.520   3.114 -0.0191 -1.1683 -0.1465
 9039TIP3    H148532   6.270   1.475   3.145  0.1452 -1.9246 -0.8090
 9039TIP3    H248533   6.364   1.484   3.027  0.8773 -0.7793 -0.1553
 9040TIP3   OH248534   1.939   4.795  13.372  0.0539  0.2789  0.9580
 9040TIP3    H148535   1.991   4.724  13.335  0.0220  2.2407 -3.5301
 9040TIP3    H248536   2.003   4.847  13.422  0.8069 -1.0106  1.3802
 9041TIP3   OH248537   0.926   2.156   2.026 -0.1385 -0.4978 -0.2651
 9041TIP3    H148538   0.865   2.182   2.095 -1.1604 -0.7748 -1.0335
 9041TIP3    H248539   1.009   2.199   2.049 -0.0119 -1.7688  1.9256
 9042TIP3   OH248540   6.288   3.567   5.191  0.4581  0.4724 -0.3891
 9042TIP3    H148541   6.253   3.652   5.166  0.0315  0.5747  0.5000
 9042TIP3    H248542   6.381   3.582   5.206  0.2275  0.9898  0.6030
 9043TIP3   OH248543   0.355   1.147   3.556  0.8500  0.0564  0.5195
 9043TIP3    H148544   0.317   1.081   3.499  0.3762  0.4311  0.3887
 9043TIP3    H248545   0.279   1.196   3.589  1.2622  1.8263 -0.9682
 9044TIP3   OH248546   3.740   6.149  16.131 -0.0854 -0.3357  0.7108
 9044TIP3    H148547   3.658   6.171  16.174  0.4871 -0.7873  2.0837
 9044TIP3    H248548   3.806   6.157  16.199  0.7766 -1.6521  0.0808
 9045TIP3   OH248549   5.121   5.441  15.059  0.3138  0.3435 -0.2707
 9045TIP3    H148550   5.206   5.484  15.053  1.0885 -0.8292  1.5712
 9045TIP3    H248551   5.133   5.372  15.124 -2.1823  0.4933  0.4593
 9046TIP3   OH248552   1.315   1.997   2.895  0.2219 -0.1875  0.3193
 9046TIP3    H148553   1.332   1.933   2.827 -1.2724  0.5792 -0.8493
 9046TIP3    H248554   1.353   1.960   2.974 -0.8839 -2.6785 -0.2279
 9047TIP3   OH248555   6.729   4.592  11.510 -0.4227  0.5163  0.3758
 9047TIP3    H148556   6.673   4.555  11.442  0.5583  0.6430 -0.5223
 9047TIP3    H248557   6.684   4.672  11.538 -1.2205  0.0570  0.4535
 9048TIP3   OH248558   2.516   1.532  11.980  0.5715 -0.2454  0.6245
 9048TIP3    H148559   2.454   1.603  11.990 -0.1881 -0.8926  0.5898
 9048TIP3    H248560   2.463   1.456  11.957  1.3501 -0.8567  0.7844
 9049TIP3   OH248561   0.039   6.010   2.276  0.2963 -0.5392  0.0969
 9049TIP3    H148562  -0.036   6.064   2.300  0.8458 -0.2536  1.2333
 9049TIP3    H248563   0.020   5.924   2.314 -0.1323 -0.9011 -0.8949
 9050TIP3   OH248564   2.120   1.199   0.365  0.3957 -0.0651  0.2055
 9050TIP3    H148565   2.129   1.133   0.297  1.8022  1.8414 -1.5747
 9050TIP3    H248566   2.143   1.281   0.322 -0.8332  1.5608  2.4343
 9051TIP3   OH248567   3.659   2.950  14.521 -0.0511 -0.1505 -0.5662
 9051TIP3    H148568   3.627   2.877  14.468  1.7825 -0.9319 -0.6664
 9051TIP3    H248569   3.635   3.028  14.471  1.4552 -0.8548 -2.5341
 9052TIP3   OH248570   1.359   1.437  16.719 -0.0219 -0.1179 -0.7146
 9052TIP3    H148571   1.422   1.435  16.646 -1.2203  0.6086 -1.8153
 9052TIP3    H248572   1.408   1.474  16.792  1.3488 -1.2887 -0.9971
 9053TIP3   OH248573   2.652   1.838   3.172 -0.1247 -0.3978  0.3989
 9053TIP3    H148574   2.703   1.766   3.209  0.5724 -0.6923 -1.0529
 9053TIP3    H248575   2.717   1.904   3.149 -0.3429 -0.7939 -1.5195
 9054TIP3   OH248576   6.488   5.858   4.130  0.9945  0.1349 -0.1291
 9054TIP3    H148577   6.416   5.916   4.108  0.1533 -1.4030 -1.6731
 9054TIP3    H248578   6.478   5.783   4.071  2.6686 -1.0718  1.0093
 9055TIP3   OH248579   5.263   1.313  15.714 -0.2204  0.3602  0.5431
 9055TIP3    H148580   5.206   1.289  15.787 -0.4511  1.2092  0.6509
 9055TIP3    H248581   5.253   1.408  15.706 -0.7110  0.1972 -1.0214
 9056TIP3   OH248582   4.171   4.558   0.809  0.1954 -0.1242 -0.3499
 9056TIP3    H148583   4.230   4.617   0.856  0.3872 -0.8006  0.2797
 9056TIP3    H248584   4.190   4.574   0.716  0.2945  0.7398 -0.1850
 9057TIP3   OH248585   3.973   3.971   1.770  0.4947  0.2024  0.2930
 9057TIP3    H148586   3.897   3.948   1.717  0.0551  2.7202 -0.3238
 9057TIP3    H248587   3.951   3.939   1.858 -0.5485 -0.5123 -0.2028
 9058TIP3   OH248588   6.618   1.212  16.535  0.1192 -0.2392  0.1345
 9058TIP3    H148589   6.660   1.128  16.554 -0.7381 -0.6735  0.1851
 9058TIP3    H248590   6.684   1.261  16.487 -0.3267 -2.0825 -2.5861
 9059TIP3   OH248591   3.374   2.799   4.342 -0.0273 -0.1493  0.6756
 9059TIP3    H148592   3.403   2.768   4.428 -2.0717 -1.1778  1.0441
 9059TIP3    H248593   3.284   2.769   4.335  0.2219 -0.5076 -2.0448
 9060TIP3   OH248594   5.676   3.365   4.551 -0.7721 -0.6125 -0.3409
 9060TIP3    H148595   5.748   3.303   4.553 -1.6013 -1.6808 -1.9897
 9060TIP3    H248596   5.690   3.420   4.629  0.9413 -1.7366  0.2015
 9061TIP3   OH248597   1.324   4.842  14.976  0.6616 -0.1037  0.0869
 9061TIP3    H148598   1.274   4.923  14.987  1.0644  0.2410 -0.5496
 9061TIP3    H248599   1.307   4.816  14.885  0.0641 -1.0552  0.4588
 9062TIP3   OH248600   6.270   1.294   3.476  0.1412 -0.5791  0.0039
 9062TIP3    H148601   6.200   1.248   3.430  0.5156  0.5344 -1.7561
 9062TIP3    H248602   6.350   1.261   3.436  0.4555  0.6819 -0.4394
 9063TIP3   OH248603   4.052   2.811  10.775  0.9924 -0.0973 -0.2017
 9063TIP3    H148604   3.997   2.828  10.699  0.7860  0.5598  0.0885
 9063TIP3    H248605   4.019   2.729  10.812  0.4179  0.1286 -0.2129
 9064TIP3   OH248606   5.159   5.924  13.685 -0.1329 -0.4882 -0.0009
 9064TIP3    H148607   5.164   5.836  13.648 -1.8494 -0.6972  0.1760
 9064TIP3    H248608   5.215   5.977  13.629 -1.4979 -1.1020 -2.0509
 9065TIP3   OH248609   3.132   5.098   5.509 -0.2822 -1.2261 -0.1501
 9065TIP3    H148610   3.081   5.095   5.590 -0.8276  0.7870 -0.3571
 9065TIP3    H248611   3.071   5.067   5.442 -0.4505 -1.1295 -0.0456
 9066TIP3   OH248612   4.033   0.138  16.726 -0.6525 -0.3121  0.6270
 9066TIP3    H148613   4.121   0.121  16.694 -0.7405  0.5284 -0.0841
 9066TIP3    H248614   4.041   0.134  16.821 -0.3935 -2.8502  0.5901
 9067TIP3   OH248615   0.991   3.102   0.121  0.1225 -0.3147 -0.1080
 9067TIP3    H148616   0.911   3.092   0.173  0.0749 -1.7114 -0.3897
 9067TIP3    H248617   1.006   3.014   0.085  0.1642  0.5750 -2.4360
 9068TIP3   OH248618   6.159   1.574   2.467  0.0856  0.9276  0.3172
 9068TIP3    H148619   6.138   1.542   2.379 -0.2263  1.9830 -0.0100
 9068TIP3    H248620   6.101   1.524   2.525  1.5022 -1.0240  0.1342
 9069TIP3   OH248621   3.258   5.037  15.898 -0.1910 -0.4498  0.0447
 9069TIP3    H148622   3.346   5.001  15.905  0.1871  0.1053 -1.4373
 9069TIP3    H248623   3.232   5.020  15.807 -0.3139  2.1966 -0.4901
 9070TIP3   OH248624   4.817   4.843   5.525  0.7800  0.2869 -0.2695
 9070TIP3    H148625   4.872   4.783   5.576  0.6316 -1.3438 -1.9167
 9070TIP3    H248626   4.727   4.823   5.553  0.7574 -0.0318 -0.5551
 9071TIP3   OH248627   5.418   5.216  13.346  0.5509 -0.3364 -0.1436
 9071TIP3    H148628   5.510   5.193  13.346  0.2359 -1.6391 -0.3549
 9071TIP3    H248629   5.372   5.134  13.332 -0.6971  0.1098  1.0976
 9072TIP3   OH248630   4.771   4.651  14.880 -1.3158  0.3040  0.5074
 9072TIP3    H148631   4.728   4.729  14.915 -1.9810 -0.0016  0.3806
 9072TIP3    H248632   4.838   4.685  14.821 -0.0741  0.8343  2.1459
 9073TIP3   OH248633   3.064   3.589   0.596  0.5479  0.0546  0.2346
 9073TIP3    H148634   3.127   3.525   0.565  1.2278  1.0250 -0.4355
 9073TIP3    H248635   3.109   3.673   0.591 -0.9958  0.8763 -0.9331
 9074TIP3   OH248636   4.834   6.130   0.686 -0.5788  0.4001  0.1201
 9074TIP3    H148637   4.826   6.141   0.781  0.6920 -1.6397  0.5128
 9074TIP3    H248638   4.924   6.156   0.666 -0.4900 -0.2505 -0.3471
 9075TIP3   OH248639   4.254   5.663   0.202  0.5238 -0.0855 -0.0430
 9075TIP3    H148640   4.271   5.750   0.240  1.1371  0.0729 -0.6517
 9075TIP3    H248641   4.326   5.650   0.141 -0.1821 -0.5411 -0.7928
 9076TIP3   OH248642   2.361   4.533   6.500  0.7399 -0.1566  0.4318
 9076TIP3    H148643   2.408   4.542   6.417 -0.0422 -0.8395 -0.0966
 9076TIP3    H248644   2.421   4.570   6.565  1.1213  0.9215 -0.5015
 9077TIP3   OH248645   4.449   4.248   2.310  0.4694  0.0947 -0.0770
 9077TIP3    H148646   4.453   4.232   2.216 -0.3921  1.6219 -0.4004
 9077TIP3    H248647   4.421   4.339   2.318 -1.4495 -0.5607  1.6546
 9078TIP3   OH248648   0.742   3.889  12.780  0.6235  0.6515  1.0236
 9078TIP3    H148649   0.716   3.960  12.839 -1.2508  0.8791 -0.0016
 9078TIP3    H248650   0.685   3.816  12.804  0.2141  0.5760 -0.1151
 9079TIP3   OH248651   0.152   2.013   5.181  0.4447 -0.0066  0.3208
 9079TIP3    H148652   0.222   2.073   5.156 -0.5070  1.0695  0.1569
 9079TIP3    H248653   0.147   1.950   5.109 -0.4374  1.4400 -0.9647
 9080TIP3   OH248654   6.111   2.789   1.358 -0.3008 -0.2560 -0.0552
 9080TIP3    H148655   6.140   2.850   1.290  0.1724  1.0809  1.2872
 9080TIP3    H248656   6.038   2.834   1.400 -0.6608 -1.1203  0.2580
 9081TIP3   OH248657   6.690   6.617  16.894 -0.0033  0.0462 -0.6257
 9081TIP3    H148658   6.680   6.557  16.820  2.0371 -0.5583 -0.4868
 9081TIP3    H248659   6.713   6.561  16.968 -0.5070  0.7917  0.1160
 9082TIP3   OH248660   2.194   4.556   5.703  0.0075  0.0189  0.3173
 9082TIP3    H148661   2.151   4.553   5.789 -1.1082  0.2634 -0.2263
 9082TIP3    H248662   2.141   4.616   5.651 -0.2760 -1.3759 -1.0681
 9083TIP3   OH248663   2.153   0.055  16.029  0.7930 -0.2605 -0.2013
 9083TIP3    H148664   2.067   0.028  16.061 -0.4373  1.3756 -1.8918
 9083TIP3    H248665   2.182   0.123  16.090 -0.8837  1.8210 -1.5521
 9084TIP3   OH248666   3.832   5.113   4.640  0.2077  0.3673 -0.0600
 9084TIP3    H148667   3.737   5.119   4.644  0.1012  1.3971 -2.3680
 9084TIP3    H248668   3.854   5.145   4.552  2.5489 -1.5551 -0.2782
 9085TIP3   OH248669   2.855   3.398   1.971  0.4473 -0.6680 -0.8637
 9085TIP3    H148670   2.766   3.376   1.943  0.3514 -0.5159 -0.6863
 9085TIP3    H248671   2.876   3.479   1.924  0.6225 -0.8893 -1.1653
 9086TIP3   OH248672   2.559   4.252   3.325 -0.8019  0.3836  0.0436
 9086TIP3    H148673   2.570   4.193   3.400 -1.9457  0.3014  0.1752
 9086TIP3    H248674   2.527   4.334   3.364  0.2577  0.9282 -0.1917
 9087TIP3   OH248675   2.346   6.546   6.753 -0.9106 -0.3668 -0.5453
 9087TIP3    H148676   2.253   6.567   6.760 -0.5002  1.0578  1.9137
 9087TIP3    H248677   2.362   6.485   6.825  0.6697  2.2957  1.5376
 9088TIP3   OH248678   2.135   1.427  13.845  0.8659  0.1566  0.3514
 9088TIP3    H148679   2.066   1.421  13.779 -1.2323  4.7266  1.7391
 9088TIP3    H248680   2.216   1.431  13.795 -0.1866 -0.9810 -1.5928
 9089TIP3   OH248681   3.661   2.693  10.667  0.4154  0.4300 -0.1368
 9089TIP3    H148682   3.568   2.700  10.647  0.3875  0.8841  0.1251
 9089TIP3    H248683   3.673   2.602  10.694 -0.3079  0.7800  1.5130
 9090TIP3   OH248684   3.040   2.575  15.972 -1.1379  0.3342 -0.0322
 9090TIP3    H148685   3.017   2.503  16.030 -0.8078  0.0547 -0.2421
 9090TIP3    H248686   3.016   2.544  15.885  0.0388  0.0058 -0.2682
 9091TIP3   OH248687   2.682   3.848  10.916 -0.0146  0.1508 -0.2049
 9091TIP3    H148688   2.622   3.836  10.990  1.6960  1.3655  1.4959
 9091TIP3    H248689   2.630   3.892  10.849 -1.2969  0.1902  0.7823
 9092TIP3   OH248690   1.630   6.559   2.108 -0.2302 -0.0533  0.2187
 9092TIP3    H148691   1.726   6.557   2.116 -0.0773 -2.0604 -1.5822
 9092TIP3    H248692   1.601   6.477   2.146 -0.8987 -1.1251 -2.4214
 9093TIP3   OH248693   6.025   6.173   2.906 -0.8358 -0.2099  0.8223
 9093TIP3    H148694   6.062   6.095   2.866  0.4259 -0.4308  2.3416
 9093TIP3    H248695   5.977   6.216   2.834  0.3455 -1.1751 -0.6032
 9094TIP3   OH248696   1.034   2.385   1.363 -0.2836 -0.0736 -0.0003
 9094TIP3    H148697   1.089   2.382   1.441 -0.8578  0.1553  0.4188
 9094TIP3    H248698   0.965   2.321   1.380  0.5385 -1.3034 -1.0693
 9095TIP3   OH248699   4.497   0.353  14.187 -0.5108 -0.0452  0.2249
 9095TIP3    H148700   4.414   0.377  14.228 -0.9520 -1.6179  0.3278
 9095TIP3    H248701   4.472   0.294  14.116  0.5269 -0.7379  0.4192
 9096TIP3   OH248702   6.736   5.144  16.372 -0.4116 -0.5420 -0.0038
 9096TIP3    H148703   6.744   5.239  16.360 -0.2890 -0.4080  1.0473
 9096TIP3    H248704   6.717   5.133  16.465  0.4768 -1.5964  0.0737
 9097TIP3   OH248705   5.890   1.239   4.712 -0.1809  0.1734 -0.4772
 9097TIP3    H148706   5.971   1.285   4.691  0.8050 -0.8617  0.8441
 9097TIP3    H248707   5.884   1.170   4.646  0.3448 -0.0981 -0.2537
 9098TIP3   OH248708   6.196   1.030  16.212 -0.1257 -1.0840  0.9147
 9098TIP3    H148709   6.110   1.053  16.177  0.1298  0.2236  1.1060
 9098TIP3    H248710   6.205   1.084  16.291  1.1177 -0.7638  0.5661
 9099TIP3   OH248711   0.012   4.791   0.013 -0.1063  0.1748 -0.0354
 9099TIP3    H148712  -0.065   4.798   0.069 -1.1314  2.6542 -1.5952
 9099TIP3    H248713   0.048   4.879   0.011  1.0696 -0.2952 -1.6440
 9100TIP3   OH248714   1.975   2.787  14.668  0.0732  0.6123 -0.1313
 9100TIP3    H148715   1.916   2.795  14.743 -0.1763  0.0720 -0.2690
 9100TIP3    H248716   1.917   2.766  14.594  0.6848 -3.2180  0.3009
 9101TIP3   OH248717   0.069   2.518  12.251 -0.6060  0.3207 -0.1188
 9101TIP3    H148718   0.028   2.433  12.233 -0.7459  0.4258 -0.3035
 9101TIP3    H248719  -0.001   2.572  12.288 -0.6324  0.4941 -0.4176
 9102TIP3   OH248720   6.048   5.081   4.347 -0.0573 -0.0807  0.3680
 9102TIP3    H148721   6.038   5.003   4.293  0.1139  0.4893 -0.5076
 9102TIP3    H248722   6.134   5.071   4.387  0.3910  0.1141 -0.5157
 9103TIP3   OH248723   0.818   5.233   3.413 -0.1756  0.0266  0.2876
 9103TIP3    H148724   0.807   5.146   3.452  1.0488  0.1777  1.0111
 9103TIP3    H248725   0.849   5.216   3.325 -2.0567 -0.2968 -0.3570
 9104TIP3   OH248726   3.854   5.978  16.567  0.1283  0.3816  0.7280
 9104TIP3    H148727   3.881   6.040  16.499  0.7969 -0.8414 -0.1421
 9104TIP3    H248728   3.908   5.901  16.553  0.2600  0.0766  2.6477
 9105TIP3   OH248729   5.590   2.390   2.835  0.2008  0.0168 -0.8657
 9105TIP3    H148730   5.526   2.459   2.856  0.3507  0.3242 -1.4053
 9105TIP3    H248731   5.539   2.309   2.836 -0.3862  0.3482 -2.1053
 9106TIP3   OH248732   0.710   3.708   1.491 -0.3753  0.2448  0.1151
 9106TIP3    H148733   0.667   3.782   1.533 -1.2069 -0.5847  0.7717
 9106TIP3    H248734   0.802   3.734   1.484 -0.4936  0.9958  1.1172
 9107TIP3   OH248735   1.023   4.038   0.615 -0.2411 -0.6678 -1.0094
 9107TIP3    H148736   1.104   3.989   0.601  0.1542  0.1724 -1.7802
 9107TIP3    H248737   0.973   4.024   0.534 -0.8161 -1.0754 -0.5888
 9108TIP3   OH248738   5.437   4.318  11.697  0.3938 -0.1097  0.2793
 9108TIP3    H148739   5.347   4.324  11.666  0.4334  0.4125  0.2590
 9108TIP3    H248740   5.471   4.237  11.658  0.3572  0.3883 -0.8141
 9109TIP3   OH248741   1.859   3.938  13.829  0.7580  0.2296  0.1805
 9109TIP3    H148742   1.870   4.022  13.784  2.1129 -0.4833 -0.8863
 9109TIP3    H248743   1.937   3.929  13.883  0.1131  0.1238  1.1131
 9110TIP3   OH248744   0.795   5.407   3.892  0.2125  0.3217  0.2749
 9110TIP3    H148745   0.841   5.327   3.868  0.7980  1.2258 -1.9430
 9110TIP3    H248746   0.702   5.383   3.889  0.4162 -0.5526  0.8006
 9111TIP3   OH248747   0.090   0.188   2.131  0.3913 -0.2326  0.2409
 9111TIP3    H148748   0.157   0.153   2.189  2.7505  1.8372 -1.0233
 9111TIP3    H248749   0.135   0.258   2.082 -2.1663 -0.0632 -2.1190
 9112TIP3   OH248750   6.099   1.969   2.216  0.2126  0.1304  1.1420
 9112TIP3    H148751   6.192   1.949   2.206  0.0273 -0.0521 -0.5416
 9112TIP3    H248752   6.096   2.065   2.223  0.5129  0.1692  0.8046
 9113TIP3   OH248753   6.271   3.364   2.645 -0.0461 -0.0914  0.1449
 9113TIP3    H148754   6.295   3.278   2.611  0.8962  0.8822 -1.8603
 9113TIP3    H248755   6.186   3.383   2.606  0.0308  0.1446  0.0928
 9114TIP3   OH248756   5.026   1.097   6.382 -0.2268 -0.3399 -0.0708
 9114TIP3    H148757   5.120   1.099   6.397 -0.3578  0.4228  0.7362
 9114TIP3    H248758   4.988   1.066   6.464 -0.7359  0.4608  0.0161
 9115TIP3   OH248759   5.404   0.289  11.487  0.3724 -0.1612  0.2006
 9115TIP3    H148760   5.350   0.252  11.418  0.2522 -0.8166  0.6364
 9115TIP3    H248761   5.375   0.380  11.494  1.2675  0.2909 -1.4582
 9116TIP3   OH248762   3.404   6.401  11.299  0.1710 -0.7447  0.9280
 9116TIP3    H148763   3.491   6.428  11.326 -0.3786  2.2210  0.0941
 9116TIP3    H248764   3.408   6.399  11.203 -1.0459  1.1989  0.7772
 9117TIP3   OH248765   0.578   0.352  16.150  0.2176 -0.6300 -0.1533
 9117TIP3    H148766   0.670   0.329  16.139  0.2570 -0.4689 -0.1625
 9117TIP3    H248767   0.541   0.343  16.062  0.2379 -0.6359 -0.1614
 9118TIP3   OH248768   2.066   3.808  12.610 -0.4709  0.7578  0.0327
 9118TIP3    H148769   2.159   3.821  12.590 -0.7551  0.2077 -1.8117
 9118TIP3    H248770   2.058   3.715  12.631 -0.8843  0.3830 -1.6739
 9119TIP3   OH248771   5.927   3.218   5.624 -0.2315 -0.2710 -0.3594
 9119TIP3    H148772   5.953   3.148   5.684  1.4061  0.5617 -0.0163
 9119TIP3    H248773   5.842   3.191   5.590  1.0016 -3.2123 -1.4503
 9120TIP3   OH248774   6.357   2.817   4.544  0.1887 -0.0972  0.0601
 9120TIP3    H148775   6.397   2.892   4.501 -0.4346 -0.7505 -1.7630
 9120TIP3    H248776   6.385   2.742   4.492 -0.8967 -0.8952  0.5841
 9121TIP3   OH248777   4.870   3.681   4.287  0.1523  0.0771 -0.4677
 9121TIP3    H148778   4.808   3.753   4.276  0.9981  0.8910 -0.0754
 9121TIP3    H248779   4.823   3.615   4.337 -0.3938  0.6838 -0.1672
 9122TIP3   OH248780   6.744   0.549  12.184  0.2622  0.0472 -0.6046
 9122TIP3    H148781   6.722   0.533  12.276  1.5363  1.4513 -0.0217
 9122TIP3    H248782   6.739   0.644  12.175 -0.7156 -0.1251 -2.2472
 9123TIP3   OH248783   1.408   6.554  16.610  0.0913 -0.7804 -0.4001
 9123TIP3    H148784   1.439   6.475  16.566 -2.7304 -1.7398 -0.8886
 9123TIP3    H248785   1.391   6.616  16.539 -0.0760 -0.6580 -0.2570
 9124TIP3   OH248786   1.937   5.649  14.266  0.3334 -0.3993  0.0216
 9124TIP3    H148787   1.993   5.613  14.335 -0.0782 -2.9463 -0.8666
 9124TIP3    H248788   1.967   5.740  14.256  0.8719 -0.1431  3.0022
 9125TIP3   OH248789   3.369   2.870  10.907  0.2727 -0.7413 -0.5068
 9125TIP3    H148790   3.451   2.875  10.955  0.2758 -0.1204 -0.5670
 9125TIP3    H248791   3.388   2.908  10.822 -0.3976  0.7267 -0.0549
 9126TIP3   OH248792   0.740   5.187   4.181  0.3134  0.2777 -0.2860
 9126TIP3    H148793   0.704   5.264   4.225 -3.6782 -0.8179 -1.2352
 9126TIP3    H248794   0.768   5.130   4.252 -0.0137  1.1420  0.5697
 9127TIP3   OH248795   4.216   1.026   1.195  0.6196 -0.6630  0.3540
 9127TIP3    H148796   4.302   0.988   1.215  1.2468  0.2084 -0.5442
 9127TIP3    H248797   4.180   1.049   1.281  0.9514 -1.7008  0.7961
 9128TIP3   OH248798   2.069   1.383  11.214 -0.5417  0.0308 -0.0874
 9128TIP3    H148799   2.158   1.386  11.248 -0.7721 -0.3385  0.5600
 9128TIP3    H248800   2.064   1.298  11.168 -0.6710 -0.1088  0.1851
 9129TIP3   OH248801   3.854   0.733  12.926  0.6304 -0.1315  0.3728
 9129TIP3    H148802   3.929   0.706  12.979 -1.0440 -2.0909  1.8973
 9129TIP3    H248803   3.843   0.663  12.862  0.2790  0.2795 -0.0199
 9130TIP3   OH248804   4.632   5.721  13.855 -0.7348  0.0362 -0.2569
 9130TIP3    H148805   4.641   5.817  13.850  0.8326  0.0277  1.4130
 9130TIP3    H248806   4.651   5.691  13.767 -0.5600  1.2261 -0.6487
 9131TIP3   OH248807   4.185   4.776   2.228 -0.4912 -0.0955  0.0315
 9131TIP3    H148808   4.150   4.841   2.168  1.7631  0.1263 -1.1404
 9131TIP3    H248809   4.184   4.694   2.179  0.3214 -0.1427  0.0784
 9132TIP3   OH248810   2.249   4.541  17.090 -0.2760  0.3302  0.5536
 9132TIP3    H148811   2.180   4.582  17.037  0.8274  0.7541 -0.5950
 9132TIP3    H248812   2.298   4.614  17.127 -0.3830  0.0287  1.3217
 9133TIP3   OH248813   3.716   2.357   1.985  0.2530 -0.1568 -0.4910
 9133TIP3    H148814   3.790   2.406   1.949  0.9705  0.1569  1.3069
 9133TIP3    H248815   3.649   2.423   2.001  0.2269 -0.1746 -0.5268
 9134TIP3   OH248816   2.309   0.063  11.807  0.1071  0.4347  0.6463
 9134TIP3    H148817   2.279   0.119  11.735  1.1562  0.2693  0.0583
 9134TIP3    H248818   2.230   0.019  11.838 -0.5505  1.3941  0.3791
 9135TIP3   OH248819   0.357   6.331  13.376 -0.0454 -0.1008 -0.0292
 9135TIP3    H148820   0.304   6.388  13.320  1.3534  1.1078 -0.1777
 9135TIP3    H248821   0.327   6.242  13.354 -0.4969  0.4115 -1.6894
 9136TIP3   OH248822   1.458   4.170  13.588  0.2216  0.4541 -0.1210
 9136TIP3    H148823   1.514   4.148  13.662  1.1945 -0.2116 -1.0317
 9136TIP3    H248824   1.466   4.096  13.528  0.5754  1.5816 -1.5342
 9137TIP3   OH248825   5.862   0.126   3.903 -0.0610  0.6370 -0.2528
 9137TIP3    H148826   5.867   0.051   3.843 -0.0406  0.8352 -0.4973
 9137TIP3    H248827   5.859   0.086   3.990  0.4824  0.3567 -0.3534
 9138TIP3   OH248828   1.165   0.877  14.422 -0.1823  0.0246  0.2275
 9138TIP3    H148829   1.107   0.832  14.484 -2.4446 -0.5645 -2.1433
 9138TIP3    H248830   1.124   0.963  14.410  1.2549  0.8377  0.8388
 9139TIP3   OH248831   1.627   0.178   5.757 -0.0473  0.5477  0.5154
 9139TIP3    H148832   1.579   0.140   5.829 -2.6709  0.6060 -1.0824
 9139TIP3    H248833   1.685   0.243   5.798  1.0464 -1.6976  2.8002
 9140TIP3   OH248834   0.835   1.830  10.783  0.3239 -0.1459  0.4764
 9140TIP3    H148835   0.925   1.796  10.781 -0.3350 -1.9685 -0.5657
 9140TIP3    H248836   0.823   1.861  10.872  1.8912 -0.1506  0.7154
 9141TIP3   OH248837   4.523   3.420   5.633 -0.1874 -0.0179  0.0177
 9141TIP3    H148838   4.551   3.464   5.553  0.0064 -1.1806 -0.5747
 9141TIP3    H248839   4.602   3.416   5.687 -0.7026  2.3591  1.0792
 9142TIP3   OH248840   4.048   4.857   0.130 -0.0404 -0.0911  0.1426
 9142TIP3    H148841   3.953   4.848   0.122  0.0351 -0.4218 -0.5164
 9142TIP3    H248842   4.070   4.808   0.209 -0.4496  0.2173  0.4499
 9143TIP3   OH248843   6.110   3.251  16.607 -0.1518  1.0525 -0.3001
 9143TIP3    H148844   6.019   3.279  16.613 -0.8538 -1.2457  1.0859
 9143TIP3    H248845   6.140   3.248  16.698  0.8874  0.5150 -0.6480
 9144TIP3   OH248846   5.126   2.836   2.826 -0.1953  0.2028 -0.5745
 9144TIP3    H148847   5.200   2.895   2.811  0.8238 -1.1576 -1.1325
 9144TIP3    H248848   5.153   2.753   2.787 -2.0016 -0.3633 -0.7377
 9145TIP3   OH248849   2.306   3.978   1.950  0.1391  0.0421  0.4218
 9145TIP3    H148850   2.398   3.989   1.973 -0.4126  2.3357  1.8752
 9145TIP3    H248851   2.258   4.012   2.026 -1.8740  0.3708 -0.9119
 9146TIP3   OH248852   0.176   1.246   4.867 -0.7914  0.3779  0.3335
 9146TIP3    H148853   0.181   1.166   4.919  1.1079 -0.3930 -0.8894
 9146TIP3    H248854   0.251   1.298   4.896 -1.2911  1.1558  0.2519
 9147TIP3   OH248855   0.230   0.235   5.472 -0.3381  0.3049  0.0630
 9147TIP3    H148856   0.174   0.309   5.449 -0.1716  0.2665 -0.4750
 9147TIP3    H248857   0.283   0.267   5.545 -2.9702 -0.5476  2.5199
 9148TIP3   OH248858   5.210   5.259  15.251 -0.3507  0.2641 -0.0119
 9148TIP3    H148859   5.298   5.230  15.229  0.2953  3.6174 -2.9050
 9148TIP3    H248860   5.222   5.344  15.293 -2.1516  0.6961 -0.2462
 9149TIP3   OH248861   3.965   5.835   4.875  0.3868 -0.0612  0.4201
 9149TIP3    H148862   3.988   5.751   4.835 -0.3220  0.3708 -0.9463
 9149TIP3    H248863   4.047   5.883   4.879  0.3830  0.1281 -1.1462
 9150TIP3   OH248864   5.499   6.403   6.296  0.2485  0.2856  0.1276
 9150TIP3    H148865   5.457   6.458   6.230 -4.0516 -1.0172  1.4848
 9150TIP3    H248866   5.500   6.315   6.257 -0.0961 -0.0447  0.8419
 9151TIP3   OH248867   5.829   5.820  16.543 -0.0995 -0.3806 -0.2076
 9151TIP3    H148868   5.888   5.883  16.583 -0.5800 -0.7405  1.1392
 9151TIP3    H248869   5.782   5.870  16.476 -0.6051  0.7763  0.9551
 9152TIP3   OH248870   3.740   5.426  11.654 -0.5822  0.1345 -0.2371
 9152TIP3    H148871   3.780   5.415  11.567 -1.3401  0.2821 -0.6083
 9152TIP3    H248872   3.646   5.425  11.638 -0.7378 -0.4886  0.6718
 9153TIP3   OH248873   4.062   4.231  14.251 -0.4335  0.3268 -0.3432
 9153TIP3    H148874   4.093   4.178  14.325 -0.7342  0.1665 -0.3329
 9153TIP3    H248875   4.056   4.170  14.178 -1.8546  0.0837 -0.0618
 9154TIP3   OH248876   1.862   2.213  10.834 -0.1289 -0.8026 -0.2252
 9154TIP3    H148877   1.828   2.236  10.747  0.6473 -1.6272 -0.7645
 9154TIP3    H248878   1.909   2.292  10.863  0.1026 -0.7194 -0.8152
 9155TIP3   OH248879   6.067   1.145  12.767 -0.2548  0.3872 -0.3637
 9155TIP3    H148880   5.972   1.139  12.765 -0.3194  1.4366 -1.0443
 9155TIP3    H248881   6.085   1.238  12.779  0.6858  0.0277  1.4027
 9156TIP3   OH248882   0.719   4.450  12.810 -0.5158  0.8272 -0.0516
 9156TIP3    H148883   0.668   4.450  12.729 -1.6276  0.0992  0.6172
 9156TIP3    H248884   0.727   4.357  12.833  1.7227  0.8548 -0.4816
 9157TIP3   OH248885   0.445   2.090   2.545  0.0340 -0.4691  0.3039
 9157TIP3    H148886   0.386   2.024   2.509  0.6911  0.5233 -2.8445
 9157TIP3    H248887   0.528   2.043   2.556 -0.4744 -1.0961  1.9536
 9158TIP3   OH248888   2.388   4.919  15.596 -0.4306  0.3133  0.2259
 9158TIP3    H148889   2.446   4.914  15.673 -0.2074 -2.7577 -0.0183
 9158TIP3    H248890   2.417   4.998  15.550  0.4960  1.3691  2.4263
 9159TIP3   OH248891   0.539   1.690   4.488 -0.4530 -0.3717 -0.6584
 9159TIP3    H148892   0.459   1.688   4.540  0.3296  0.2994  0.6264
 9159TIP3    H248893   0.518   1.639   4.410 -2.0103 -0.5043 -0.1889
 9160TIP3   OH248894   5.324   1.957  11.560  0.2468  0.2712 -0.2867
 9160TIP3    H148895   5.246   2.002  11.527 -0.1561 -0.9020 -0.9827
 9160TIP3    H248896   5.371   1.930  11.480 -0.5734 -2.3472  0.0327
 9161TIP3   OH248897   1.144   4.946  14.603  0.1621  0.0169  0.0821
 9161TIP3    H148898   1.119   5.027  14.646  0.9743  0.1584  0.2985
 9161TIP3    H248899   1.168   4.973  14.514 -0.3391 -0.1070 -0.0970
 9162TIP3   OH248900   2.331   3.711   6.141 -0.3034 -0.2088 -0.7067
 9162TIP3    H148901   2.259   3.774   6.134 -0.9818 -0.8736  0.1600
 9162TIP3    H248902   2.307   3.641   6.080 -1.7900 -1.7313  1.4888
 9163TIP3   OH248903   1.330   1.867   2.072 -0.0804  0.0311 -0.4651
 9163TIP3    H148904   1.284   1.950   2.082 -1.1224 -0.4716 -0.9585
 9163TIP3    H248905   1.390   1.881   1.999  1.3180  0.9930  0.7881
 9164TIP3   OH248906   2.596   2.247  16.099  0.1178 -0.3566 -0.0981
 9164TIP3    H148907   2.511   2.236  16.056 -0.0383 -0.7835  0.3163
 9164TIP3    H248908   2.644   2.308  16.042  0.6063 -2.3074 -1.9273
 9165TIP3   OH248909   5.440   5.296   5.734  0.4302  0.6276 -0.3339
 9165TIP3    H148910   5.526   5.336   5.728 -0.2373  2.2624  0.4036
 9165TIP3    H248911   5.391   5.331   5.660  0.1636  0.3274 -0.3018
 9166TIP3   OH248912   2.351   4.260  12.793  0.0664 -0.1407  0.1606
 9166TIP3    H148913   2.258   4.282  12.798  0.3566  0.8534  2.0486
 9166TIP3    H248914   2.352   4.164  12.787 -1.0720 -0.1203 -0.7423
 9167TIP3   OH248915   3.104   5.199   3.406  0.2796  0.2339  0.4394
 9167TIP3    H148916   3.061   5.116   3.389  1.3972 -0.8101  2.2861
 9167TIP3    H248917   3.191   5.190   3.368  0.4775  0.4572  0.8229
 9168TIP3   OH248918   1.067   5.453   5.919 -0.2222  0.7641  0.1522
 9168TIP3    H148919   1.063   5.540   5.878 -0.3832  0.6934  0.0203
 9168TIP3    H248920   1.141   5.410   5.876 -1.0496  0.2878 -0.8516
 9169TIP3   OH248921   4.129   1.410  13.780  0.0583  0.5345 -0.4669
 9169TIP3    H148922   4.177   1.413  13.697  0.5082  0.2093 -0.2161
 9169TIP3    H248923   4.165   1.482  13.831  1.1217 -0.4366  0.1796
 9170TIP3   OH248924   1.006   2.452  17.017 -0.4516 -0.3180 -0.2270
 9170TIP3    H148925   1.082   2.417  17.063 -1.5486 -1.6580  0.6697
 9170TIP3    H248926   1.041   2.494  16.939  1.2047 -0.7139  0.2783
 9171TIP3   OH248927   2.971   5.985  16.304  0.2211 -1.1924  0.0898
 9171TIP3    H148928   2.992   5.937  16.384 -1.5839 -2.5504 -0.1908
 9171TIP3    H248929   2.935   5.919  16.245 -0.8092  0.2220 -0.9401
 9172TIP3   OH248930   4.473   1.162  11.898 -0.3582  0.6088  0.2875
 9172TIP3    H148931   4.444   1.140  11.987 -0.2592 -1.0625 -0.0548
 9172TIP3    H248932   4.522   1.085  11.869  1.1034  1.8116 -0.5937
 9173TIP3   OH248933   5.980   2.098   4.663  0.5165 -0.7479 -0.0829
 9173TIP3    H148934   6.053   2.154   4.638  1.0385 -2.1106 -1.8398
 9173TIP3    H248935   5.982   2.097   4.758  1.4698  0.9075 -0.0491
 9174TIP3   OH248936   0.379   0.722  16.312 -0.8347  0.4644 -0.4823
 9174TIP3    H148937   0.378   0.626  16.310 -0.5407  0.4477 -0.0475
 9174TIP3    H248938   0.421   0.748  16.231 -1.3144  0.2369 -0.8095
 9175TIP3   OH248939   6.295   2.823  12.807 -0.0560  0.0768  0.0887
 9175TIP3    H148940   6.346   2.789  12.881  1.1725  1.3535 -0.1244
 9175TIP3    H248941   6.361   2.858  12.747 -1.1472  1.6861 -0.2408
 9176TIP3   OH248942   4.534   6.308   5.105  0.0160 -0.1563 -0.3246
 9176TIP3    H148943   4.484   6.237   5.146 -3.1330  2.1550  0.1686
 9176TIP3    H248944   4.501   6.388   5.146  2.7908  1.7345 -1.4644
 9177TIP3   OH248945   1.989   3.361   5.260 -0.0903 -0.3942 -0.5587
 9177TIP3    H148946   2.020   3.411   5.185  0.3089 -1.1826 -0.9383
 9177TIP3    H248947   1.944   3.425   5.315  0.6033  0.4150 -0.9118
 9178TIP3   OH248948   5.056   6.215  12.927  0.3816 -0.1026 -0.6877
 9178TIP3    H148949   5.001   6.274  12.979 -0.1161 -1.3928  0.2930
 9178TIP3    H248950   5.073   6.263  12.846  1.1007  1.9410  0.5914
 9179TIP3   OH248951   3.185   6.017  14.263 -0.0238 -0.5012  0.3409
 9179TIP3    H148952   3.277   6.034  14.244 -0.4105  0.6315 -0.6729
 9179TIP3    H248953   3.156   6.094  14.312 -0.2260 -1.2523  1.4188
 9180TIP3   OH248954   2.421   4.270  16.698 -0.1828 -0.1102  0.4013
 9180TIP3    H148955   2.396   4.361  16.680  1.5914  0.2677 -0.2901
 9180TIP3    H248956   2.415   4.226  16.613 -0.0644 -0.4055  0.5428
 9181TIP3   OH248957   5.524   2.416  10.928  0.3000  0.4192  0.4290
 9181TIP3    H148958   5.553   2.403  11.018 -3.4079  1.1023  1.9067
 9181TIP3    H248959   5.549   2.506  10.907  5.0860 -0.9751 -1.0848
 9182TIP3   OH248960   4.759   0.901  15.143 -0.7169  0.4582 -0.8098
 9182TIP3    H148961   4.822   0.910  15.072 -1.3734  1.9343 -1.2549
 9182TIP3    H248962   4.689   0.963  15.121 -0.9980  0.8684  1.0359
 9183TIP3   OH248963   5.127   5.786   5.391 -0.6557  0.1367 -0.1120
 9183TIP3    H148964   5.076   5.852   5.438 -0.6849 -1.3359  2.0700
 9183TIP3    H248965   5.217   5.798   5.421 -0.7829 -1.2573  0.9699
 9184TIP3   OH248966   3.552   5.841  10.877 -0.0397 -0.6923 -0.1116
 9184TIP3    H148967   3.569   5.822  10.784  0.4013  1.0418 -0.4253
 9184TIP3    H248968   3.636   5.825  10.920  0.3882  0.6110 -0.4081
 9185TIP3   OH248969   6.326   5.860   2.577 -0.4219 -0.6493 -0.0335
 9185TIP3    H148970   6.330   5.832   2.486  0.7459 -2.1963  0.4621
 9185TIP3    H248971   6.372   5.792   2.626 -0.3504  0.5284  1.6337
 9186TIP3   OH248972   3.156   3.843   3.249  0.6256 -0.1869  0.4150
 9186TIP3    H148973   3.247   3.812   3.251  1.1727  1.3596  0.6086
 9186TIP3    H248974   3.159   3.924   3.199 -0.8638 -0.6995 -0.5723
 9187TIP3   OH248975   0.625   5.103  14.437  0.4072  0.2559  0.5473
 9187TIP3    H148976   0.708   5.056  14.435  0.9141  1.1176 -0.9065
 9187TIP3    H248977   0.570   5.053  14.497  1.1710 -1.7278 -0.3149
 9188TIP3   OH248978   2.128   3.629   5.393 -0.4888 -0.4684 -0.4208
 9188TIP3    H148979   2.041   3.657   5.423 -0.3834 -1.3333  0.7841
 9188TIP3    H248980   2.185   3.702   5.414 -0.7190 -0.4016 -0.0033
 9189TIP3   OH248981   3.740   0.206  14.827  0.3186  0.2386  0.3042
 9189TIP3    H148982   3.766   0.163  14.746  0.3827 -0.0069  0.4552
 9189TIP3    H248983   3.762   0.144  14.896 -0.0410  0.3105  0.4866
 9190TIP3   OH248984   6.275   0.147   5.123  0.6918  0.3360  0.2940
 9190TIP3    H148985   6.220   0.082   5.166  2.1961 -1.4063 -0.2737
 9190TIP3    H248986   6.215   0.217   5.097 -1.0873 -1.0774  0.4616
 9191TIP3   OH248987   3.045   5.372  15.581 -0.2736 -0.1524 -0.4445
 9191TIP3    H148988   3.137   5.364  15.608 -0.7063 -1.3305  0.7762
 9191TIP3    H248989   3.014   5.451  15.624  0.1810  0.3078 -0.9435
 9192TIP3   OH248990   3.459   0.044   1.983 -0.1312  0.0891 -0.7074
 9192TIP3    H148991   3.503   0.073   2.062  0.0658  1.0503 -1.1515
 9192TIP3    H248992   3.370   0.080   1.991 -0.1031  0.2133 -0.9205
 9193TIP3   OH248993   6.216   2.164   0.463  0.9884 -0.3787  0.2481
 9193TIP3    H148994   6.300   2.125   0.437  0.8230 -0.1229 -0.7020
 9193TIP3    H248995   6.238   2.253   0.491  0.8239  0.3512 -1.8013
 9194TIP3   OH248996   2.556   1.924  14.928  0.3903 -0.0815 -0.0500
 9194TIP3    H148997   2.601   1.878  14.999  0.8172  0.0253 -0.2468
 9194TIP3    H248998   2.622   1.932  14.859  0.2875  0.7204 -0.0654
 9195TIP3   OH248999   1.046   2.840   0.063 -0.6076  0.3509  0.0935
 9195TIP3    H149000   1.079   2.798   0.143  0.9935  2.0673  0.3990
 9195TIP3    H249001   0.994   2.772   0.020  1.4499 -1.7824  0.7902
 9196TIP3   OH249002   6.247   1.847   5.091  0.2535  0.6224  0.3457
 9196TIP3    H149003   6.216   1.927   5.048 -0.4203  0.8761  1.2540
 9196TIP3    H249004   6.195   1.842   5.172 -0.0014 -0.9474  0.1199
 9197TIP3   OH249005   5.816   1.529  11.704  0.3923  0.4943  0.0890
 9197TIP3    H149006   5.750   1.596  11.690  1.0225  0.7258 -2.3327
 9197TIP3    H249007   5.898   1.569  11.674  0.6118 -1.6070 -2.5839
 9198TIP3   OH249008   5.054   0.926  16.747  0.3720 -0.5834  0.0292
 9198TIP3    H149009   5.106   1.004  16.768  0.6793 -0.9088  0.4872
 9198TIP3    H249010   5.072   0.910  16.654 -1.1890  1.0057 -0.6212
 9199TIP3   OH249011   1.619   5.307   1.247 -0.0808 -0.1652  0.3036
 9199TIP3    H149012   1.628   5.342   1.335  1.5690  1.6815 -0.5180
 9199TIP3    H249013   1.577   5.222   1.259  0.6166 -0.2231  2.9081
 9200TIP3   OH249014   3.442   5.203   5.795  0.3973  0.4367  0.0762
 9200TIP3    H149015   3.438   5.248   5.879  0.6704 -0.1521  0.4124
 9200TIP3    H249016   3.487   5.120   5.814 -0.2113 -0.0382 -0.4985
 9201TIP3   OH249017   4.128   6.106   1.137 -0.2750 -0.5946  0.0903
 9201TIP3    H149018   4.083   6.022   1.142  0.6897 -1.2663 -1.9186
 9201TIP3    H249019   4.206   6.095   1.191 -0.4341 -0.7842  0.2849
 9202TIP3   OH249020   5.846   5.523  15.958  0.1852  0.0714  0.3804
 9202TIP3    H149021   5.840   5.516  15.863  0.5675  2.8409  0.0650
 9202TIP3    H249022   5.938   5.545  15.974 -0.0702  0.5050  1.3063
 9203TIP3   OH249023   5.654   2.187  11.707  0.1393 -0.4067  0.2904
 9203TIP3    H149024   5.710   2.146  11.641 -1.5209  0.3395 -1.6658
 9203TIP3    H249025   5.698   2.168  11.790  3.4622  0.4093 -1.1117
 9204TIP3   OH249026   6.473   1.157   3.329  0.2525 -0.0061 -0.2149
 9204TIP3    H149027   6.547   1.211   3.300 -0.2541  0.0530 -1.4684
 9204TIP3    H249028   6.480   1.077   3.276 -0.5659 -0.0040 -0.3351
 9205TIP3   OH249029   1.824   4.216  12.064  0.1761  0.1734 -0.0145
 9205TIP3    H149030   1.821   4.123  12.088 -3.1868  0.2073  0.1413
 9205TIP3    H249031   1.839   4.215  11.969  0.7769 -0.4605  0.0717
 9206TIP3   OH249032   0.591   4.359  15.232  0.3375  0.1748 -0.2815
 9206TIP3    H149033   0.650   4.311  15.174 -1.7848 -0.5260 -1.9931
 9206TIP3    H249034   0.520   4.297  15.252 -0.4075  1.3167  0.7773
 9207TIP3   OH249035   2.575   3.340   1.221  0.0824 -0.7771 -0.4934
 9207TIP3    H149036   2.504   3.276   1.216 -0.5019 -0.3017  1.1587
 9207TIP3    H249037   2.534   3.422   1.194  0.5403 -0.8645 -1.4941
 9208TIP3   OH249038   4.568   5.212   2.530 -0.7725 -0.5852  0.3225
 9208TIP3    H149039   4.590   5.270   2.457  0.1803  1.1048  1.8498
 9208TIP3    H249040   4.590   5.124   2.499  2.1240  0.3417 -0.5452
 9209TIP3   OH249041   1.196   5.026  12.803 -0.2290  0.2908  0.3204
 9209TIP3    H149042   1.253   5.012  12.879  0.9706 -2.5461 -0.9447
 9209TIP3    H249043   1.254   5.060  12.735 -0.7103  0.3094 -0.0883
 9210TIP3   OH249044   2.711   6.683  14.516 -0.2902 -0.0903  0.3437
 9210TIP3    H149045   2.799   6.658  14.487 -0.7845 -1.3174 -0.2006
 9210TIP3    H249046   2.653   6.631  14.461 -1.3727  0.9748  0.4514
 9211TIP3   OH249047   1.237   4.308   5.589  0.5219  0.0686  0.4068
 9211TIP3    H149048   1.299   4.311   5.516 -0.0437 -1.9411 -0.2310
 9211TIP3    H249049   1.151   4.305   5.547  0.1527 -0.4250  1.1798
 9212TIP3   OH249050   4.885   3.492  12.670  0.0501 -0.1340 -0.1167
 9212TIP3    H149051   4.979   3.506  12.655 -0.1226 -0.0069 -1.2155
 9212TIP3    H249052   4.852   3.578  12.694 -0.0195  0.1461 -1.1609
 9213TIP3   OH249053   2.291   1.221  14.997 -0.1009  0.1607 -0.5664
 9213TIP3    H149054   2.246   1.305  14.984  1.6838  1.4475  0.9272
 9213TIP3    H249055   2.257   1.189  15.081  0.4641  0.2704 -0.2908
 9214TIP3   OH249056   0.540   4.812  11.787 -0.1288 -0.0609  0.0859
 9214TIP3    H149057   0.595   4.742  11.824 -1.7819 -2.0544 -1.0324
 9214TIP3    H249058   0.545   4.799  11.692 -2.2089 -0.0714 -0.0569
 9215TIP3   OH249059   5.703   1.081  11.712  0.1268 -0.3042 -0.2416
 9215TIP3    H149060   5.695   0.988  11.733 -0.5641 -0.1258  0.3448
 9215TIP3    H249061   5.658   1.126  11.784 -0.3262  0.4433 -0.9658
 9216TIP3   OH249062   6.395   3.570  13.829  0.1819  0.1239  0.4388
 9216TIP3    H149063   6.336   3.494  13.837  0.7330 -0.1771  2.2671
 9216TIP3    H249064   6.339   3.645  13.845 -0.1497  0.0202 -0.2130
 9217TIP3   OH249065   1.035   5.264   2.060 -0.2300  0.4679 -0.1227
 9217TIP3    H149066   0.972   5.286   1.992 -0.7997  1.7084  0.7772
 9217TIP3    H249067   1.015   5.172   2.082 -0.7880  0.4150 -0.8136
 9218TIP3   OH249068   2.452   4.439   4.651 -0.3366  0.1532 -0.1027
 9218TIP3    H149069   2.372   4.492   4.641 -0.0276  0.9661  1.4429
 9218TIP3    H249070   2.521   4.495   4.615 -0.0256  0.8221  1.4379
 9219TIP3   OH249071   5.599   3.067  12.970  0.4421 -0.2329  0.4910
 9219TIP3    H149072   5.603   3.014  13.050  1.9665 -1.5049 -0.3845
 9219TIP3    H249073   5.655   3.021  12.907  0.7484  1.7209 -0.7494
 9220TIP3   OH249074   4.818   4.912  15.708 -0.5512 -0.0188 -0.6476
 9220TIP3    H149075   4.888   4.847  15.700 -1.3877 -1.0954  0.3436
 9220TIP3    H249076   4.843   4.966  15.782 -0.7184 -0.3534 -0.3438
 9221TIP3   OH249077   3.930   5.692  13.962  0.4740  0.1909 -0.1466
 9221TIP3    H149078   3.992   5.622  13.943 -1.0497 -0.6539 -2.4792
 9221TIP3    H249079   3.971   5.771  13.929  1.7515  0.2726  1.5332
 9222TIP3   OH249080   3.572   1.743  12.927 -0.1463 -0.2661 -0.8103
 9222TIP3    H149081   3.566   1.666  12.870 -1.7230  0.3705 -1.5955
 9222TIP3    H249082   3.543   1.815  12.871 -2.4719  0.2953  0.9478
 9223TIP3   OH249083   5.192   6.271  15.073  0.5612  0.1416  0.0639
 9223TIP3    H149084   5.117   6.228  15.030 -0.7225  2.1356  0.1837
 9223TIP3    H249085   5.196   6.230  15.159  0.6852 -1.1541 -0.5274
 9224TIP3   OH249086   1.129   5.002  12.365  0.5705  0.4951 -0.2799
 9224TIP3    H149087   1.157   4.911  12.370  1.3330  0.8102  1.8994
 9224TIP3    H249088   1.033   4.998  12.373  0.5965 -0.0981 -0.2540
 9225TIP3   OH249089   4.170   3.692  12.407  0.4166 -0.0705 -0.5286
 9225TIP3    H149090   4.083   3.694  12.366  0.7491 -0.4093 -1.2541
 9225TIP3    H249091   4.230   3.675  12.335  1.1123  0.3610 -0.0602
 9226TIP3   OH249092   4.541   6.249  12.002 -0.4453  0.1532 -0.2261
 9226TIP3    H149093   4.462   6.229  12.052 -1.3584  0.1870 -1.6211
 9226TIP3    H249094   4.554   6.173  11.946  1.1883 -0.3587  0.7839
 9227TIP3   OH249095   3.058   1.193  11.785  0.9685 -0.5218  0.7274
 9227TIP3    H149096   3.109   1.176  11.864  0.9067  0.9943  1.1243
 9227TIP3    H249097   2.985   1.248  11.814 -0.6274 -2.1995  0.0688
 9228TIP3   OH249098   2.029   4.195  14.564 -0.1061 -0.2868  0.2538
 9228TIP3    H149099   2.097   4.244  14.610 -0.5614 -0.4973  1.1872
 9228TIP3    H249100   2.052   4.203  14.471  0.4718  0.7151  0.4608
 9229TIP3   OH249101   1.673   1.353   3.278  0.1807 -0.1104  0.0648
 9229TIP3    H149102   1.733   1.363   3.205  0.5850  2.3317  0.6431
 9229TIP3    H249103   1.617   1.279   3.254  1.1724 -0.2287 -2.0482
 9230TIP3   OH249104   5.615   0.929   0.014  0.3757  0.1715 -0.5273
 9230TIP3    H149105   5.558   0.905  -0.059  1.5538 -0.2309 -1.3460
 9230TIP3    H249106   5.561   0.986   0.069 -1.8285 -2.4882  0.3316
 9231TIP3   OH249107   2.498   3.525   3.787 -0.3755 -0.4630  0.0381
 9231TIP3    H149108   2.475   3.582   3.714  2.0887  0.2635 -0.2443
 9231TIP3    H249109   2.463   3.439   3.763 -1.1599  0.1659 -1.1247
 9232TIP3   OH249110   3.715   0.687   5.207 -1.1509 -0.5605  0.4861
 9232TIP3    H149111   3.706   0.595   5.231  2.4511 -1.3475 -0.6070
 9232TIP3    H249112   3.752   0.729   5.284 -0.5067 -0.5777  0.1918
 9233TIP3   OH249113   0.219   4.548  10.820 -0.2187 -0.2085 -0.1774
 9233TIP3    H149114   0.126   4.573  10.817 -0.9683 -2.4567  1.7451
 9233TIP3    H249115   0.260   4.614  10.875 -1.3394 -0.8770  1.5230
 9234TIP3   OH249116   4.727   4.737   1.804  0.2966  0.1718 -0.1136
 9234TIP3    H149117   4.701   4.667   1.744  0.6745  0.9026 -1.1496
 9234TIP3    H249118   4.795   4.698   1.858 -0.4710 -0.6849  0.2745
 9235TIP3   OH249119   1.461   1.377  15.212 -0.2971  0.3606 -0.4740
 9235TIP3    H149120   1.381   1.416  15.246 -0.2748 -0.9550  1.1745
 9235TIP3    H249121   1.433   1.295  15.171  0.1855 -0.1733  0.2264
 9236TIP3   OH249122   6.485   1.266   4.389  0.2052  0.0382 -0.1838
 9236TIP3    H149123   6.577   1.244   4.404 -0.2797 -1.8318  0.2466
 9236TIP3    H249124   6.471   1.245   4.296 -0.0218 -0.5930 -0.0090
 9237TIP3   OH249125   5.502   4.511  16.713  0.4242 -0.1905 -0.6963
 9237TIP3    H149126   5.424   4.459  16.694  0.1834  0.1656 -0.6874
 9237TIP3    H249127   5.482   4.554  16.797  0.1038  0.9071 -1.3223
 9238TIP3   OH249128   1.766   4.219  12.517  0.1858  0.3880  0.0452
 9238TIP3    H149129   1.816   4.142  12.492  0.9951  0.7465  0.5477
 9238TIP3    H249130   1.790   4.235  12.608 -1.3642  0.1637  0.5227
 9239TIP3   OH249131   1.334   5.289   3.285 -0.0073  0.2122 -0.1627
 9239TIP3    H149132   1.297   5.371   3.318  0.0536  0.3773 -0.4979
 9239TIP3    H249133   1.338   5.302   3.190 -0.4661 -0.3713 -0.2645
 9240TIP3   OH249134   5.841   4.762   2.369  0.2535  0.5645 -0.1185
 9240TIP3    H149135   5.869   4.734   2.282  1.1057 -0.1783  0.3718
 9240TIP3    H249136   5.761   4.712   2.385 -0.0592  0.9092 -0.5753
 9241TIP3   OH249137   4.750   6.122   1.458  0.1549  0.2057  0.6760
 9241TIP3    H149138   4.785   6.074   1.533 -1.1363 -1.1628  0.4514
 9241TIP3    H249139   4.664   6.153   1.488  0.4428  1.3336  0.3919
 9242TIP3   OH249140   1.365   1.392   2.319  0.0992 -0.1635 -0.3839
 9242TIP3    H149141   1.279   1.428   2.341 -0.7745 -2.2244 -0.2041
 9242TIP3    H249142   1.418   1.406   2.398 -0.5220 -0.1787  0.0460
 9243TIP3   OH249143   2.304   6.706  12.792 -0.5764 -0.1091  0.1415
 9243TIP3    H149144   2.394   6.719  12.762 -0.3169 -0.5043  0.7282
 9243TIP3    H249145   2.287   6.780  12.850 -0.5173 -0.2101  0.2872
 9244TIP3   OH249146   2.221   6.554  14.700 -0.4740 -0.3604  0.1381
 9244TIP3    H149147   2.312   6.575  14.720 -0.4709  1.1704 -1.2547
 9244TIP3    H249148   2.226   6.506  14.617 -0.9328 -0.1544 -0.0103
 9245TIP3   OH249149   6.070   5.182   0.270 -0.0189 -0.2802 -0.2364
 9245TIP3    H149150   6.006   5.177   0.200 -1.0454 -0.8779  0.7137
 9245TIP3    H249151   6.105   5.271   0.265  1.0110 -0.7578 -2.4054
 9246TIP3   OH249152   3.922   2.546   0.957  0.3323  0.0359 -0.2953
 9246TIP3    H149153   3.849   2.533   1.018 -0.1000  0.4439 -0.7224
 9246TIP3    H249154   3.894   2.503   0.877  1.0025 -0.7091 -0.1429
 9247TIP3   OH249155   5.312   0.643   2.436  0.3960 -0.7046  0.1811
 9247TIP3    H149156   5.372   0.647   2.510  1.4522 -0.7928 -0.6409
 9247TIP3    H249157   5.250   0.574   2.459  0.7716 -0.7951  0.9342
 9248TIP3   OH249158   1.719   2.494   4.904 -0.2564 -0.2464 -0.0058
 9248TIP3    H149159   1.658   2.430   4.866  0.9329 -1.2393 -0.2867
 9248TIP3    H249160   1.662   2.557   4.949 -1.5379 -0.6590 -0.9829
 9249TIP3   OH249161   4.649   6.414  15.807 -0.0174  0.1730 -0.6325
 9249TIP3    H149162   4.657   6.391  15.714 -1.0957 -2.3132 -0.1871
 9249TIP3    H249163   4.723   6.370  15.848 -0.9080 -0.7727 -0.0127
 9250TIP3   OH249164   5.545   2.793   2.775  0.5503 -0.0180 -0.1475
 9250TIP3    H149165   5.586   2.796   2.688  2.3948 -1.2286  0.6051
 9250TIP3    H249166   5.602   2.848   2.830  1.6562 -2.2218  1.0595
 9251TIP3   OH249167   1.721   3.052   2.770 -0.1789  0.0496 -0.1828
 9251TIP3    H149168   1.770   2.986   2.819 -0.0910 -0.9480 -1.5665
 9251TIP3    H249169   1.772   3.133   2.782 -0.8547  0.1841  2.4080
 9252TIP3   OH249170   4.260   4.763  14.967 -0.0588  0.6898  0.6556
 9252TIP3    H149171   4.180   4.726  14.931 -0.2539  0.8776  0.8964
 9252TIP3    H249172   4.307   4.689  15.006  0.2385  0.4502 -0.1361
 9253TIP3   OH249173   6.030   5.741   2.323 -0.0825  0.5114 -0.4561
 9253TIP3    H149174   5.953   5.777   2.368  0.1152  0.2643  0.0806
 9253TIP3    H249175   6.017   5.647   2.325  0.0660  0.4865 -0.6735
 9254TIP3   OH249176   5.088   1.075   6.114  0.3015  0.0712  0.0446
 9254TIP3    H149177   5.125   0.997   6.154  0.9588  0.6563  0.5983
 9254TIP3    H249178   5.022   1.105   6.176 -0.6571 -0.5840 -0.6246
 9255TIP3   OH249179   5.211   1.197   4.692 -0.1180  0.1396 -0.0463
 9255TIP3    H149180   5.158   1.160   4.621 -0.0800 -1.2123  0.6012
 9255TIP3    H249181   5.292   1.146   4.690  0.3638  0.8812  0.2292
 9256TIP3   OH249182   1.445   2.991  13.997  0.1073 -0.0978 -0.2956
 9256TIP3    H149183   1.512   2.923  13.991  0.5238  0.2683  0.0674
 9256TIP3    H249184   1.444   3.015  14.090  0.1419  0.5597 -0.4598
 9257TIP3   OH249185   5.340   2.702   2.129  0.6547 -0.1191  0.0111
 9257TIP3    H149186   5.379   2.788   2.144 -3.3035  1.5875  1.8217
 9257TIP3    H249187   5.319   2.701   2.036  1.3589  0.5259 -0.1654
 9258TIP3   OH249188   1.721   5.946   4.852  0.3637 -0.0594  0.3285
 9258TIP3    H149189   1.793   5.991   4.809  0.2756 -0.0453  0.1948
 9258TIP3    H249190   1.758   5.864   4.883  0.0329 -0.8375 -1.2320
 9259TIP3   OH249191   2.947   1.135  14.891  0.5752 -0.4472 -0.1661
 9259TIP3    H149192   2.926   1.052  14.848  0.2988 -0.2142 -0.4896
 9259TIP3    H249193   3.032   1.120  14.932  1.5778 -0.2036 -2.0501
 9260TIP3   OH249194   2.319   4.102  13.839  0.5968  0.3150 -0.0354
 9260TIP3    H149195   2.224   4.118  13.835 -0.0249 -2.3125  1.7803
 9260TIP3    H249196   2.357   4.172  13.785 -2.2101  2.5646  0.6501
 9261TIP3   OH249197   1.425   5.564   4.484  0.2154 -0.2535  0.2270
 9261TIP3    H149198   1.483   5.635   4.456 -0.0657 -0.1430 -0.0902
 9261TIP3    H249199   1.367   5.604   4.549 -0.6532  0.1117 -0.7239
 9262TIP3   OH249200   4.740   4.625   3.660  0.5775 -0.1870 -0.4850
 9262TIP3    H149201   4.685   4.654   3.586 -1.5376 -0.9100  0.7275
 9262TIP3    H249202   4.717   4.533   3.672  0.3372  0.0879  1.4965
 9263TIP3   OH249203   5.209   5.897   2.119  0.4091 -0.0238 -0.0152
 9263TIP3    H149204   5.297   5.866   2.139  0.5701  0.8924  0.7480
 9263TIP3    H249205   5.158   5.816   2.108  0.5187 -0.6853  3.1998
 9264TIP3   OH249206   3.951   6.739   4.572 -0.4046 -0.4225  0.0143
 9264TIP3    H149207   4.044   6.756   4.562 -0.2867 -1.3861 -0.5851
 9264TIP3    H249208   3.923   6.705   4.487 -1.5063  0.7366 -0.1197
 9265TIP3   OH249209   4.827   0.587   1.196 -0.2585  0.0843  0.4352
 9265TIP3    H149210   4.791   0.502   1.170 -1.3867  0.0444  1.9500
 9265TIP3    H249211   4.804   0.646   1.124 -0.5712 -0.6366 -0.0628
 9266TIP3   OH249212   5.340   1.174   3.325  0.0882 -0.0696 -0.0781
 9266TIP3    H149213   5.352   1.269   3.327  0.8487 -0.1395 -0.8391
 9266TIP3    H249214   5.426   1.140   3.304 -0.0300 -0.9784  0.8265
 9267TIP3   OH249215   6.487   4.539   3.350 -0.1536  0.0739  0.2761
 9267TIP3    H149216   6.545   4.570   3.280  0.1313  1.9163  1.2624
 9267TIP3    H249217   6.411   4.504   3.303  0.9421 -0.7147 -0.9899
 9268TIP3   OH249218   3.999   5.734  15.189 -0.6216 -0.4137  0.4569
 9268TIP3    H149219   4.069   5.751  15.253 -0.2524  0.2297 -0.1085
 9268TIP3    H249220   4.000   5.639  15.179  1.7264 -0.2990 -1.2179
 9269TIP3   OH249221   5.322   0.416  16.240  0.3739 -0.1249 -0.2231
 9269TIP3    H149222   5.242   0.398  16.190 -0.9782 -0.3144  1.8641
 9269TIP3    H249223   5.322   0.511  16.251  0.0053 -0.1892  0.3986
 9270TIP3   OH249224   2.704   3.292  16.353 -0.2998 -0.6151  0.0380
 9270TIP3    H149225   2.684   3.212  16.403  0.4145 -1.2639 -0.6766
 9270TIP3    H249226   2.690   3.266  16.262  1.6297 -0.4703 -0.3345
 9271TIP3   OH249227   4.140   3.251  15.175  0.0199  0.0751  0.1384
 9271TIP3    H149228   4.122   3.184  15.110 -0.7758  0.6797 -0.2773
 9271TIP3    H249229   4.173   3.202  15.251 -1.1387 -0.8486  0.0753
 9272TIP3   OH249230   1.474   0.185   3.980  0.3925  0.2977 -0.1544
 9272TIP3    H149231   1.566   0.203   3.966 -0.0382  2.3307 -0.6561
 9272TIP3    H249232   1.430   0.215   3.900 -0.7619 -0.0763  0.3060
 9273TIP3   OH249233   6.262   5.768  14.265  0.0946 -0.4134 -0.4385
 9273TIP3    H149234   6.217   5.687  14.289  0.2994  0.0267  1.6454
 9273TIP3    H249235   6.256   5.772  14.169 -3.7344 -0.7045 -0.3584
 9274TIP3   OH249236   4.794   2.325   2.762 -0.2413  0.5220  0.3566
 9274TIP3    H149237   4.849   2.402   2.773  1.0381 -0.0185 -1.7938
 9274TIP3    H249238   4.798   2.305   2.669 -0.9520 -1.8543  0.7647
 9275TIP3   OH249239   3.119   6.177   2.901  0.0426  0.0467  0.3872
 9275TIP3    H149240   3.044   6.147   2.849 -0.0010  0.8843 -0.0537
 9275TIP3    H249241   3.193   6.169   2.841 -0.0601  1.3229  0.0703
 9276TIP3   OH249242   6.238   6.268   5.058 -0.4953  0.1006  0.4839
 9276TIP3    H149243   6.268   6.325   4.987 -1.1722 -0.6613 -0.4355
 9276TIP3    H249244   6.280   6.184   5.041 -0.2348  0.0557  1.3059
 9277TIP3   OH249245   1.639   5.211   0.497 -0.2696 -0.1397  0.1677
 9277TIP3    H149246   1.715   5.196   0.440  0.5523 -2.0397  1.6662
 9277TIP3    H249247   1.653   5.153   0.571 -2.5545  0.4624  1.1420
 9278TIP3   OH249248   3.352   4.296   3.740  0.9760  0.2131 -0.2322
 9278TIP3    H149249   3.381   4.306   3.831  2.0038  1.4647 -0.6750
 9278TIP3    H249250   3.336   4.202   3.731 -1.1337  0.2800  1.8065
 9279TIP3   OH249251   0.047   5.417  11.496 -0.0622  0.3257 -0.2309
 9279TIP3    H149252   0.134   5.440  11.526  1.4583 -0.9265 -3.2648
 9279TIP3    H249253   0.027   5.335  11.541  1.2944 -0.4927 -1.0554
 9280TIP3   OH249254   5.002   0.958  15.027 -0.0874  0.1875  0.8290
 9280TIP3    H149255   5.071   0.985  15.088  1.6643 -0.3745 -0.8114
 9280TIP3    H249256   5.026   0.870  14.999  0.7436  1.3293 -2.6342
 9281TIP3   OH249257   0.357   5.518   4.503  0.5391  0.2544  0.4045
 9281TIP3    H149258   0.262   5.509   4.509  0.6288 -0.6692  0.6119
 9281TIP3    H249259   0.370   5.588   4.439 -0.2782  0.1088  0.0607
 9282TIP3   OH249260   3.947   1.641   2.294 -0.6293 -0.4083 -0.6872
 9282TIP3    H149261   4.038   1.616   2.283  0.8422  2.8706  2.1154
 9282TIP3    H249262   3.927   1.696   2.218 -0.7247 -2.0203 -1.8712
 9283TIP3   OH249263   4.162   1.933  14.039 -0.4098  0.0852 -0.2596
 9283TIP3    H149264   4.130   1.917  13.950  2.3047 -0.1659 -1.2720
 9283TIP3    H249265   4.211   2.015  14.033  1.4336 -0.9003  0.4770
 9284TIP3   OH249266   4.012   3.711  13.966 -0.5867 -0.3988  0.0746
 9284TIP3    H149267   4.086   3.736  14.021 -0.6485 -0.7497  0.3185
 9284TIP3    H249268   4.043   3.634  13.918  0.3857  1.3340 -2.2987
 9285TIP3   OH249269   5.224   1.714  16.446 -0.4077  0.5748 -0.0068
 9285TIP3    H149270   5.263   1.768  16.514  0.5638  0.7292 -0.6493
 9285TIP3    H249271   5.130   1.723  16.458 -0.2530  0.8935  1.0659
 9286TIP3   OH249272   1.192   6.026  15.591 -0.1792  0.2166 -0.0672
 9286TIP3    H149273   1.136   6.100  15.570  0.6856  1.0833  0.5793
 9286TIP3    H249274   1.281   6.059  15.577  0.2565 -0.4059  1.0969
 9287TIP3   OH249275   3.310   6.504   4.632  0.1026  0.7025  1.3680
 9287TIP3    H149276   3.306   6.517   4.726 -0.3807 -3.1491  2.0468
 9287TIP3    H249277   3.403   6.491   4.613 -0.0790 -3.3222  2.3421
 9288TIP3   OH249278   4.350   5.861   2.631 -0.3558 -0.0913  0.5835
 9288TIP3    H149279   4.367   5.862   2.537 -0.0805 -1.7538  0.5820
 9288TIP3    H249280   4.267   5.908   2.641 -1.4718 -1.6511 -0.7502
 9289TIP3   OH249281   6.374   3.714  11.031 -0.3298 -0.0493 -0.2249
 9289TIP3    H149282   6.403   3.790  11.081 -1.0779 -0.5516  1.0208
 9289TIP3    H249283   6.350   3.749  10.945  0.0626  0.9903  0.0788
 9290TIP3   OH249284   2.867   1.600  14.781  0.0586  0.2673  0.4866
 9290TIP3    H149285   2.871   1.635  14.870 -3.5046  0.6555  0.6139
 9290TIP3    H249286   2.817   1.519  14.789  0.1014  0.0484 -1.1161
 9291TIP3   OH249287   0.975   4.890  14.111 -0.1028  0.2869 -0.6526
 9291TIP3    H149288   1.040   4.833  14.150  0.4594  2.3205  1.7049
 9291TIP3    H249289   1.009   4.911  14.025  0.7366 -1.1683 -0.7027
 9292TIP3   OH249290   0.450   2.647  15.590  0.6225  0.1673  0.3746
 9292TIP3    H149291   0.363   2.610  15.574  1.5629 -2.4791  0.8981
 9292TIP3    H249292   0.464   2.708  15.518 -0.3473 -1.8934 -1.6779
 9293TIP3   OH249293   1.123   2.964   3.330  0.4939  0.3067 -0.1417
 9293TIP3    H149294   1.070   2.948   3.252 -1.5052 -0.4389  1.2726
 9293TIP3    H249295   1.148   2.877   3.361  0.0248  0.4958  0.8198
 9294TIP3   OH249296   4.393   5.309   6.170 -0.0476 -0.1357 -0.5109
 9294TIP3    H149297   4.398   5.331   6.263 -1.2466  0.5263 -0.5823
 9294TIP3    H249298   4.465   5.357   6.130 -0.2924  0.5975 -0.0922
 9295TIP3   OH249299   0.207   5.678  12.974 -0.2943  0.4130  0.2929
 9295TIP3    H149300   0.182   5.760  12.930 -0.6940 -0.0981 -0.4503
 9295TIP3    H249301   0.125   5.646  13.012  0.1025  1.0167  1.7364
 9296TIP3   OH249302   2.821   3.454   4.258  0.1516  0.2010 -0.0284
 9296TIP3    H149303   2.726   3.456   4.270  0.2083 -1.3348  0.9004
 9296TIP3    H249304   2.853   3.396   4.327  1.5063 -1.2557 -1.7797
 9297TIP3   OH249305   1.967   0.092  13.483  0.4890  0.4835 -0.3752
 9297TIP3    H149306   1.923   0.117  13.402 -0.5135 -1.0844 -0.3421
 9297TIP3    H249307   1.901   0.047  13.534  1.6529 -0.3436  0.4662
 9298TIP3   OH249308   1.095   0.447  10.819 -0.3817 -0.0191 -0.1304
 9298TIP3    H149309   1.175   0.395  10.816 -0.0047  0.4238  1.4135
 9298TIP3    H249310   1.119   0.531  10.779  0.1032  0.3110  0.8271
 9299TIP3   OH249311   4.130   4.055  13.463  0.2984 -0.0705  0.0639
 9299TIP3    H149312   4.207   4.065  13.407  0.7126  1.1967  0.8152
 9299TIP3    H249313   4.080   3.984  13.423  2.9314 -2.5094  0.7896
 9300TIP3   OH249314   0.745   2.051   2.953  0.4171  0.4479  0.6870
 9300TIP3    H149315   0.730   1.968   2.999 -0.1946 -1.6334 -2.9178
 9300TIP3    H249316   0.658   2.087   2.939  0.2908 -0.5882 -1.4959
 9301TIP3   OH249317   1.553   0.436  15.212 -0.3900  0.0122  0.3434
 9301TIP3    H149318   1.528   0.471  15.298 -2.1464  0.6931 -0.4074
 9301TIP3    H249319   1.642   0.468  15.199  0.5598 -1.4326  2.5788
 9302TIP3   OH249320   4.924   4.285  13.488  0.3200 -0.7311 -0.2409
 9302TIP3    H149321   4.829   4.278  13.495  0.1654  0.5487 -0.8785
 9302TIP3    H249322   4.939   4.361  13.433  1.7125 -1.3685 -0.8003
 9303TIP3   OH249323   1.779   5.067   4.996 -0.4857  0.3040  0.7011
 9303TIP3    H149324   1.839   5.069   4.921  1.0660 -0.3414  1.8695
 9303TIP3    H249325   1.783   5.155   5.033 -0.6933  0.4177  0.4564
 9304TIP3   OH249326   1.888   0.428  16.312 -0.5060 -0.7630  0.2957
 9304TIP3    H149327   1.868   0.420  16.219 -0.6363 -1.7021  0.3935
 9304TIP3    H249328   1.844   0.353  16.352  2.3229 -2.4111  0.6387
 9305TIP3   OH249329   6.407   1.593  15.610  0.1632  0.3643  0.3142
 9305TIP3    H149330   6.497   1.614  15.634  0.2989 -1.0790  1.1458
 9305TIP3    H249331   6.390   1.508  15.651 -1.9208  1.0750  1.0323
 9306TIP3   OH249332   2.080   0.525   5.415 -0.3007 -0.1386 -0.2732
 9306TIP3    H149333   2.022   0.504   5.489  1.6445  0.0502  1.4113
 9306TIP3    H249334   2.126   0.443   5.397  0.5453  0.2602 -0.0065
 9307TIP3   OH249335   1.670   1.178  13.493 -0.2281  0.0471 -0.0440
 9307TIP3    H149336   1.645   1.270  13.479  0.6332  0.3132  0.1051
 9307TIP3    H249337   1.762   1.175  13.470  0.3955 -0.2307  2.2359
 9308TIP3   OH249338   4.939   0.731  11.149 -0.0313  0.3209 -0.3729
 9308TIP3    H149339   5.031   0.747  11.171 -0.1190 -0.2123  0.4334
 9308TIP3    H249340   4.905   0.816  11.122  0.3619  0.8083  0.6159
 9309TIP3   OH249341   1.036   2.115   4.487 -0.1541 -0.2045  0.2795
 9309TIP3    H149342   0.993   2.094   4.404 -0.4953  0.0256  0.3943
 9309TIP3    H249343   1.093   2.040   4.504 -1.3908 -1.0701  0.7109
 9310TIP3   OH249344   2.023   5.590   4.132 -0.2736 -0.3450 -0.0294
 9310TIP3    H149345   1.946   5.613   4.184  0.0043  1.1872 -0.2362
 9310TIP3    H249346   2.097   5.627   4.182  0.0258  0.8356 -1.2820
 9311TIP3   OH249347   6.669   5.054   3.947  0.2569 -0.4447 -0.1277
 9311TIP3    H149348   6.646   5.018   3.861  1.7914  0.5645 -0.9933
 9311TIP3    H249349   6.728   5.127   3.928 -0.3674  0.6038  1.7325
 9312TIP3   OH249350   4.125   4.121   0.078  0.0232 -0.3417  0.3920
 9312TIP3    H149351   4.033   4.146   0.090 -0.2036 -0.1643 -1.5303
 9312TIP3    H249352   4.166   4.197   0.038  0.9763 -0.5227  0.9917
 9313TIP3   OH249353   1.684   5.426   1.482 -0.1064 -0.4877 -0.3537
 9313TIP3    H149354   1.760   5.417   1.540 -0.1495  1.1632  0.0263
 9313TIP3    H249355   1.623   5.481   1.532 -1.5466 -1.7051 -0.6872
 9314TIP3   OH249356   0.009   4.749   0.634  0.1660  0.0949 -0.0881
 9314TIP3    H149357  -0.082   4.747   0.663  0.2766  2.3211  0.6489
 9314TIP3    H249358   0.013   4.820   0.570  1.2971 -0.2559 -0.4396
 9315TIP3   OH249359   0.710   0.541  10.651  0.1916 -0.1131  0.7129
 9315TIP3    H149360   0.717   0.597  10.573  0.0837 -0.6426  0.3194
 9315TIP3    H249361   0.620   0.508  10.648  0.8255 -1.8956 -0.1647
 9316TIP3   OH249362   4.956   3.557   1.797 -0.1095  0.5267 -0.1529
 9316TIP3    H149363   5.050   3.548   1.811 -0.3009  1.2955  2.0430
 9316TIP3    H249364   4.920   3.470   1.815  0.2159 -0.0196 -1.9221
 9317TIP3   OH249365   2.426   6.681   5.500 -0.2360 -0.1405 -0.1468
 9317TIP3    H149366   2.369   6.714   5.570 -0.1876  1.7838 -0.9464
 9317TIP3    H249367   2.515   6.700   5.532 -0.1874  0.1202 -0.4360
 9318TIP3   OH249368   3.986   5.088   3.878 -0.2678 -0.7724  0.8633
 9318TIP3    H149369   4.031   5.004   3.887  0.2136 -0.7556 -0.9440
 9318TIP3    H249370   3.982   5.103   3.783 -0.4858  1.1603  1.1353
 9319TIP3   OH249371   4.282   6.664   5.851  0.1833  0.2990 -0.5831
 9319TIP3    H149372   4.330   6.736   5.893 -1.1135  0.9973 -0.2432
 9319TIP3    H249373   4.193   6.697   5.841 -0.1797 -0.8696 -1.4377
 9320TIP3   OH249374   1.387   6.148  14.450  0.1058 -0.1467 -0.0378
 9320TIP3    H149375   1.439   6.208  14.398 -0.1446 -1.5047 -1.9509
 9320TIP3    H249376   1.436   6.138  14.532  1.0610  1.2058 -0.4174
 9321TIP3   OH249377   6.791   5.656   3.405  0.3795  0.6742 -0.6788
 9321TIP3    H149378   6.836   5.632   3.486 -2.1094 -0.3577  0.5087
 9321TIP3    H249379   6.734   5.729   3.430  0.6875  1.3579 -1.8999
 9322TIP3   OH249380   4.193   0.217  11.040  0.0193 -0.1826  0.0354
 9322TIP3    H149381   4.277   0.257  11.061 -0.4211  1.2160 -0.7545
 9322TIP3    H249382   4.161   0.266  10.965 -0.6716 -1.8942 -0.8371
 9323TIP3   OH249383   5.739   2.041  14.907  0.0303  0.1759  0.1142
 9323TIP3    H149384   5.654   1.997  14.899 -0.1523  0.2594  1.3758
 9323TIP3    H249385   5.719   2.134  14.898  0.0901  0.1483 -0.3013
 9324TIP3   OH249386   3.349   5.280   1.091 -0.2407 -0.6165 -0.0188
 9324TIP3    H149387   3.383   5.231   1.017  0.3477 -1.3513  0.7185
 9324TIP3    H249388   3.427   5.311   1.137 -0.5990  0.5033 -0.1289
 9325TIP3   OH249389   1.377   5.475  11.186  0.0161 -0.2196 -0.8425
 9325TIP3    H149390   1.369   5.383  11.160  0.2508 -0.0490 -1.5346
 9325TIP3    H249391   1.321   5.483  11.263  0.6169 -1.1307 -0.2954
 9326TIP3   OH249392   2.965   3.829  15.202  0.2727 -0.0681  0.1494
 9326TIP3    H149393   2.912   3.788  15.133 -0.6866  0.3156  0.6522
 9326TIP3    H249394   2.902   3.858  15.267  1.1880 -0.6972  1.3581
 9327TIP3   OH249395   2.110   4.329   2.705 -0.7539  0.4828  0.2525
 9327TIP3    H149396   2.161   4.345   2.784 -1.8263  0.8097  0.9041
 9327TIP3    H249397   2.173   4.336   2.633  0.1561  0.5950  1.0447
 9328TIP3   OH249398   2.104   0.280   3.137 -0.1074 -0.0690 -0.2013
 9328TIP3    H149399   2.073   0.257   3.050  0.6019 -0.1971 -0.4232
 9328TIP3    H249400   2.177   0.340   3.122  1.0435 -1.2963  0.2407
 9329TIP3   OH249401   2.512   3.229   4.224 -0.1087  0.4053  0.5997
 9329TIP3    H149402   2.598   3.187   4.226 -1.5319 -2.9977 -1.0818
 9329TIP3    H249403   2.476   3.215   4.311  1.0934  2.2336  1.4565
 9330TIP3   OH249404   0.364   4.395  12.378 -0.0904  0.0325 -0.5358
 9330TIP3    H149405   0.286   4.449  12.369  0.0211 -0.0027 -1.7664
 9330TIP3    H249406   0.330   4.306  12.385 -0.1456 -0.0560 -1.7828
 9331TIP3   OH249407   5.971   0.506   0.938  0.1164 -0.2289  0.4136
 9331TIP3    H149408   5.930   0.537   1.019 -0.5086 -0.8755  0.3603
 9331TIP3    H249409   5.897   0.491   0.879  0.4602 -0.9827  0.1638
 9332TIP3   OH249410   0.596   3.085   2.048 -0.1228  0.1478 -0.8503
 9332TIP3    H149411   0.602   3.082   2.143  1.9092 -0.4881 -0.9418
 9332TIP3    H249412   0.573   3.175   2.028 -0.6097  0.2787  0.2380
 9333TIP3   OH249413   3.787   1.757  12.265  0.7852 -0.1999  0.1561
 9333TIP3    H149414   3.730   1.733  12.338  1.5371  1.9323  1.5374
 9333TIP3    H249415   3.875   1.758  12.303  0.9764  3.0030 -0.1225
 9334TIP3   OH249416   0.271   5.570   6.555 -0.4390 -0.0419 -0.2324
 9334TIP3    H149417   0.262   5.650   6.607  0.3383  0.5429 -0.9690
 9334TIP3    H249418   0.335   5.593   6.488  1.2609 -1.8732  0.6701
 9335TIP3   OH249419   4.121   4.393  13.128  0.3346  0.4377  0.1644
 9335TIP3    H149420   4.210   4.359  13.117 -0.2064 -1.1701  0.4257
 9335TIP3    H249421   4.069   4.344  13.065 -0.8761 -0.8857  2.0914
 9336TIP3   OH249422   3.011   1.656   0.411 -0.1382  0.1768  0.5476
 9336TIP3    H149423   2.979   1.633   0.498  1.2665 -2.8212  0.4023
 9336TIP3    H249424   3.017   1.573   0.364  1.1309  1.4339 -1.7426
 9337TIP3   OH249425   3.365   5.492   3.267  0.0676 -0.2175  0.4881
 9337TIP3    H149426   3.303   5.491   3.194 -0.7100  1.3261  1.0825
 9337TIP3    H249427   3.381   5.400   3.286 -0.5592 -0.6430 -0.9247
 9338TIP3   OH249428   5.631   6.123  16.552  0.0416 -0.0348 -0.4811
 9338TIP3    H149429   5.671   6.208  16.566  0.8053 -0.5603  0.6343
 9338TIP3    H249430   5.578   6.134  16.473  0.2241  1.4281 -0.4205
 9339TIP3   OH249431   1.646   5.521  14.982 -0.0333  0.0501  0.6206
 9339TIP3    H149432   1.658   5.611  14.952 -2.1560 -0.1305 -0.9921
 9339TIP3    H249433   1.581   5.527  15.052 -0.6776 -0.2836  0.0583
 9340TIP3   OH249434   4.455   5.154   1.955 -0.3351  0.2570  0.7558
 9340TIP3    H149435   4.436   5.124   1.866 -0.1460  0.4199  0.6610
 9340TIP3    H249436   4.504   5.081   1.994 -0.1319  0.3197  0.6200
 9341TIP3   OH249437   3.582   4.586   0.405 -0.0256 -0.0337  0.2435
 9341TIP3    H149438   3.667   4.624   0.381  0.9808 -0.0336  3.4230
 9341TIP3    H249439   3.578   4.594   0.500 -3.6127 -0.0912  0.2222
 9342TIP3   OH249440   4.026   4.851  15.910 -0.5246  0.2669  0.4776
 9342TIP3    H149441   4.034   4.901  15.991  1.6133 -0.3233  0.6810
 9342TIP3    H249442   3.933   4.830  15.904 -0.8767  1.1523  2.2634
 9343TIP3   OH249443   5.246   0.058  16.136 -0.1868  0.6613 -0.2624
 9343TIP3    H149444   5.238  -0.033  16.108 -1.8844  0.9125 -0.7318
 9343TIP3    H249445   5.213   0.058  16.226 -1.8333  1.0511 -0.8260
 9344TIP3   OH249446   3.399   3.727   3.189  0.6731 -0.0640 -0.4209
 9344TIP3    H149447   3.462   3.799   3.178  0.3925  0.4094  0.8747
 9344TIP3    H249448   3.453   3.651   3.210  1.0053 -0.3578 -2.1920
 9345TIP3   OH249449   5.989   2.638  14.932  0.4732 -0.1106 -0.4459
 9345TIP3    H149450   6.046   2.686  14.872  0.9145  0.7795  0.6429
 9345TIP3    H249451   5.908   2.689  14.932  0.5966  0.0890 -0.0348
 9346TIP3   OH249452   0.490   3.545  13.155  0.4256  0.0383 -0.1494
 9346TIP3    H149453   0.516   3.470  13.100  1.7345  1.0398 -0.9490
 9346TIP3    H249454   0.477   3.507  13.242  0.5561 -1.2069 -0.6513
 9347TIP3   OH249455   2.063   2.886  15.250  0.6299  0.2015 -0.2921
 9347TIP3    H149456   1.981   2.922  15.284 -1.5055 -3.0434 -1.5110
 9347TIP3    H249457   2.129   2.913  15.313 -1.5415  1.9817  1.3952
 9348TIP3   OH249458   1.784   4.151   2.515  0.0363 -0.6771  0.4097
 9348TIP3    H149459   1.824   4.205   2.583 -0.0821 -0.6491  0.4581
 9348TIP3    H249460   1.696   4.131   2.548 -0.1635 -0.3459  0.0986
 9349TIP3   OH249461   4.528   3.615  11.323 -0.6887  0.3597  0.7522
 9349TIP3    H149462   4.536   3.630  11.229  0.8018 -0.4099  0.7259
 9349TIP3    H249463   4.478   3.690  11.355  0.0787  1.4136 -0.4361
 9350TIP3   OH249464   2.983   1.553  11.778 -0.0066  0.3525 -0.6065
 9350TIP3    H149465   3.060   1.545  11.723  0.7401 -0.0187  0.4694
 9350TIP3    H249466   2.983   1.645  11.806 -0.1239  0.4238 -0.8358
 9351TIP3   OH249467   4.224   3.954   3.347 -0.2385 -0.2298 -1.1561
 9351TIP3    H149468   4.129   3.964   3.347 -0.1327  0.9335 -0.9797
 9351TIP3    H249469   4.239   3.860   3.352 -1.3827 -0.4119 -1.0771
 9352TIP3   OH249470   0.424   4.710  16.375 -0.1678  0.1708 -0.3326
 9352TIP3    H149471   0.455   4.624  16.345  1.0135  0.8431 -1.1107
 9352TIP3    H249472   0.353   4.732  16.314 -1.7101 -1.0008  0.9460
 9353TIP3   OH249473   0.597   0.298   6.446 -0.1717 -0.1809  0.0468
 9353TIP3    H149474   0.649   0.247   6.508 -0.3874 -1.4787 -0.7936
 9353TIP3    H249475   0.655   0.309   6.370 -0.4644  0.0036 -0.1487
 9354TIP3   OH249476   2.057   2.743  15.013 -0.2677  0.1047 -0.4081
 9354TIP3    H149477   2.068   2.787  15.097  3.0935 -0.2767 -0.5184
 9354TIP3    H249478   1.971   2.772  14.982 -1.4812  0.4975  2.9587
 9355TIP3   OH249479   0.877   2.299   4.031 -0.2949 -0.1435  0.0476
 9355TIP3    H149480   0.961   2.294   3.985 -0.9476 -1.3614 -1.0766
 9355TIP3    H249481   0.840   2.383   4.004 -0.1401 -0.3228 -0.7500
 9356TIP3   OH249482   1.866   5.094   0.393 -0.1907 -0.1093  0.1299
 9356TIP3    H149483   1.960   5.112   0.397  0.2465 -1.8514 -0.9286
 9356TIP3    H249484   1.861   5.007   0.353 -2.2909  0.2376 -0.4552
 9357TIP3   OH249485   5.907   4.995   2.683 -0.2430 -0.0980  0.0475
 9357TIP3    H149486   5.827   5.010   2.634 -1.0393 -1.9144  0.6845
 9357TIP3    H249487   5.969   4.961   2.618 -0.8193 -1.0774 -0.0120
 9358TIP3   OH249488   1.287   3.165  15.364 -0.6652  0.4534  0.3647
 9358TIP3    H149489   1.313   3.082  15.405 -1.4172  0.1950  0.3412
 9358TIP3    H249490   1.303   3.231  15.431  3.6736  0.9379 -0.8431
 9359TIP3   OH249491   3.338   6.215  12.800  0.0480 -0.3781 -0.0914
 9359TIP3    H149492   3.333   6.139  12.743  0.8815 -0.1399 -0.5012
 9359TIP3    H249493   3.258   6.264  12.784 -1.3528 -2.0188  1.4374
 9360TIP3   OH249494   4.460   4.467  16.799  0.4531 -0.0578  0.3927
 9360TIP3    H149495   4.541   4.506  16.830 -0.2090  2.3434 -0.6695
 9360TIP3    H249496   4.465   4.471  16.704 -0.7542 -0.2224  0.2956
 9361TIP3   OH249497   5.318   2.209   6.068  0.1074 -0.3784 -0.0173
 9361TIP3    H149498   5.354   2.122   6.055  0.4528 -0.4665  1.3699
 9361TIP3    H249499   5.331   2.227   6.162 -2.1138  0.1830  0.2428
 9362TIP3   OH249500   3.529   5.391   4.385  0.0474  0.1821 -0.6224
 9362TIP3    H149501   3.474   5.469   4.398 -1.1624 -0.9622  2.0196
 9362TIP3    H249502   3.618   5.422   4.396 -0.3662  1.3502 -0.3987
 9363TIP3   OH249503   6.241   2.331   3.825  0.5153 -0.6644  0.2990
 9363TIP3    H149504   6.284   2.294   3.748  0.0220 -1.3696  0.3569
 9363TIP3    H249505   6.248   2.426   3.813  1.1514 -0.7685 -0.2108
 9364TIP3   OH249506   0.646   4.223   6.486 -0.1431 -0.4886  0.3208
 9364TIP3    H149507   0.656   4.299   6.428 -2.7827 -0.6009 -0.3902
 9364TIP3    H249508   0.682   4.150   6.437  0.4066 -0.0840  0.1069
 9365TIP3   OH249509   4.603   4.348   3.685  0.0385 -0.0471 -0.3306
 9365TIP3    H149510   4.557   4.301   3.755  1.6758 -2.0055 -0.4944
 9365TIP3    H249511   4.613   4.283   3.616  2.2317  0.5731 -0.6508
 9366TIP3   OH249512   0.647   0.994  12.448 -0.0052 -0.4321  0.2357
 9366TIP3    H149513   0.690   0.923  12.401  0.2280  0.0508 -0.2941
 9366TIP3    H249514   0.663   0.975  12.541  0.2891 -0.9159  0.0895
 9367TIP3   OH249515   6.509   1.958  16.427 -0.3117 -0.0694 -0.3238
 9367TIP3    H149516   6.421   1.960  16.464 -0.5313 -1.1577 -0.7348
 9367TIP3    H249517   6.501   1.904  16.348  0.6814 -0.0255 -0.4762
 9368TIP3   OH249518   0.453   5.272  12.802 -0.0940  0.1267  0.4692
 9368TIP3    H149519   0.367   5.312  12.819 -0.9971 -1.6408  0.2788
 9368TIP3    H249520   0.433   5.185  12.769  1.7971 -1.2300  2.6001
 9369TIP3   OH249521   2.861   1.858  11.534 -0.5834 -0.3743  0.5162
 9369TIP3    H149522   2.948   1.828  11.507  0.4654  0.4534  2.7351
 9369TIP3    H249523   2.854   1.831  11.625 -1.4295  2.1181  1.2687
 9370TIP3   OH249524   1.821   2.159   0.776  0.1810 -0.0814  0.1289
 9370TIP3    H149525   1.896   2.112   0.813 -0.5124 -0.6187  0.8818
 9370TIP3    H249526   1.841   2.251   0.790 -0.1522 -0.2670  2.0873
 9371TIP3   OH249527   3.310   6.225   2.722  0.0276  0.3719  0.5226
 9371TIP3    H149528   3.391   6.218   2.773 -0.5064  0.7590  1.4546
 9371TIP3    H249529   3.326   6.297   2.661  0.1462  0.9179  1.1799
 9372TIP3   OH249530   3.057   2.695  17.156  0.1106  0.4704 -0.3304
 9372TIP3    H149531   3.129   2.632  17.154 -1.4565 -1.4653  0.4194
 9372TIP3    H249532   3.068   2.747  17.077  2.6096  0.6024  0.0456
 9373TIP3   OH249533   0.094   2.826  14.088 -0.2425 -0.0303 -0.4134
 9373TIP3    H149534   0.111   2.733  14.099 -0.3563 -0.1466 -1.2006
 9373TIP3    H249535   0.176   2.868  14.116  0.3312 -0.4422 -1.4259
 9374TIP3   OH249536   6.508   0.102   3.384  0.7304 -0.1444  0.1960
 9374TIP3    H149537   6.581   0.088   3.324  0.8475 -0.3159  0.3768
 9374TIP3    H249538   6.435   0.053   3.347  0.2882  1.1860 -0.7553
 9375TIP3   OH249539   3.826   4.220  16.976 -0.3593  0.1568  0.3225
 9375TIP3    H149540   3.915   4.193  16.950 -0.2614  0.1625  0.6398
 9375TIP3    H249541   3.829   4.315  16.976  0.3328  0.2072  2.5481
 9376TIP3   OH249542   2.574   0.572   2.236  0.6047 -0.3793 -0.1029
 9376TIP3    H149543   2.560   0.575   2.331  1.9351  0.8062  0.0883
 9376TIP3    H249544   2.629   0.495   2.222 -0.1074 -0.9177 -0.0012
 9377TIP3   OH249545   2.222   2.557   2.609  0.1588  0.4847 -0.0855
 9377TIP3    H149546   2.138   2.516   2.632 -0.2756  1.0860 -0.5799
 9377TIP3    H249547   2.276   2.484   2.578  0.7456 -0.3553  2.6660
 9378TIP3   OH249548   4.675   4.450  13.949 -0.5083  0.1619  0.0591
 9378TIP3    H149549   4.643   4.539  13.934  0.0717 -0.0138 -2.7869
 9378TIP3    H249550   4.610   4.411  14.009 -1.9730  1.8069 -0.3660
 9379TIP3   OH249551   0.546   6.743  15.831 -0.3115 -0.1587 -0.6549
 9379TIP3    H149552   0.568   6.657  15.866  1.7120  0.8015  0.6077
 9379TIP3    H249553   0.620   6.766  15.776 -0.2350  1.2723  0.0073
 9380TIP3   OH249554   4.132   0.871   4.828  0.9943  0.1853 -0.6739
 9380TIP3    H149555   4.039   0.879   4.848  1.1801  1.1784 -0.1271
 9380TIP3    H249556   4.176   0.874   4.913  1.5974  1.0605 -1.0010
 9381TIP3   OH249557   2.971   4.245   5.483  0.3042  0.3725 -0.0835
 9381TIP3    H149558   2.925   4.328   5.470  0.3223  0.6007  1.1793
 9381TIP3    H249559   2.905   4.188   5.523  0.9209  0.5076  1.1651
 9382TIP3   OH249560   6.780   6.422  12.643  0.0783  0.1725  0.2860
 9382TIP3    H149561   6.693   6.422  12.683 -0.2244  1.3956 -0.3247
 9382TIP3    H249562   6.837   6.384  12.710 -0.7330  0.4023  1.1291
 9383TIP3   OH249563   5.436   1.447  14.662  0.0614 -0.0060  0.0007
 9383TIP3    H149564   5.516   1.497  14.645 -1.1667  1.7977 -0.8967
 9383TIP3    H249565   5.460   1.356  14.645  2.0542  0.4173  0.3317
 9384TIP3   OH249566   0.062   2.498  11.663  0.2072  0.5689  0.3117
 9384TIP3    H149567   0.044   2.550  11.742  1.6997 -1.4024  2.0795
 9384TIP3    H249568   0.098   2.561  11.601  0.3395  1.9471  1.7111
 9385TIP3   OH249569   5.105   6.267   2.111 -0.5934  0.5336  0.1900
 9385TIP3    H149570   5.056   6.248   2.191  0.2739 -0.1910  0.5633
 9385TIP3    H249571   5.068   6.209   2.045  0.0339 -0.3358  0.5815
 9386TIP3   OH249572   4.889   6.215  15.371 -0.6827 -0.4761 -0.3775
 9386TIP3    H149573   4.851   6.244  15.288 -0.8464  0.0429 -0.1278
 9386TIP3    H249574   4.978   6.251  15.371 -0.7691 -0.2618 -0.2159
 9387TIP3   OH249575   6.366   2.579   2.763 -0.3873 -0.9834  0.0270
 9387TIP3    H149576   6.360   2.497   2.811 -1.2764 -1.6848 -1.2349
 9387TIP3    H249577   6.276   2.610   2.755 -0.0114  0.5522  1.1522
 9388TIP3   OH249578   6.222   5.443  15.444 -0.1507 -0.3398 -0.1045
 9388TIP3    H149579   6.262   5.455  15.529 -1.7027  0.2597  0.5926
 9388TIP3    H249580   6.288   5.473  15.381  0.6499  0.1364  0.9381
 9389TIP3   OH249581   2.970   5.781  15.193  0.2791  0.4185 -0.2210
 9389TIP3    H149582   2.978   5.771  15.098 -1.0892  0.8362 -0.4000
 9389TIP3    H249583   2.998   5.697  15.228  2.7977  0.9307 -0.8429
 9390TIP3   OH249584   4.981   0.422   4.255 -0.1365  0.8900 -0.4019
 9390TIP3    H149585   4.924   0.455   4.325 -0.1335  0.6056 -0.2649
 9390TIP3    H249586   4.920   0.398   4.185 -0.2161  0.2418 -0.1157
 9391TIP3   OH249587   1.368   6.055  12.946  0.3253 -0.1328 -0.1131
 9391TIP3    H149588   1.413   6.113  12.884  1.5752 -1.1478 -0.1996
 9391TIP3    H249589   1.374   5.968  12.907  0.9418 -0.7670  1.3002
 9392TIP3   OH249590   4.220   5.673   0.811 -0.2382  0.1309  0.3640
 9392TIP3    H149591   4.216   5.700   0.719  0.2184  0.7315  0.5149
 9392TIP3    H249592   4.304   5.707   0.842  0.3091 -1.3636  0.6007
 9393TIP3   OH249593   4.224   2.678   3.170 -0.0226 -0.1037 -0.3106
 9393TIP3    H149594   4.140   2.682   3.215 -0.6845 -0.7899 -1.4500
 9393TIP3    H249595   4.271   2.757   3.199 -0.1901 -0.7743  1.9761
 9394TIP3   OH249596   3.161   1.955   1.653 -0.2844  0.5061  0.3833
 9394TIP3    H149597   3.161   1.860   1.661  0.0217  0.4981  0.2893
 9394TIP3    H249598   3.200   1.986   1.735 -2.8669  0.6655  1.6679
 9395TIP3   OH249599   5.123   4.422   4.471  0.1177 -0.9278  0.1755
 9395TIP3    H149600   5.114   4.338   4.515 -2.1573 -0.4157  0.8107
 9395TIP3    H249601   5.068   4.414   4.393  0.8990 -0.4492 -0.4345
 9396TIP3   OH249602   3.246   2.216   2.576  0.6370  0.0996 -0.2506
 9396TIP3    H149603   3.300   2.158   2.630  0.8144 -0.8720 -1.4360
 9396TIP3    H249604   3.160   2.173   2.574  0.1931  0.9115  0.4640
 9397TIP3   OH249605   0.129   0.793   5.192 -0.1710  0.0480 -0.4133
 9397TIP3    H149606   0.122   0.750   5.106  0.5966  0.7003 -0.8168
 9397TIP3    H249607   0.219   0.775   5.219 -0.4244 -0.1943  0.2905
 9398TIP3   OH249608   2.284   6.011  17.056 -0.0510  0.4485 -0.1954
 9398TIP3    H149609   2.278   6.087  16.997 -2.1033 -0.1393 -0.8157
 9398TIP3    H249610   2.195   5.998  17.088  0.4765 -1.0422  0.7851
 9399TIP3   OH249611   4.770   6.293  11.717  0.0367 -0.0581 -0.0971
 9399TIP3    H149612   4.844   6.260  11.666 -1.1765  0.8752 -2.5845
 9399TIP3    H249613   4.748   6.376  11.676 -1.8295  0.1357  1.1889
 9400TIP3   OH249614   0.640   5.515  14.219 -0.1162 -0.1175 -0.3433
 9400TIP3    H149615   0.582   5.507  14.143 -1.2390 -0.4404  0.5263
 9400TIP3    H249616   0.702   5.443  14.209 -1.6069 -1.5560  0.1443
 9401TIP3   OH249617   5.062   3.575   0.494 -0.0862  0.7923 -0.0514
 9401TIP3    H149618   5.103   3.647   0.541 -0.7764  2.0981 -1.3648
 9401TIP3    H249619   4.985   3.614   0.453 -0.9177 -0.8816 -0.1656
 9402TIP3   OH249620   1.105   2.945   1.498 -0.1657  0.0371  0.0438
 9402TIP3    H149621   1.131   2.912   1.412 -2.2050  2.9532 -1.8820
 9402TIP3    H249622   1.052   2.875   1.535 -1.4102 -0.3827 -2.2897
 9403TIP3   OH249623   6.481   4.056   6.614 -0.1770 -0.0761 -0.2136
 9403TIP3    H149624   6.492   4.151   6.622 -1.0855  0.0169  0.1205
 9403TIP3    H249625   6.424   4.033   6.687  0.0255 -0.8843 -0.3032
 9404TIP3   OH249626   3.114   0.151  12.270  0.1125 -0.0579 -0.5332
 9404TIP3    H149627   3.053   0.090  12.227  1.0493 -1.4429  0.0437
 9404TIP3    H249628   3.134   0.216  12.202  1.1361 -1.8947 -2.0736
 9405TIP3   OH249629   6.708   4.917   2.500  0.2957 -0.0318  0.2122
 9405TIP3    H149630   6.703   5.008   2.471  0.5989 -0.0232  0.1839
 9405TIP3    H249631   6.621   4.882   2.484  0.9098 -0.5652 -2.4507
 9406TIP3   OH249632   4.865   5.116   2.663  0.2022  0.6329 -0.1235
 9406TIP3    H149633   4.845   5.195   2.713 -1.0911  0.8372 -0.9224
 9406TIP3    H249634   4.800   5.052   2.690 -0.6419  0.8046 -1.6310
 9407TIP3   OH249635   2.453   5.043   5.397  0.2505  0.0567 -0.0066
 9407TIP3    H149636   2.507   5.037   5.475  1.2522 -0.1754 -0.7037
 9407TIP3    H249637   2.506   5.091   5.334 -0.6521  0.4888 -0.4658
 9408TIP3   OH249638   2.374   3.859   0.623 -0.2044  0.1953  0.3757
 9408TIP3    H149639   2.286   3.880   0.593 -0.4340 -0.9418  0.2243
 9408TIP3    H249640   2.362   3.821   0.710  0.2799  1.4619  1.0250
 9409TIP3   OH249641   1.486   3.179  13.631 -0.6741 -0.2654 -0.0083
 9409TIP3    H149642   1.575   3.194  13.663  0.3099  0.2545 -2.7593
 9409TIP3    H249643   1.495   3.107  13.568 -2.2507 -0.3057 -0.2216
 9410TIP3   OH249644   0.839   0.382   5.338 -0.1267  0.5725 -0.7324
 9410TIP3    H149645   0.850   0.471   5.305  1.5463  1.3470  1.6824
 9410TIP3    H249646   0.913   0.334   5.300 -0.0143  0.6662 -0.6340
 9411TIP3   OH249647   2.204   4.831   0.367 -0.1819  0.0988  0.1460
 9411TIP3    H149648   2.236   4.785   0.444 -1.9197 -0.0773  0.7798
 9411TIP3    H249649   2.118   4.794   0.349 -0.4439  1.1663 -0.9937
 9412TIP3   OH249650   3.170   1.035  11.361 -0.1881 -0.4385  0.2231
 9412TIP3    H149651   3.207   1.064  11.444  0.7402 -2.6075  0.6399
 9412TIP3    H249652   3.079   1.016  11.380  0.0316 -0.9696  0.7638
 9413TIP3   OH249653   5.656   1.665   2.235 -0.4423  0.3151  0.8337
 9413TIP3    H149654   5.738   1.695   2.197 -0.5633  0.5505  0.7600
 9413TIP3    H249655   5.681   1.593   2.293 -0.1264  0.7163  1.2015
 9414TIP3   OH249656   1.355   3.402   1.170  0.4551 -0.3547  0.1888
 9414TIP3    H149657   1.389   3.325   1.215  1.7149 -0.6415 -1.1992
 9414TIP3    H249658   1.419   3.421   1.102 -0.0487  1.6760  0.2131
 9415TIP3   OH249659   2.505   2.760   3.348 -0.5969  0.4113 -0.1919
 9415TIP3    H149660   2.489   2.838   3.402 -0.2427  0.4274 -0.1090
 9415TIP3    H249661   2.465   2.688   3.397 -1.4800  0.6343 -0.5747
 9416TIP3   OH249662   2.593   1.779  12.263 -0.1939 -0.3558 -0.4520
 9416TIP3    H149663   2.509   1.733  12.272  0.3758 -1.5916 -1.1208
 9416TIP3    H249664   2.657   1.719  12.301  0.4072  0.5191 -0.0656
 9417TIP3   OH249665   3.204   6.378   0.395 -0.1814 -0.2680  0.1918
 9417TIP3    H149666   3.263   6.305   0.376 -0.3456 -0.6076  0.9578
 9417TIP3    H249667   3.136   6.340   0.451 -0.2553  0.4767  0.6100
 9418TIP3   OH249668   5.636   1.011  13.683 -0.2569  0.4400  0.1959
 9418TIP3    H149669   5.617   0.953  13.609  3.2243 -0.5305 -0.1001
 9418TIP3    H249670   5.659   0.953  13.755  1.0801  1.4134  0.5852
 9419TIP3   OH249671   2.894   3.660   1.914 -0.2829 -0.1465  0.3935
 9419TIP3    H149672   2.806   3.685   1.886  0.0898  0.5387 -0.2028
 9419TIP3    H249673   2.951   3.690   1.844  0.3454 -1.4696  0.3008
 9420TIP3   OH249674   4.631   1.517   1.112 -0.2131  0.1176  0.0864
 9420TIP3    H149675   4.643   1.517   1.017  3.0982  0.5498  0.3874
 9420TIP3    H249676   4.550   1.566   1.126 -0.1338  1.1149 -2.4635
 9421TIP3   OH249677   6.719   2.405  17.042 -0.6247 -0.5102  0.6838
 9421TIP3    H149678   6.649   2.445  16.989 -1.1829 -1.9808  0.2690
 9421TIP3    H249679   6.791   2.393  16.980 -0.9773 -1.4567  0.4447
 9422TIP3   OH249680   2.525   3.006   4.952 -0.7650  1.1764  0.2168
 9422TIP3    H149681   2.548   2.913   4.958 -0.8959  0.8410 -2.8234
 9422TIP3    H249682   2.608   3.052   4.967 -0.0931  0.3987 -0.9115
 9423TIP3   OH249683   3.638   1.269  12.886 -0.2302 -0.5189  0.4640
 9423TIP3    H149684   3.720   1.229  12.915 -1.1194 -1.2760  2.0800
 9423TIP3    H249685   3.626   1.345  12.943 -0.1780  0.1845 -0.4323
 9424TIP3   OH249686   5.661   4.603   1.619  0.3545  0.1024 -0.1113
 9424TIP3    H149687   5.678   4.529   1.562  0.2225 -0.2315  0.2735
 9424TIP3    H249688   5.675   4.680   1.565  3.3302 -0.1075  0.2314
 9425TIP3   OH249689   4.239   5.416   1.435 -0.1717  0.3002  0.0725
 9425TIP3    H149690   4.219   5.510   1.440  1.2559  0.5817  1.2026
 9425TIP3    H249691   4.319   5.412   1.383 -1.2124 -0.4934 -1.5429
 9426TIP3   OH249692   2.913   1.049  12.649 -0.0073  0.4430  0.3797
 9426TIP3    H149693   2.970   1.093  12.712 -0.5805  0.6272  0.7722
 9426TIP3    H249694   2.968   1.038  12.571  0.4678  0.8965  0.6438
 9427TIP3   OH249695   2.784   1.471   0.917 -0.0198  0.3006 -0.6765
 9427TIP3    H149696   2.761   1.445   0.828  0.4141 -0.6056 -0.5343
 9427TIP3    H249697   2.758   1.397   0.971 -0.5123  0.9479 -0.0076
 9428TIP3   OH249698   0.241   5.203   2.740  0.2532  0.3565  0.3619
 9428TIP3    H149699   0.313   5.228   2.682  2.2374 -1.8711  1.6977
 9428TIP3    H249700   0.213   5.117   2.708 -2.4549  1.4588 -0.5860
 9429TIP3   OH249701   5.560   5.555   0.298  0.1512 -0.1428 -0.1430
 9429TIP3    H149702   5.624   5.527   0.233 -0.3748  0.1877 -0.8189
 9429TIP3    H249703   5.596   5.526   0.382  1.6127  0.8246 -0.4046
 9430TIP3   OH249704   6.766   2.735   0.672  0.1514  0.3952 -0.1850
 9430TIP3    H149705   6.825   2.673   0.629 -1.2004 -0.6514 -0.6016
 9430TIP3    H249706   6.759   2.808   0.610  1.5977  0.9219  0.2243
 9431TIP3   OH249707   4.222   6.708   3.009 -0.2082  0.2449  0.4042
 9431TIP3    H149708   4.215   6.803   3.016  0.6986  0.2832  0.8466
 9431TIP3    H249709   4.314   6.691   2.988 -0.8204 -0.4248 -2.1260
 9432TIP3   OH249710   0.734   4.120   2.787  0.0039  0.1807  0.0556
 9432TIP3    H149711   0.789   4.198   2.781  0.8196 -0.4145 -0.4119
 9432TIP3    H249712   0.759   4.079   2.870 -2.1229  1.6253  1.5293
 9433TIP3   OH249713   6.563   4.429  12.880  0.2865 -0.2383  0.3693
 9433TIP3    H149714   6.595   4.347  12.841  2.3142 -0.2065  1.8029
 9433TIP3    H249715   6.638   4.463  12.929 -0.5821  2.3655  0.0448
 9434TIP3   OH249716   3.312   2.861   1.865 -0.0745  0.2583 -0.0131
 9434TIP3    H149717   3.254   2.832   1.936  0.2660 -1.6411 -0.4448
 9434TIP3    H249718   3.376   2.790   1.856  1.3312  1.5437 -0.6526
 9435TIP3   OH249719   2.182   0.776  13.351  0.6379  0.3526  0.1218
 9435TIP3    H149720   2.138   0.799  13.433  0.8114  0.8532  0.0794
 9435TIP3    H249721   2.233   0.854  13.328  1.2043 -0.0613 -0.0603
 9436TIP3   OH249722   5.357   6.196   5.382 -0.4723 -0.2152  0.1659
 9436TIP3    H149723   5.441   6.158   5.410 -0.7088  0.8723  2.6740
 9436TIP3    H249724   5.380   6.279   5.340 -0.2669  0.2126  1.0967
 9437TIP3   OH249725   0.355   1.016  11.965 -0.4934 -0.5131 -0.2632
 9437TIP3    H149726   0.376   0.972  12.047  0.0998 -0.1862 -0.2332
 9437TIP3    H249727   0.424   0.989  11.905  1.0146  1.7846  0.2703
 9438TIP3   OH249728   0.138   5.433   6.097  0.4435  0.2598 -0.0911
 9438TIP3    H149729   0.226   5.469   6.101  0.3198  0.5519  0.0173
 9438TIP3    H249730   0.091   5.476   6.169  0.6439 -1.0684  0.8662
 9439TIP3   OH249731   0.199   5.622  15.842 -0.1762  0.2287 -0.4899
 9439TIP3    H149732   0.236   5.557  15.782  0.1582  0.8120 -0.9346
 9439TIP3    H249733   0.276   5.667  15.878 -0.2847 -0.9766  1.4207
 9440TIP3   OH249734   0.810   2.054  12.208 -0.0310  0.2824  0.4565
 9440TIP3    H149735   0.737   2.112  12.189 -1.2825 -1.2341  0.3696
 9440TIP3    H249736   0.821   2.060  12.303  0.5661  1.4363  0.3299
 9441TIP3   OH249737   2.045   2.659  16.187 -0.0742  0.9963  0.2436
 9441TIP3    H149738   1.957   2.688  16.213  0.1329  2.2174 -0.3184
 9441TIP3    H249739   2.031   2.581  16.135 -0.7460  0.5755  1.0366
 9442TIP3   OH249740   6.368   6.407   2.008 -0.5137 -0.5717 -0.0507
 9442TIP3    H149741   6.363   6.502   2.006 -1.3777 -0.5591  1.3973
 9442TIP3    H249742   6.460   6.388   2.029 -0.5172 -0.0194  0.4988
 9443TIP3   OH249743   0.884   1.762  13.554  0.1517 -0.0372  0.3296
 9443TIP3    H149744   0.811   1.737  13.497  0.7409 -1.6483  0.2380
 9443TIP3    H249745   0.953   1.789  13.493 -0.6186  2.4507  0.4305
 9444TIP3   OH249746   2.487   4.786  16.999 -0.5416 -0.2418 -0.3181
 9444TIP3    H149747   2.576   4.798  17.031 -0.9993  3.2375  0.0509
 9444TIP3    H249748   2.493   4.793  16.904 -0.3831 -0.1740 -0.3025
 9445TIP3   OH249749   2.772   6.683  12.313 -0.4417  0.0248 -0.4166
 9445TIP3    H149750   2.842   6.681  12.248 -0.3489 -0.5757 -0.3076
 9445TIP3    H249751   2.751   6.591  12.327 -1.9838  0.2075 -1.2476
 9446TIP3   OH249752   3.549   3.574   6.798 -0.0943  0.1106 -0.5081
 9446TIP3    H149753   3.516   3.485   6.805  1.9881 -1.0881 -3.6420
 9446TIP3    H249754   3.644   3.564   6.797  0.2013  2.3889 -0.8735
 9447TIP3   OH249755   1.409   3.842  15.907 -0.0847  0.2603  0.8080
 9447TIP3    H149756   1.399   3.901  15.981  1.3184  0.8374  0.5620
 9447TIP3    H249757   1.356   3.882  15.838  1.1576  1.4770  0.5199
 9448TIP3   OH249758   6.385   1.302  11.406  0.3310 -0.0086  0.1299
 9448TIP3    H149759   6.451   1.316  11.474  0.0979  1.4858  0.0751
 9448TIP3    H249760   6.425   1.338  11.327  0.3098 -1.0920 -0.3931
 9449TIP3   OH249761   4.671   5.694  15.971 -0.6373  0.6052  0.3050
 9449TIP3    H149762   4.765   5.697  15.951 -0.3796 -1.6146  0.8648
 9449TIP3    H249763   4.631   5.657  15.892 -0.8844  0.5409  0.4593
 9450TIP3   OH249764   1.188   1.372   3.791 -0.2438 -0.0981 -0.2301
 9450TIP3    H149765   1.210   1.435   3.859 -0.8263 -0.0940 -0.0423
 9450TIP3    H249766   1.226   1.290   3.821 -1.7199 -0.4375  0.8358
 9451TIP3   OH249767   4.716   6.014  15.671  0.0942  0.3660  0.2780
 9451TIP3    H149768   4.726   6.103  15.705 -0.6054  0.1169  1.1565
 9451TIP3    H249769   4.757   5.958  15.736 -1.3072 -0.1174  0.7857
 9452TIP3   OH249770   6.225   3.413  11.774 -0.3540 -0.0243 -0.5222
 9452TIP3    H149771   6.244   3.320  11.774  2.6617  0.3051  3.6704
 9452TIP3    H249772   6.305   3.454  11.743 -0.1191  1.1431  1.4216
 9453TIP3   OH249773   2.240   0.588  12.653 -0.0638  0.1405  0.2526
 9453TIP3    H149774   2.314   0.642  12.625  0.8940 -0.4431  1.5660
 9453TIP3    H249775   2.270   0.498  12.642 -1.9488 -0.2629 -2.7218
 9454TIP3   OH249776   0.037   2.615   1.748 -0.5097  0.1796  0.6240
 9454TIP3    H149777   0.001   2.675   1.813 -0.7112  1.0733 -0.3077
 9454TIP3    H249778   0.014   2.528   1.781 -0.4704  0.6031  1.8283
 9455TIP3   OH249779   3.271   1.501   4.155 -0.2234 -0.0866  0.2462
 9455TIP3    H149780   3.296   1.461   4.239  0.0172  1.4198  0.9384
 9455TIP3    H249781   3.175   1.500   4.156 -0.2190 -0.7663  0.1891
 9456TIP3   OH249782   5.392   2.639  10.645  0.5053  0.5047 -0.1025
 9456TIP3    H149783   5.476   2.616  10.604  0.0646 -2.4406  0.3872
 9456TIP3    H249784   5.414   2.654  10.737  0.5812  0.2641 -0.0788
 9457TIP3   OH249785   4.507   0.249  13.763 -0.3904  0.1161  0.3762
 9457TIP3    H149786   4.574   0.181  13.767 -0.3250  0.0917 -0.9311
 9457TIP3    H249787   4.474   0.255  13.853  1.7003  0.4648  1.1823
 9458TIP3   OH249788   5.190   1.040  14.058 -0.1277  0.3221  0.1781
 9458TIP3    H149789   5.146   1.092  13.991 -0.1175  2.0555  1.4581
 9458TIP3    H249790   5.278   1.078  14.064  0.4521 -0.9207  0.0171
 9459TIP3   OH249791   4.866   1.745  13.362  0.1601 -0.1122  0.3053
 9459TIP3    H149792   4.817   1.768  13.284  0.1609  0.3875  0.4450
 9459TIP3    H249793   4.860   1.823  13.418  0.4685 -0.3253  0.6434
 9460TIP3   OH249794   5.607   0.848   2.777 -0.1180  0.3375 -0.3669
 9460TIP3    H149795   5.557   0.906   2.834  1.1393  0.0741  1.0981
 9460TIP3    H249796   5.688   0.831   2.826  0.4174 -1.0337 -1.6444
 9461TIP3   OH249797   6.455   2.949   1.478 -0.0011 -0.4876  0.3396
 9461TIP3    H149798   6.459   2.919   1.387  1.5887  0.4758  0.0586
 9461TIP3    H249799   6.439   3.043   1.471 -1.4974 -0.6423  1.1324
 9462TIP3   OH249800   3.770   2.161   5.944 -0.5351 -0.3215 -0.0172
 9462TIP3    H149801   3.750   2.247   5.981  1.0474 -0.3438  0.9593
 9462TIP3    H249802   3.833   2.178   5.874 -1.2700 -0.5798 -0.7665
 9463TIP3   OH249803   5.825   2.828   0.690  0.5824  0.3732 -1.0764
 9463TIP3    H149804   5.858   2.845   0.778  1.2077  3.2743 -1.7652
 9463TIP3    H249805   5.756   2.763   0.702  0.8519  0.4761  1.5079
 9464TIP3   OH249806   5.701   6.709  16.308  0.1718  0.0343 -0.1902
 9464TIP3    H149807   5.692   6.794  16.265  0.6635 -0.1073 -0.5820
 9464TIP3    H249808   5.621   6.699  16.359  0.2903  0.9145  0.1796
 9465TIP3   OH249809   1.774   5.732  16.319  0.7006  0.2379  0.1548
 9465TIP3    H149810   1.798   5.641  16.336  1.1276  0.2974 -0.1228
 9465TIP3    H249811   1.857   5.776  16.299  0.1955 -0.0558 -3.1498
 9466TIP3   OH249812   6.081   5.133  11.176 -0.5617  0.4219 -0.0488
 9466TIP3    H149813   6.167   5.148  11.216 -0.5616  0.1397  0.0586
 9466TIP3    H249814   6.030   5.210  11.199 -0.1787  0.8289 -0.5470
 9467TIP3   OH249815   1.785   1.363   0.430 -0.0695 -0.1312  0.1814
 9467TIP3    H149816   1.838   1.438   0.406 -0.1796  0.3103  1.2478
 9467TIP3    H249817   1.813   1.341   0.519  0.0586 -1.4446 -0.1657
 9468TIP3   OH249818   1.587   6.265  16.592  0.3479 -0.1045  0.1989
 9468TIP3    H149819   1.513   6.226  16.639  0.2675  0.1090  0.2487
 9468TIP3    H249820   1.581   6.228  16.504 -0.2991  0.5360 -0.0343
 9469TIP3   OH249821   4.024   4.968  14.288  0.6138 -0.2152 -0.3406
 9469TIP3    H149822   3.961   4.920  14.235  0.9622 -1.6390  0.4740
 9469TIP3    H249823   4.107   4.922  14.274  0.8534 -0.1873  0.8671
 9470TIP3   OH249824   1.275   1.504   0.130 -0.4768 -0.2388 -0.4340
 9470TIP3    H149825   1.359   1.465   0.104  0.0006 -0.3122  1.0952
 9470TIP3    H249826   1.246   1.552   0.053  1.9978  1.4915 -0.3994
 9471TIP3   OH249827   2.642   3.556  15.054  0.5558  0.7147  0.9546
 9471TIP3    H149828   2.738   3.550  15.059  0.6340 -1.5647 -0.9873
 9471TIP3    H249829   2.626   3.619  14.984  0.8478 -1.1254 -0.9033
 9472TIP3   OH249830   1.567   2.908   2.193 -0.3215  0.3747  0.1985
 9472TIP3    H149831   1.585   2.820   2.227  0.0130  0.3769  0.0376
 9472TIP3    H249832   1.591   2.903   2.100 -0.6271  0.5417  0.1107
 9473TIP3   OH249833   0.123   1.805  16.174 -0.1706 -0.1266 -0.6279
 9473TIP3    H149834   0.103   1.886  16.222  0.3977 -1.4085  1.9307
 9473TIP3    H249835   0.040   1.782  16.133 -0.3328  1.7484 -1.4648
 9474TIP3   OH249836   2.796   3.027   0.212 -0.0050 -0.0333  0.0284
 9474TIP3    H149837   2.732   3.086   0.173 -0.6767  0.1872  1.4094
 9474TIP3    H249838   2.808   2.957   0.147 -0.7972  0.5035 -0.7102
 9475TIP3   OH249839   1.143   4.263  16.179  0.3841 -0.2865  0.1382
 9475TIP3    H149840   1.104   4.350  16.187 -0.5895 -0.7329  0.5454
 9475TIP3    H249841   1.208   4.259  16.249  0.1051 -0.0477  0.4157
 9476TIP3   OH249842   4.160   4.538   5.874  0.2047  0.1078 -0.0704
 9476TIP3    H149843   4.081   4.496   5.908 -0.6152  0.8213 -1.0085
 9476TIP3    H249844   4.202   4.576   5.950  0.0726 -0.9744  0.5576
 9477TIP3   OH249845   4.884   0.433   3.435 -0.5517  0.0270 -0.2918
 9477TIP3    H149846   4.829   0.507   3.460 -1.3235 -0.1551 -1.3780
 9477TIP3    H249847   4.963   0.442   3.489 -0.4945  1.8088 -0.6132
 9478TIP3   OH249848   1.290   3.585   3.441  0.0278 -0.4429 -0.4975
 9478TIP3    H149849   1.208   3.541   3.462  0.6260 -1.3254  0.0597
 9478TIP3    H249850   1.347   3.515   3.408  0.3056  0.2886 -1.6371
 9479TIP3   OH249851   5.103   0.335   2.444 -0.5178 -0.0703 -0.2811
 9479TIP3    H149852   5.190   0.319   2.480 -0.4529 -1.1803 -0.8839
 9479TIP3    H249853   5.098   0.277   2.367 -1.3162  0.9050 -0.9842
 9480TIP3   OH249854   6.786   4.832  13.807 -0.0819  0.4414  0.0063
 9480TIP3    H149855   6.724   4.766  13.777 -0.0636  0.0455  0.8280
 9480TIP3    H249856   6.735   4.891  13.862  0.5577 -0.8323  2.0752
 9481TIP3   OH249857   0.610   3.308  14.527 -0.5832  0.3728  0.2057
 9481TIP3    H149858   0.648   3.386  14.486  0.2699  0.6279  1.4569
 9481TIP3    H249859   0.526   3.297  14.482  0.3501  0.5678 -1.6844
 9482TIP3   OH249860   0.756   4.787  15.571 -0.0513  0.3905  0.4835
 9482TIP3    H149861   0.819   4.843  15.524  1.0464 -0.2431  1.1502
 9482TIP3    H249862   0.698   4.753  15.503  0.5233  0.7432 -0.1942
 9483TIP3   OH249863   0.032   5.282   4.685 -0.0181  0.6247 -0.0721
 9483TIP3    H149864  -0.049   5.287   4.635 -0.0543  0.6593 -0.0108
 9483TIP3    H249865   0.081   5.360   4.658 -0.6512  1.4257  0.9998
 9484TIP3   OH249866   1.716   1.184   4.190 -0.6394 -0.3166  0.0927
 9484TIP3    H149867   1.738   1.275   4.170 -0.0041 -0.7274 -1.1665
 9484TIP3    H249868   1.779   1.158   4.256 -0.8158  0.1460  0.4482
 9485TIP3   OH249869   2.506   0.695   2.515 -0.1928 -0.5195 -0.1917
 9485TIP3    H149870   2.463   0.635   2.576  0.1226 -0.7243 -0.1685
 9485TIP3    H249871   2.486   0.782   2.549 -1.3702 -0.5709 -0.7007
 9486TIP3   OH249872   5.036   6.224  13.937 -0.2801 -0.0818 -0.4352
 9486TIP3    H149873   5.032   6.232  14.032 -0.4706 -1.8670 -0.2620
 9486TIP3    H249874   4.945   6.233  13.908 -0.8429 -3.2420 -0.0337
 9487TIP3   OH249875   2.166   5.503   5.327 -0.0335 -0.5838 -0.0799
 9487TIP3    H149876   2.191   5.587   5.288  1.5261 -1.0540 -0.1601
 9487TIP3    H249877   2.095   5.471   5.272 -0.3762  0.4939 -0.2851
 9488TIP3   OH249878   6.057   5.341  14.434  0.4357 -0.2788  0.0488
 9488TIP3    H149879   6.001   5.266  14.412 -0.8392  1.0177 -1.3274
 9488TIP3    H249880   6.067   5.388  14.351  0.1325  1.7920  1.1398
 9489TIP3   OH249881   2.940   6.370  15.924 -0.2849  0.1738  0.4236
 9489TIP3    H149882   2.892   6.337  15.999 -1.5980  2.9635  0.9506
 9489TIP3    H249883   2.907   6.459  15.911  1.6486  0.6755 -1.9533
 9490TIP3   OH249884   2.142   1.946   4.840 -0.6330  0.4742  0.3897
 9490TIP3    H149885   2.160   1.860   4.803 -2.0178 -0.2843  1.3847
 9490TIP3    H249886   2.226   1.975   4.875 -0.1115 -0.3952 -0.0988
 9491TIP3   OH249887   3.393   3.449   5.408  0.4437 -0.0446 -0.0943
 9491TIP3    H149888   3.298   3.441   5.411  0.3986 -0.3460 -1.5041
 9491TIP3    H249889   3.410   3.537   5.440 -0.2597 -0.1696  0.6718
 9492TIP3   OH249890   0.905   0.159  16.853  0.0778  0.3182  0.1940
 9492TIP3    H149891   0.882   0.080  16.805  1.0392  0.5544 -0.6892
 9492TIP3    H249892   0.909   0.131  16.945 -4.0017  0.3517  0.5563
 9493TIP3   OH249893   0.642   2.522   0.190 -0.2383  0.2787  0.2434
 9493TIP3    H149894   0.624   2.565   0.107  0.2226  2.6596  1.3098
 9493TIP3    H249895   0.556   2.509   0.230 -0.4864 -1.1415 -0.6728
 9494TIP3   OH249896   1.061   4.048  15.924 -0.0282  0.1761  0.3505
 9494TIP3    H149897   1.079   4.120  15.984  0.1058  0.0310  0.4856
 9494TIP3    H249898   1.027   3.977  15.979  0.6568 -0.1664  0.3485
 9495TIP3   OH249899   0.451   1.609   0.551 -0.4345  0.0304  0.0381
 9495TIP3    H149900   0.474   1.554   0.475 -1.1104  0.7879 -0.7385
 9495TIP3    H249901   0.511   1.682   0.547  0.1682 -0.4087  0.8145
 9496TIP3   OH249902   5.659   4.630   0.981  0.0233 -0.0391 -0.0937
 9496TIP3    H149903   5.689   4.720   0.966 -1.3766  0.3266 -0.8122
 9496TIP3    H249904   5.606   4.609   0.904  0.1572 -1.4133  0.1621
 9497TIP3   OH249905   1.701   0.107  11.649  0.2981 -0.6933 -0.2112
 9497TIP3    H149906   1.744   0.035  11.604  2.8151  1.2501 -1.1738
 9497TIP3    H249907   1.773   0.164  11.677 -1.5226  1.0591  1.1988
 9498TIP3   OH249908   1.530   0.152  12.700  0.2214 -0.0649 -0.3065
 9498TIP3    H149909   1.513   0.065  12.737 -0.8620  0.5138  0.6287
 9498TIP3    H249910   1.505   0.144  12.608 -4.6661  0.4422  0.7124
 9499TIP3   OH249911   1.475   2.699  17.026  0.1805 -0.2652  0.4304
 9499TIP3    H149912   1.527   2.710  17.105 -0.2608 -2.5837  1.1201
 9499TIP3    H249913   1.407   2.766  17.032 -0.1614 -0.7305  2.3128
 9500TIP3   OH249914   1.513   6.247  14.932 -0.4085 -0.3073 -0.4611
 9500TIP3    H149915   1.583   6.230  14.995 -1.0351 -0.6221  0.1664
 9500TIP3    H249916   1.433   6.227  14.980 -0.9107 -0.2788 -1.2772
 9501TIP3   OH249917   4.414   0.186   5.575 -0.5215  0.1731  1.1006
 9501TIP3    H149918   4.480   0.117   5.582  0.1819  0.7238  0.2216
 9501TIP3    H249919   4.334   0.141   5.551 -0.0558 -0.3582  0.4889
 9502TIP3   OH249920   6.421   6.267   0.586 -0.1398 -0.1341 -0.3440
 9502TIP3    H149921   6.431   6.294   0.494  1.9750  0.9532  0.1340
 9502TIP3    H249922   6.482   6.194   0.596  1.1754  1.0509  0.6456
 9503TIP3   OH249923   2.074   6.684   3.603  0.2287  0.4682 -0.6753
 9503TIP3    H149924   2.060   6.767   3.649 -1.6281 -0.2910  0.2419
 9503TIP3    H249925   2.015   6.689   3.528 -1.2897 -0.6916  0.3745
 9504TIP3   OH249926   6.291   4.700   4.480  0.4448 -0.3470 -0.1826
 9504TIP3    H149927   6.210   4.678   4.434  0.4793  0.4069 -0.6125
 9504TIP3    H249928   6.275   4.674   4.571 -0.9120  1.3192  0.1051
 9505TIP3   OH249929   2.672   4.083   2.554 -0.3777  0.3601  0.4105
 9505TIP3    H149930   2.662   4.011   2.617  0.0145  0.6897  0.8528
 9505TIP3    H249931   2.755   4.064   2.510 -1.5135 -0.8931 -1.3527
 9506TIP3   OH249932   1.441   1.722   5.288 -0.1499  0.2150  0.6837
 9506TIP3    H149933   1.364   1.696   5.237  0.1636  0.1240  0.2485
 9506TIP3    H249934   1.409   1.731   5.377 -0.7424  0.5251  0.4423
 9507TIP3   OH249935   2.921   0.959   5.145 -0.2672 -0.4175 -0.1683
 9507TIP3    H149936   2.878   0.974   5.060  1.0580 -1.5235 -1.0801
 9507TIP3    H249937   2.851   0.929   5.202 -1.5882  2.1933 -0.2742
 9508TIP3   OH249938   1.322   6.160   5.222 -0.3600 -0.3740 -0.4826
 9508TIP3    H149939   1.333   6.068   5.198  2.2831 -0.8444  2.0326
 9508TIP3    H249940   1.393   6.206   5.178 -0.1323  0.0229  0.2788
 9509TIP3   OH249941   5.074   3.824  14.765  0.0913  0.0875 -0.8441
 9509TIP3    H149942   5.116   3.755  14.714 -0.6798 -1.2648  0.2804
 9509TIP3    H249943   5.139   3.895  14.767  1.7916 -1.3984 -0.3064
 9510TIP3   OH249944   5.731   3.400  10.630  0.6917  0.1828  0.5662
 9510TIP3    H149945   5.664   3.333  10.624  1.3481 -0.3947 -0.5475
 9510TIP3    H249946   5.814   3.353  10.619  1.1241  1.2459 -1.1723
 9511TIP3   OH249947   2.547   1.263  12.440  0.0357  0.4504  0.5134
 9511TIP3    H149948   2.532   1.262  12.345 -3.2654 -0.2069  0.9065
 9511TIP3    H249949   2.597   1.184  12.458 -1.8077 -1.0110 -0.4491
 9512TIP3   OH249950   3.669   1.892  13.144 -0.1241 -0.5320  0.2900
 9512TIP3    H149951   3.672   1.982  13.112  0.3446 -0.6851 -0.1239
 9512TIP3    H249952   3.646   1.840  13.067 -0.2596 -0.7811  0.4957
 9513TIP3   OH249953   3.937   6.508  15.726 -0.3507 -0.0339  0.1789
 9513TIP3    H149954   3.930   6.451  15.802 -0.7153  0.1203  0.2601
 9513TIP3    H249955   4.004   6.572  15.750  2.4117 -2.2020 -1.0413
 9514TIP3   OH249956   4.580   1.284   0.047  0.0374  0.2704 -0.3604
 9514TIP3    H149957   4.486   1.294   0.061  0.4061  3.2402  0.8471
 9514TIP3    H249958   4.604   1.203   0.092 -1.8851 -0.4781 -0.6069
 9515TIP3   OH249959   0.624   6.265   5.848 -0.5640  0.2877  0.1468
 9515TIP3    H149960   0.631   6.306   5.934 -2.4279  0.3468  0.3170
 9515TIP3    H249961   0.535   6.285   5.819 -0.6356 -1.3877 -0.9478
 9516TIP3   OH249962   5.126   4.724   3.593 -0.4579 -0.2825 -0.1336
 9516TIP3    H149963   5.055   4.786   3.578 -0.3997 -0.0652  0.4744
 9516TIP3    H249964   5.197   4.755   3.537 -1.2455 -1.2488 -1.7838
 9517TIP3   OH249965   3.131   5.613  13.900  0.8917 -0.2626 -0.1373
 9517TIP3    H149966   3.165   5.524  13.912  2.8027  0.3770 -0.5708
 9517TIP3    H249967   3.180   5.666  13.963 -0.2193  0.5125  0.1097
 9518TIP3   OH249968   1.045   1.845  16.220 -0.1811 -0.3201 -0.1198
 9518TIP3    H149969   1.006   1.823  16.135  0.2034 -1.0108 -0.1273
 9518TIP3    H249970   1.111   1.777  16.234 -0.8381 -0.7370  1.1276
 9519TIP3   OH249971   5.040   5.092  10.797  0.0988  0.3882 -0.3575
 9519TIP3    H149972   5.111   5.064  10.739  0.9689 -0.1369  0.9207
 9519TIP3    H249973   4.967   5.111  10.737 -0.7537 -4.8918 -1.4947
 9520TIP3   OH249974   1.370   2.122  11.004  0.0793 -0.1717  0.4152
 9520TIP3    H149975   1.354   2.215  10.984 -0.9309 -0.6320 -1.1522
 9520TIP3    H249976   1.446   2.099  10.951 -0.6172 -0.6003 -0.4251
 9521TIP3   OH249977   0.059   1.550  11.204  0.7284  0.1239 -0.1557
 9521TIP3    H149978   0.043   1.590  11.119 -1.8217 -1.1798 -0.3839
 9521TIP3    H249979   0.082   1.623  11.262  0.9450  1.2230 -1.5837
 9522TIP3   OH249980   4.112   6.566  16.287 -0.4862  0.0451  0.3530
 9522TIP3    H149981   4.077   6.616  16.360 -0.6331  0.5917 -0.0828
 9522TIP3    H249982   4.173   6.504  16.327  0.4328  1.2079  0.8133
 9523TIP3   OH249983   5.024   2.324  11.222  0.0681  0.7357 -0.3266
 9523TIP3    H149984   4.944   2.322  11.168 -0.1666  1.0513  0.0032
 9523TIP3    H249985   4.993   2.344  11.310  0.6125  2.0763 -0.4045
 9524TIP3   OH249986   1.462   5.588   3.014 -0.8476  0.0587  0.3533
 9524TIP3    H149987   1.369   5.606   3.029 -1.0247 -1.0082  0.6419
 9524TIP3    H249988   1.488   5.651   2.947 -2.2476 -0.8436 -1.1039
 9525TIP3   OH249989   1.487   4.982  12.950  0.4006  0.3262  0.2729
 9525TIP3    H149990   1.557   4.939  13.001  0.7481 -0.3027 -0.7048
 9525TIP3    H249991   1.526   4.997  12.864 -0.4542  0.6014 -0.0738
 9526TIP3   OH249992   3.475   0.419   5.552 -0.0274  0.2229 -0.2946
 9526TIP3    H149993   3.422   0.481   5.502  0.2014  0.9858  0.3865
 9526TIP3    H249994   3.554   0.468   5.573 -0.2865  0.0652  1.1460
 9527TIP3   OH249995   3.740   4.136   3.279  0.4631 -0.3938 -0.1007
 9527TIP3    H149996   3.693   4.070   3.228  1.9160 -1.2218 -0.4244
 9527TIP3    H249997   3.764   4.203   3.215 -0.0858 -0.0725  0.0260
 9528TIP3   OH249998   2.016   6.356  14.664  0.3084  0.0214  0.4844
 9528TIP3    H149999   2.079   6.357  14.592  0.3300  0.5626  0.5096
 9528TIP3    H250000   2.056   6.409  14.732  1.2015 -2.0699  1.7093
 9529TIP3   OH250001   3.914   3.734   1.515 -0.0923  0.4094 -0.2407
 9529TIP3    H150002   3.820   3.724   1.508  0.2689 -2.3275 -3.2325
 9529TIP3    H250003   3.939   3.680   1.590 -0.9244  2.7121  1.8550
 9530TIP3   OH250004   1.358   5.652   4.151  0.1249 -0.1116 -0.2605
 9530TIP3    H150005   1.389   5.711   4.219  0.7364  0.7346 -1.2403
 9530TIP3    H250006   1.421   5.579   4.153 -0.3326 -0.4940  0.6061
 9531TIP3   OH250007   0.782   1.940  13.899  0.1560  0.2442 -0.5565
 9531TIP3    H150008   0.688   1.929  13.882 -0.5723  3.0179  1.0796
 9531TIP3    H250009   0.816   1.851  13.898 -2.7335 -1.0130  0.0064
 9532TIP3   OH250010   5.696   5.449   1.781 -0.1276  0.4626 -0.7979
 9532TIP3    H150011   5.736   5.522   1.829 -2.5615  0.3689  1.6484
 9532TIP3    H250012   5.633   5.490   1.722 -2.7848  0.4942  1.8262
 9533TIP3   OH250013   1.086   2.013  13.698 -0.0669  0.1787  0.0350
 9533TIP3    H150014   0.997   2.049  13.698 -1.0343 -1.9134  2.6495
 9533TIP3    H250015   1.093   1.965  13.616 -1.4771  0.1333 -0.0794
 9534TIP3   OH250016   0.284   1.041   3.942 -0.3690 -0.0803  0.6519
 9534TIP3    H150017   0.356   1.093   3.907 -2.2061  3.4780  1.7276
 9534TIP3    H250018   0.237   1.010   3.864 -0.5225  1.9456 -0.1232
 9535TIP3   OH250019   2.998   3.446   0.001 -0.0059 -0.1695  0.5162
 9535TIP3    H150020   3.083   3.404   0.012  1.7195  3.1518  1.2934
 9535TIP3    H250021   3.005   3.528   0.051 -2.7212  1.4581 -1.4782
 9536TIP3   OH250022   2.964   6.590   0.855 -0.3607 -0.3596 -0.5434
 9536TIP3    H150023   2.934   6.681   0.847 -0.8270 -0.5457 -0.9894
 9536TIP3    H250024   2.898   6.549   0.911 -0.6164 -0.6229 -1.0308
 9537TIP3   OH250025   1.944   3.384   4.905  0.3552 -0.2899  0.1255
 9537TIP3    H150026   2.012   3.440   4.943 -0.4702  1.6245 -1.0444
 9537TIP3    H250027   1.863   3.417   4.943 -0.0747 -1.2863  0.0768
 9538TIP3   OH250028   1.131   1.607   0.357 -0.1295 -0.1573 -0.2274
 9538TIP3    H150029   1.119   1.693   0.316 -1.9450 -0.7210 -0.9703
 9538TIP3    H250030   1.160   1.550   0.286  1.5900 -0.0834  0.3742
 9539TIP3   OH250031   4.243   5.777   6.305 -0.4336 -0.2050  0.3592
 9539TIP3    H150032   4.208   5.796   6.392  0.4250 -0.8023  0.8434
 9539TIP3    H250033   4.315   5.838   6.294  2.5955 -3.1651  2.0806
 9540TIP3   OH250034   4.152   1.751   0.066  0.0787 -0.0345 -0.9362
 9540TIP3    H150035   4.216   1.797   0.120  1.2877 -1.9833 -0.6338
 9540TIP3    H250036   4.170   1.781  -0.023 -0.0551  1.0526 -0.6220
 9541TIP3   OH250037   1.481   6.567   0.949 -0.8192  0.8837 -0.2026
 9541TIP3    H150038   1.542   6.520   0.892 -2.0123  0.9468 -1.5890
 9541TIP3    H250039   1.482   6.517   1.031  0.2760  0.2713 -0.5691
 9542TIP3   OH250040   6.682   4.391   5.276 -0.4062  0.3533 -0.1370
 9542TIP3    H150041   6.772   4.365   5.295 -0.1117  0.9534 -0.6874
 9542TIP3    H250042   6.689   4.477   5.236 -1.1162 -0.1579 -1.4408
 9543TIP3   OH250043   5.924   2.710   3.469  0.1479  0.6125 -0.5435
 9543TIP3    H150044   5.917   2.751   3.383 -0.2227  0.8234 -0.4129
 9543TIP3    H250045   5.834   2.694   3.496  0.2659  0.4067 -0.2585
 9544TIP3   OH250046   0.512   5.709   4.982 -0.3306  0.2869 -0.3110
 9544TIP3    H150047   0.506   5.769   5.056 -0.0919 -0.9795  0.7650
 9544TIP3    H250048   0.485   5.625   5.017  0.6189 -0.5217 -1.4421
 9545TIP3   OH250049   3.606   3.958   4.728  0.3294  0.6551 -0.3830
 9545TIP3    H150050   3.621   4.000   4.813 -1.5128 -0.0681  0.3481
 9545TIP3    H250051   3.631   3.866   4.742  0.8752  0.7243 -0.8925
 9546TIP3   OH250052   2.513   6.496   0.171 -0.4002  0.0596 -0.6106
 9546TIP3    H150053   2.504   6.590   0.152 -0.4780 -0.1282 -1.5253
 9546TIP3    H250054   2.470   6.453   0.097 -1.4099 -0.6826  0.3858
 9547TIP3   OH250055   4.350   0.597  13.017  0.2769  0.4100 -0.3749
 9547TIP3    H150056   4.389   0.670  12.968 -0.6031  0.8643 -0.4154
 9547TIP3    H250057   4.415   0.527  13.010  0.0757  0.3527 -2.4568
 9548TIP3   OH250058   6.694   4.907   0.428 -0.3804 -0.2861 -0.0207
 9548TIP3    H150059   6.608   4.902   0.471 -0.0067  1.2302  0.9758
 9548TIP3    H250060   6.675   4.894   0.335 -1.5396 -1.0926  0.3023
 9549TIP3   OH250061   5.630   0.017   1.357 -0.0689 -0.2359  0.3358
 9549TIP3    H150062   5.677  -0.066   1.351  0.9362  0.3847 -1.0657
 9549TIP3    H250063   5.697   0.081   1.382 -0.7606  0.2110  1.1010
 9550TIP3   OH250064   5.664   5.644  14.050 -0.4782 -0.4993  0.2963
 9550TIP3    H150065   5.625   5.678  13.970 -1.3848 -1.2962  0.3795
 9550TIP3    H250066   5.758   5.650  14.035 -0.6080 -1.7532 -1.3437
 9551TIP3   OH250067   3.851   2.793  10.984  0.2561 -0.3541 -0.2472
 9551TIP3    H150068   3.866   2.813  10.891  1.5602 -2.0002 -0.4286
 9551TIP3    H250069   3.892   2.708  10.997 -0.0987 -0.2456  1.8131
 9552TIP3   OH250070   2.854   4.008  15.433  0.2557 -0.3733  0.0114
 9552TIP3    H150071   2.767   4.019  15.472 -0.1711 -0.3742 -0.9212
 9552TIP3    H250072   2.851   4.057  15.352  0.9935 -0.7203 -0.2398
 9553TIP3   OH250073   2.540   5.184   1.206  0.3177 -0.6288  0.6622
 9553TIP3    H150074   2.574   5.265   1.244 -0.0990  1.6281 -3.2438
 9553TIP3    H250075   2.611   5.121   1.214  2.0628  1.2645  0.6471
 9554TIP3   OH250076   4.006   2.654   2.425  0.5696  0.8164 -0.3192
 9554TIP3    H150077   3.986   2.575   2.474  0.7937  0.7427 -0.3455
 9554TIP3    H250078   3.923   2.701   2.421  0.5103  0.7395 -0.0212
 9555TIP3   OH250079   2.171   0.820   1.910  0.6145  0.1676  0.1532
 9555TIP3    H150080   2.231   0.875   1.859  0.9629  0.1449  0.5329
 9555TIP3    H250081   2.084   0.852   1.888  0.8294  1.1869  0.7227
 9556TIP3   OH250082   4.345   1.505  15.479 -0.1818 -0.1670 -0.0394
 9556TIP3    H150083   4.389   1.467  15.555 -0.3849  1.3186  0.8622
 9556TIP3    H250084   4.252   1.501  15.502 -0.2227  0.5669 -0.0516
 9557TIP3   OH250085   5.847   5.910  13.253 -0.3379 -0.3154  0.0866
 9557TIP3    H150086   5.789   5.887  13.181 -1.8205  1.7475  0.5201
 9557TIP3    H250087   5.863   5.828  13.298 -0.6505 -1.3867 -1.6652
 9558TIP3   OH250088   1.753   1.730   3.243  1.2159 -0.0263  0.4813
 9558TIP3    H150089   1.664   1.695   3.242  1.6581 -1.4443  3.0072
 9558TIP3    H250090   1.786   1.714   3.155 -0.9246  0.3465 -0.4457
 9559TIP3   OH250091   0.616   3.501   4.689 -0.1089 -0.4865  0.2675
 9559TIP3    H150092   0.599   3.557   4.765  0.0251 -0.9646  0.6550
 9559TIP3    H250093   0.681   3.438   4.720  1.3106  0.4159 -0.7664
 9560TIP3   OH250094   5.568   5.948  12.467 -0.2524  0.2976  0.3385
 9560TIP3    H150095   5.576   6.033  12.423  1.4895  0.6262  1.2191
 9560TIP3    H250096   5.627   5.891  12.419 -0.0074  0.0856  0.8819
 9561TIP3   OH250097   3.750   3.113   0.655  0.0969  0.0721  0.0532
 9561TIP3    H150098   3.809   3.040   0.635  0.8245  0.6752 -0.0173
 9561TIP3    H250099   3.782   3.185   0.600  0.7553  1.1135  1.7428
 9562TIP3   OH250100   1.010   3.626  14.902  0.0293 -0.0416  0.5633
 9562TIP3    H150101   0.993   3.720  14.916 -1.4205  0.0072 -1.1241
 9562TIP3    H250102   1.089   3.624  14.848 -1.9469  0.4934 -2.5776
 9563TIP3   OH250103   1.964   4.798  11.626 -0.0686  0.6074 -0.2483
 9563TIP3    H150104   1.938   4.881  11.664  0.5431  0.4702  0.4788
 9563TIP3    H250105   1.939   4.732  11.691 -1.4664  0.1071 -1.2321
 9564TIP3   OH250106   6.019   1.768   3.673 -0.0888 -0.0678  0.5155
 9564TIP3    H150107   5.976   1.752   3.589  0.9138 -2.0050  0.3219
 9564TIP3    H250108   5.968   1.717   3.736  0.2607 -0.1071  0.7654
 9565TIP3   OH250109   2.958   6.175  11.424  0.0327 -0.6665  0.0671
 9565TIP3    H150110   3.033   6.191  11.367  0.1804 -2.1296 -0.1774
 9565TIP3    H250111   2.972   6.234  11.498  0.9313 -0.2544 -0.4106
 9566TIP3   OH250112   2.225   2.997  11.781 -0.1760 -0.4071  0.1955
 9566TIP3    H150113   2.169   2.965  11.710  0.0242 -0.8443  0.2292
 9566TIP3    H250114   2.207   3.091  11.786 -1.2809 -0.6297  0.5519
 9567TIP3   OH250115   6.379   0.566   1.929 -0.4850  0.1170  0.2979
 9567TIP3    H150116   6.383   0.660   1.945 -0.8045  0.0904  0.5504
 9567TIP3    H250117   6.464   0.533   1.957 -0.2116  0.3876 -0.1938
 9568TIP3   OH250118   3.741   5.627  14.129 -0.3381 -0.1149  0.1562
 9568TIP3    H150119   3.803   5.618  14.202  1.3617 -1.1755 -1.3090
 9568TIP3    H250120   3.794   5.663  14.058 -1.9960  1.0728 -0.5374
 9569TIP3   OH250121   4.250   4.905   2.949 -1.2248 -0.1713 -0.1955
 9569TIP3    H150122   4.326   4.915   3.006 -2.1174  0.6404  0.9136
 9569TIP3    H250123   4.279   4.848   2.878  0.2719 -0.2264  0.4416
 9570TIP3   OH250124   4.341   0.657   4.523  0.5209  0.0252 -0.7690
 9570TIP3    H150125   4.338   0.742   4.567 -0.7639  0.1858 -1.1130
 9570TIP3    H250126   4.255   0.619   4.541  1.0629 -1.1813 -0.6734
 9571TIP3   OH250127   1.443   3.835  15.032 -0.2968 -0.2253 -0.0723
 9571TIP3    H150128   1.451   3.930  15.027 -2.5321  0.0098 -0.3247
 9571TIP3    H250129   1.453   3.805  14.942  0.5696 -0.2589  0.0294
 9572TIP3   OH250130   2.678   0.798  11.030  0.0676 -0.0522  0.0876
 9572TIP3    H150131   2.695   0.882  11.073  1.7614 -0.5102  0.3965
 9572TIP3    H250132   2.757   0.782  10.978 -0.1560 -1.5148  0.1514
 9573TIP3   OH250133   4.229   3.691   0.978 -0.0928 -0.7879  0.5232
 9573TIP3    H150134   4.301   3.717   1.035  1.1729  1.1503 -1.7669
 9573TIP3    H250135   4.258   3.610   0.937 -0.9492 -2.1121  2.3900
 9574TIP3   OH250136   2.879   3.644   0.895 -0.3422 -0.3839  0.0663
 9574TIP3    H150137   2.922   3.559   0.896  0.7699  0.1532 -0.0987
 9574TIP3    H250138   2.947   3.705   0.865 -1.0280  0.6054  0.4624
 9575TIP3   OH250139   0.910   5.539   0.491 -0.2871 -0.0695  0.1853
 9575TIP3    H150140   0.981   5.572   0.547 -0.4582  1.8594 -0.6810
 9575TIP3    H250141   0.956   5.497   0.418 -0.0228  0.8491 -0.1871
 9576TIP3   OH250142   5.781   0.158   1.730  0.4185  0.6618 -0.2646
 9576TIP3    H150143   5.800   0.199   1.646  0.3397  1.6128  0.1693
 9576TIP3    H250144   5.846   0.195   1.790 -1.0328  1.8866  0.6284
 9577TIP3   OH250145   6.107   4.565   2.678  0.0838 -0.2923 -0.3898
 9577TIP3    H150146   6.054   4.635   2.640  0.0080  0.1309  0.4744
 9577TIP3    H250147   6.051   4.488   2.675  0.5023 -0.5757 -2.2347
 9578TIP3   OH250148   6.617   2.866  14.512  0.1604 -0.2567 -0.3570
 9578TIP3    H150149   6.674   2.938  14.540  0.8676 -0.4103 -1.3378
 9578TIP3    H250150   6.530   2.891  14.543  0.4751  0.7809 -0.2527
 9579TIP3   OH250151   0.295   1.267   0.104 -0.5447 -0.3731  0.0069
 9579TIP3    H150152   0.328   1.334   0.043 -0.3330  0.5256  1.0724
 9579TIP3    H250153   0.369   1.208   0.116 -0.6464 -0.6679 -0.7352
 9580TIP3   OH250154   0.704   3.068  14.626 -0.0294 -0.2006  0.1528
 9580TIP3    H150155   0.658   3.150  14.606  0.0401 -0.4928 -1.3523
 9580TIP3    H250156   0.682   3.011  14.553  2.1783 -0.5871 -0.2780
 9581TIP3   OH250157   6.597   2.359  14.286 -0.3555 -0.4722 -0.2511
 9581TIP3    H150158   6.589   2.454  14.299  0.2692 -0.4942  0.3356
 9581TIP3    H250159   6.510   2.325  14.307 -0.6640 -0.0053 -0.7358
 9582TIP3   OH250160   5.247   6.477   0.240 -0.4357 -0.6103 -0.6440
 9582TIP3    H150161   5.312   6.508   0.303  0.8509 -0.8527 -1.8050
 9582TIP3    H250162   5.187   6.550   0.230  0.4258  0.1307 -0.5491
 9583TIP3   OH250163   5.342   4.706   5.995 -1.1695  0.1030  0.6073
 9583TIP3    H150164   5.368   4.792   5.961 -1.0191 -0.2864 -0.2879
 9583TIP3    H250165   5.424   4.656   5.999 -1.6337 -1.0552 -2.0150
 9584TIP3   OH250166   1.774   6.737   2.759 -0.5356 -0.5559  0.5911
 9584TIP3    H150167   1.828   6.810   2.786 -2.9233  1.1559  1.1127
 9584TIP3    H250168   1.827   6.659   2.777  1.4999  0.9621  1.4836
 9585TIP3   OH250169   6.509   6.604  14.545  0.1214 -0.8171 -0.0556
 9585TIP3    H150170   6.468   6.594  14.631  0.1034  1.3330  0.2416
 9585TIP3    H250171   6.471   6.534  14.492 -1.9619 -0.5105  0.9371
 9586TIP3   OH250172   4.412   4.140   2.597 -0.4125  0.3669 -0.1506
 9586TIP3    H150173   4.430   4.070   2.661  1.2988  1.0298  0.1296
 9586TIP3    H250174   4.402   4.093   2.514 -1.9496 -0.4379  0.4339
 9587TIP3   OH250175   4.678   6.062  14.743 -0.1279  0.4739 -0.2881
 9587TIP3    H150176   4.707   6.005  14.672 -0.7235 -0.0364 -0.1193
 9587TIP3    H250177   4.591   6.031  14.766  1.4729 -1.9594  3.3430
 9588TIP3   OH250178   3.599   2.841  11.074 -0.1526 -0.3876  0.4156
 9588TIP3    H150179   3.689   2.810  11.080  0.1421  0.5579  1.1483
 9588TIP3    H250180   3.607   2.936  11.062 -1.0362  0.1395  3.2157
 9589TIP3   OH250181   4.847   3.142   2.470 -0.6009 -0.5310  0.4645
 9589TIP3    H150182   4.781   3.170   2.533  0.7751  0.3679  1.5906
 9589TIP3    H250183   4.865   3.051   2.494 -0.4773 -0.3589  1.0677
 9590TIP3   OH250184   4.745   0.489  11.959  0.2174 -0.4246  0.3820
 9590TIP3    H150185   4.805   0.421  11.929  0.6208 -0.0934  0.4284
 9590TIP3    H250186   4.710   0.527  11.879  0.0772 -0.6132  0.3547
 9591TIP3   OH250187   6.672   3.319   2.411 -0.0259 -0.2861 -0.1709
 9591TIP3    H150188   6.739   3.278   2.465  1.8794  0.5077 -1.7917
 9591TIP3    H250189   6.676   3.412   2.434  0.7783  0.0572 -1.5851
 9592TIP3   OH250190   3.256   1.902  15.871  0.7340  0.5086  0.2510
 9592TIP3    H150191   3.187   1.962  15.845  2.0716  2.2312  0.5313
 9592TIP3    H250192   3.266   1.916  15.966 -0.1671 -1.5279  0.7168
 9593TIP3   OH250193   0.047   1.275  16.390 -0.2696  0.0457 -0.4159
 9593TIP3    H150194   0.095   1.193  16.376  0.6201  0.4170  0.3322
 9593TIP3    H250195   0.115   1.339  16.409 -0.8848  1.1637 -1.8220
 9594TIP3   OH250196   5.995   6.577  12.434  0.3832 -0.0333  0.1648
 9594TIP3    H150197   5.956   6.663  12.415  0.8582  0.4175  1.1563
 9594TIP3    H250198   5.959   6.519  12.367 -1.1881  0.5899  0.4160
 9595TIP3   OH250199   3.706   1.041   3.594  0.0466 -0.2642 -0.0320
 9595TIP3    H150200   3.648   1.102   3.548 -1.4706 -0.8799  0.9818
 9595TIP3    H250201   3.657   0.958   3.595  1.6917 -1.2885 -0.6254
 9596TIP3   OH250202   1.395   6.064  13.912 -0.5438  0.0716  0.6422
 9596TIP3    H150203   1.387   5.976  13.875 -2.0127  0.2966  0.3914
 9596TIP3    H250204   1.479   6.062  13.959 -0.6442 -1.5279  0.8242
 9597TIP3   OH250205   1.298   2.216   5.600  0.2888 -0.0181 -0.0578
 9597TIP3    H150206   1.239   2.141   5.608  1.3027 -0.9047 -0.6768
 9597TIP3    H250207   1.299   2.254   5.688 -1.6251  0.3729 -0.1527
 9598TIP3   OH250208   0.514   0.403   0.709 -0.3316 -0.4190  0.1056
 9598TIP3    H150209   0.516   0.350   0.629  0.2465  0.0453 -0.1920
 9598TIP3    H250210   0.523   0.493   0.679 -1.1237 -0.1533  0.6238
 9599TIP3   OH250211   1.826   0.724   5.640  0.2977 -0.2239  0.0813
 9599TIP3    H150212   1.833   0.679   5.556 -0.7642 -1.2156  0.4942
 9599TIP3    H250213   1.880   0.673   5.699  0.6794  0.2088  0.1080
 9600TIP3   OH250214   0.477   4.453  15.002 -0.1737  0.3000 -0.3266
 9600TIP3    H150215   0.474   4.390  14.931  1.4171  0.0944 -0.2685
 9600TIP3    H250216   0.521   4.406  15.073 -0.8547  0.8150  0.4545
 9601TIP3   OH250217   2.719   2.444  14.967 -0.0621 -0.1422 -0.2167
 9601TIP3    H150218   2.668   2.519  14.938 -1.0921 -0.5347  0.4978
 9601TIP3    H250219   2.787   2.482  15.023  1.1903  0.4934 -2.1012
 9602TIP3   OH250220   6.271   3.375  10.894 -0.0482  0.1081 -0.5973
 9602TIP3    H150221   6.177   3.386  10.911 -0.0111  0.4894 -0.6224
 9602TIP3    H250222   6.292   3.291  10.934 -0.0223  0.8634  1.1007
 9603TIP3   OH250223   2.774   3.482   3.720 -0.2111 -0.4013 -0.1230
 9603TIP3    H150224   2.769   3.539   3.643  1.4346  1.0327  0.7598
 9603TIP3    H250225   2.684   3.479   3.753 -0.6334  0.3347 -1.1293
 9604TIP3   OH250226   1.772   5.928  11.693 -0.0353  0.0087 -0.1224
 9604TIP3    H150227   1.721   5.927  11.775  0.8751  0.0643  0.4562
 9604TIP3    H250228   1.744   6.008  11.649 -0.8796 -0.2557 -0.0972
 9605TIP3   OH250229   2.724   0.563  15.753  0.2262 -0.4961 -0.6441
 9605TIP3    H150230   2.681   0.636  15.709 -1.7119 -1.2065 -0.0662
 9605TIP3    H250231   2.812   0.594  15.773 -0.6091  1.7550 -0.2139
 9606TIP3   OH250232   5.178   2.914   4.025 -0.2539  0.0936 -0.1571
 9606TIP3    H150233   5.116   2.921   3.953 -0.6539 -0.7944  0.0933
 9606TIP3    H250234   5.131   2.866   4.093 -0.2169  1.7173  1.0768
 9607TIP3   OH250235   0.194   5.657  16.646 -0.0907 -0.0620  0.1510
 9607TIP3    H150236   0.227   5.574  16.679 -1.6936 -0.6092  0.4324
 9607TIP3    H250237   0.200   5.649  16.551  0.1656 -0.3231  0.1879
 9608TIP3   OH250238   0.051   4.573   3.946 -0.2474  0.4614  0.8266
 9608TIP3    H150239  -0.045   4.573   3.939 -0.1143  0.6407 -1.5637
 9608TIP3    H250240   0.080   4.516   3.875  1.4523  1.0504  1.0219
 9609TIP3   OH250241   2.940   3.364  13.587 -0.1105 -0.1216  0.5474
 9609TIP3    H150242   2.852   3.330  13.605 -0.3405 -0.3512 -0.8825
 9609TIP3    H250243   2.996   3.320  13.650 -0.8024 -1.1546  0.4618
 9610TIP3   OH250244   1.737   4.453   3.450 -0.2906 -0.1050 -0.1073
 9610TIP3    H150245   1.734   4.516   3.522 -0.9962 -0.7952  0.4802
 9610TIP3    H250246   1.754   4.369   3.492  0.7403 -0.3091 -0.8950
 9611TIP3   OH250247   2.344   4.136  16.159 -0.9919 -0.4249 -0.1573
 9611TIP3    H150248   2.382   4.208  16.110 -0.1346 -0.3165  0.6501
 9611TIP3    H250249   2.336   4.065  16.095 -0.0392 -0.2329 -0.5030
 9612TIP3   OH250250   1.816   4.042  15.123  0.2368 -0.4688  0.0473
 9612TIP3    H150251   1.841   4.134  15.110  1.4675 -0.8020 -0.0293
 9612TIP3    H250252   1.817   4.031  15.218  0.8531 -0.5967  0.0314
 9613TIP3   OH250253   5.917   6.450   6.644  0.5307 -0.5205 -0.5017
 9613TIP3    H150254   5.845   6.437   6.583  0.6973  0.1541 -0.8498
 9613TIP3    H250255   5.975   6.512   6.600 -1.2327  3.1585  1.8421
 9614TIP3   OH250256   6.589   5.686   1.685 -0.3747 -0.2163  0.3906
 9614TIP3    H150257   6.579   5.747   1.612 -0.0711 -0.9769 -0.3057
 9614TIP3    H250258   6.679   5.654   1.679 -1.0022 -2.0049 -0.3135
 9615TIP3   OH250259   2.569   2.244  16.558  0.4520  0.1252  0.3636
 9615TIP3    H150260   2.506   2.175  16.540 -0.8178  1.0852  0.9789
 9615TIP3    H250261   2.637   2.200  16.610  0.9079 -1.1733 -1.2361
 9616TIP3   OH250262   5.169   2.795  11.560 -0.1702 -0.1074  0.1345
 9616TIP3    H150263   5.156   2.719  11.616 -1.7030  1.0209  1.4059
 9616TIP3    H250264   5.200   2.864  11.619 -3.4743  1.6229  0.0938
 9617TIP3   OH250265   3.088   3.834   0.791 -0.0436  0.1172  0.1289
 9617TIP3    H150266   3.038   3.876   0.721 -0.2427  0.7964  0.6566
 9617TIP3    H250267   3.174   3.816   0.752  0.4710  2.1310  0.1954
 9618TIP3   OH250268   5.893   6.377   1.828  0.1270 -0.1514 -0.4701
 9618TIP3    H150269   5.953   6.304   1.813  0.3087 -0.5523  1.8083
 9618TIP3    H250270   5.942   6.438   1.883 -0.8761  0.4716 -0.2323
 9619TIP3   OH250271   2.654   2.853   3.733 -0.0085 -0.1939 -0.3220
 9619TIP3    H150272   2.650   2.807   3.649  0.4007 -0.8050 -0.0110
 9619TIP3    H250273   2.641   2.785   3.799 -2.6175  0.5929  0.0710
 9620TIP3   OH250274   5.361   0.459  15.860 -1.1337 -0.0222 -0.4632
 9620TIP3    H150275   5.422   0.386  15.849 -0.4340  0.3855  0.5642
 9620TIP3    H250276   5.330   0.478  15.771 -1.5816 -1.7596 -0.7061
 9621TIP3   OH250277   5.370   0.796  12.561  0.2763 -0.4220 -0.4832
 9621TIP3    H150278   5.403   0.722  12.510  0.4927 -0.4490 -0.3101
 9621TIP3    H250279   5.280   0.772  12.582  0.6336 -1.0878  0.3816
 9622TIP3   OH250280   6.455   4.046   3.566  0.2943 -0.2267 -0.1076
 9622TIP3    H150281   6.544   4.042   3.602  0.5045 -0.6434 -0.6557
 9622TIP3    H250282   6.450   4.132   3.525  0.4831 -0.2427 -0.1655
 9623TIP3   OH250283   0.281   1.744  15.964  0.3339 -0.2079  0.4924
 9623TIP3    H150284   0.220   1.770  16.034  0.3837 -0.4424  0.6216
 9623TIP3    H250285   0.340   1.681  16.006  0.3815 -0.3276  0.2446
 9624TIP3   OH250286   5.378   3.577  11.908  0.1399 -0.4299 -0.1630
 9624TIP3    H150287   5.311   3.614  11.851  0.6227  1.6162  0.5143
 9624TIP3    H250288   5.461   3.608  11.871  0.5769 -0.8123  0.4696
 9625TIP3   OH250289   2.687   2.495   5.450 -0.7870  0.2591 -0.8461
 9625TIP3    H150290   2.617   2.559   5.446 -0.5875  0.5897  0.5324
 9625TIP3    H250291   2.754   2.529   5.390 -0.4512  1.6461  0.2659
 9626TIP3   OH250292   4.591   2.667  17.148  0.1369  0.6442 -0.3546
 9626TIP3    H150293   4.560   2.740  17.202  0.0680  0.5756 -0.2999
 9626TIP3    H250294   4.622   2.602  17.212 -2.3661 -0.5751 -0.2317
 9627TIP3   OH250295   6.195   1.732   5.760 -0.0226 -0.1731  0.1512
 9627TIP3    H150296   6.170   1.758   5.849  0.1262  0.2230  0.0788
 9627TIP3    H250297   6.174   1.639   5.756  1.3257 -0.5585  1.0965
 9628TIP3   OH250298   1.530   3.871  16.311 -0.2858 -0.7649 -0.3122
 9628TIP3    H150299   1.504   3.964  16.310 -0.3140 -0.7532 -2.0578
 9628TIP3    H250300   1.453   3.826  16.347  0.1778 -0.0460  1.7406
 9629TIP3   OH250301   0.348   4.118   4.342 -0.6456  0.5160  0.5448
 9629TIP3    H150302   0.323   4.042   4.289  0.4021  0.5065  0.0450
 9629TIP3    H250303   0.313   4.193   4.294 -0.3592  0.4519  0.2326
 9630TIP3   OH250304   1.382   2.424  15.591  0.1642  0.1369 -0.1632
 9630TIP3    H150305   1.437   2.359  15.635  1.4920  0.1571 -1.6976
 9630TIP3    H250306   1.299   2.378  15.575 -0.0221 -0.1654  1.4352
 9631TIP3   OH250307   5.677   5.827  12.245 -0.6991 -0.2122 -0.0864
 9631TIP3    H150308   5.654   5.866  12.161 -0.8705 -0.2234 -0.0432
 9631TIP3    H250309   5.606   5.767  12.265  0.0516 -1.3214 -0.6550
 9632TIP3   OH250310   3.154   1.446   3.468  0.5888  0.0725  0.6543
 9632TIP3    H150311   3.145   1.525   3.523 -0.1065  0.5629 -0.1414
 9632TIP3    H250312   3.192   1.381   3.527  1.2336  1.0128  1.3166
 9633TIP3   OH250313   2.115   1.752  12.165  0.0452 -0.5466 -0.3107
 9633TIP3    H150314   2.037   1.767  12.219  1.2302  0.5881  1.1957
 9633TIP3    H250315   2.117   1.827  12.105 -1.1106 -1.6585 -1.8458
 9634TIP3   OH250316   0.862   0.735  16.626 -0.4242 -0.0037 -0.3025
 9634TIP3    H150317   0.894   0.822  16.650 -0.3569  0.0981 -0.7423
 9634TIP3    H250318   0.829   0.746  16.536 -0.2898 -0.4656 -0.4099
 9635TIP3   OH250319   4.419   4.673  12.092  0.4555 -0.2914  0.1697
 9635TIP3    H150320   4.367   4.607  12.138  1.2471 -1.0467 -0.0009
 9635TIP3    H250321   4.357   4.716  12.033 -0.1149 -0.7252  0.4457
 9636TIP3   OH250322   3.886   4.769  12.923  0.2074  0.3150  0.0519
 9636TIP3    H150323   3.953   4.816  12.873  1.5377 -1.5399 -0.0161
 9636TIP3    H250324   3.935   4.723  12.991 -1.3406  1.0754  1.7601
 9637TIP3   OH250325   2.126   2.566  13.678  0.3597  0.6414 -0.6421
 9637TIP3    H150326   2.131   2.660  13.661  1.3315  0.7680  0.2234
 9637TIP3    H250327   2.033   2.547  13.685  0.1337  1.4347 -1.3665
 9638TIP3   OH250328   4.331   4.850   3.284 -0.2737  0.3255 -0.5748
 9638TIP3    H150329   4.329   4.769   3.233 -1.7114  0.6736 -1.1276
 9638TIP3    H250330   4.387   4.908   3.234 -1.1507  0.4439 -1.4654
 9639TIP3   OH250331   5.123   5.091   3.629 -0.7226 -0.2917  0.0238
 9639TIP3    H150332   5.046   5.037   3.612 -1.6309  1.1372 -0.5140
 9639TIP3    H250333   5.091   5.181   3.632  0.8369  0.2995  0.3525
 9640TIP3   OH250334   4.385   3.503   0.041  0.1565  0.7024  0.7908
 9640TIP3    H150335   4.312   3.512   0.103 -2.2109  2.2970 -1.9361
 9640TIP3    H250336   4.380   3.413   0.010 -1.3003  1.0036  0.0449
 9641TIP3   OH250337   4.834   5.137   6.457 -0.2913  0.8546 -0.2663
 9641TIP3    H150338   4.741   5.156   6.444 -0.0898  2.5692  0.5810
 9641TIP3    H250339   4.835   5.049   6.494 -1.6856  1.2468  0.8268
 9642TIP3   OH250340   3.207   1.911  12.178  0.2907  0.4078 -0.1146
 9642TIP3    H150341   3.190   1.820  12.154 -5.1608  0.7123  1.3036
 9642TIP3    H250342   3.221   1.955  12.094  1.1838 -1.3646 -0.9664
 9643TIP3   OH250343   4.092   6.325  11.252 -0.6253  0.4229 -0.5170
 9643TIP3    H150344   4.039   6.396  11.288  0.4588  1.0209 -0.0387
 9643TIP3    H250345   4.119   6.274  11.329  0.2980  0.7098 -0.6405
 9644TIP3   OH250346   4.798   0.812   0.981  0.3277 -0.7175 -0.6223
 9644TIP3    H150347   4.839   0.898   0.987  0.0754 -0.6514  0.1895
 9644TIP3    H250348   4.861   0.758   0.933  1.3134 -0.5841  0.5048
 9645TIP3   OH250349   0.564   4.723  13.227 -0.3555  0.2279  0.2332
 9645TIP3    H150350   0.632   4.776  13.268 -2.0876  1.1691  2.1260
 9645TIP3    H250351   0.568   4.746  13.134  0.5972  1.7914  0.6132
 9646TIP3   OH250352   4.787   4.441  16.219  0.9153  0.0343 -0.3474
 9646TIP3    H150353   4.752   4.404  16.301 -0.0992  1.9875  0.1449
 9646TIP3    H250354   4.872   4.477  16.245  0.4383  0.9729 -0.0354
 9647TIP3   OH250355   4.574   5.574   4.440 -0.1278 -0.0183 -0.5933
 9647TIP3    H150356   4.599   5.613   4.523  0.8780 -0.6578 -0.5676
 9647TIP3    H250357   4.613   5.631   4.374  0.8571 -0.6329 -0.5669
 9648TIP3   OH250358   6.053   4.471   0.700 -0.3155 -0.4003 -0.1305
 9648TIP3    H150359   6.020   4.547   0.749 -0.4194 -0.9604  0.6894
 9648TIP3    H250360   6.089   4.413   0.767  1.5850 -0.2077 -0.9164
 9649TIP3   OH250361   4.758   4.236   4.733  0.3499  0.3700  0.9285
 9649TIP3    H150362   4.816   4.169   4.771 -0.7258 -1.5270 -0.5964
 9649TIP3    H250363   4.670   4.202   4.748 -0.2307  1.5266  0.2286
 9650TIP3   OH250364   4.141   6.159  16.972 -0.2852  0.0959 -0.2130
 9650TIP3    H150365   4.167   6.115  16.891 -1.4791 -0.7235 -0.1724
 9650TIP3    H250366   4.222   6.164  17.023 -0.3113 -3.5274  0.4627
 9651TIP3   OH250367   3.589   6.641  16.104 -0.2263 -0.0721  0.9370
 9651TIP3    H150368   3.663   6.663  16.161 -0.3054  1.1103  0.6189
 9651TIP3    H250369   3.545   6.725  16.090  0.2058 -0.1710 -1.4438
 9652TIP3   OH250370   3.031   2.529   2.865  0.0926  0.0148 -0.1284
 9652TIP3    H150371   2.999   2.619   2.866 -0.6008 -0.2172 -0.6378
 9652TIP3    H250372   2.963   2.479   2.820  1.1635 -0.4954 -1.2749
 9653TIP3   OH250373   1.943   1.879   5.024  0.5713 -0.6896  0.0521
 9653TIP3    H150374   1.986   1.886   4.939 -2.0187 -2.5305 -1.5592
 9653TIP3    H250375   1.969   1.794   5.058  0.5872 -0.5151  0.4850
 9654TIP3   OH250376   6.000   4.709   1.754  0.0509  0.1349  0.4816
 9654TIP3    H150377   5.921   4.663   1.783 -0.4758  0.2448 -0.7427
 9654TIP3    H250378   6.042   4.737   1.835 -0.9489 -0.2845  1.1643
 9655TIP3   OH250379   2.593   0.621  11.284  0.0379 -0.1718 -0.1386
 9655TIP3    H150380   2.544   0.594  11.206 -1.8175  1.5019  0.3411
 9655TIP3    H250381   2.597   0.716  11.277  1.2061 -0.1124  1.0462
 9656TIP3   OH250382   0.164   6.599  16.135  0.0065  0.1238  0.3864
 9656TIP3    H150383   0.125   6.622  16.219  0.2648 -1.5366  1.0178
 9656TIP3    H250384   0.232   6.535  16.157  0.2353 -0.1769 -1.0565
 9657TIP3   OH250385   5.858   3.781   1.317 -0.3689 -0.0168  0.0804
 9657TIP3    H150386   5.862   3.693   1.279  0.4022 -0.6178  1.4794
 9657TIP3    H250387   5.794   3.827   1.263 -0.8570 -1.4562 -0.6319
 9658TIP3   OH250388   0.139   4.571   4.207 -0.1676  0.6396  0.1201
 9658TIP3    H150389   0.113   4.565   4.115  2.4076 -2.7628 -0.5679
 9658TIP3    H250390   0.176   4.659   4.215 -1.5826  1.4911 -1.6869
 9659TIP3   OH250391   2.224   1.478  16.887 -0.2495  0.1608 -0.8890
 9659TIP3    H150392   2.154   1.435  16.936  0.1891  0.9593  0.5172
 9659TIP3    H250393   2.249   1.416  16.819 -0.1865 -1.4606  0.5584
 9660TIP3   OH250394   3.305   2.675  16.388 -0.1878 -0.1511  0.3689
 9660TIP3    H150395   3.388   2.674  16.342 -0.1185 -2.2960  0.4613
 9660TIP3    H250396   3.261   2.754  16.356  0.3072 -0.9368 -2.5782
 9661TIP3   OH250397   5.378   3.963   0.254  1.1017 -0.2678  0.2803
 9661TIP3    H150398   5.331   4.046   0.263  0.0798 -0.3805 -2.8045
 9661TIP3    H250399   5.467   3.988   0.231  1.3098 -0.0750  1.2340
 9662TIP3   OH250400   1.618   2.273  12.480  0.3894  0.4507  0.4652
 9662TIP3    H150401   1.707   2.301  12.459  0.3530  0.0406 -0.2659
 9662TIP3    H250402   1.565   2.304  12.406  0.0833 -0.1417  0.4301
 9663TIP3   OH250403   1.456   0.393   4.207  0.1259  0.0656 -0.2047
 9663TIP3    H150404   1.468   0.327   4.138  0.8900  0.2852 -0.2846
 9663TIP3    H250405   1.390   0.453   4.171  0.9910  0.5490 -1.0296
 9664TIP3   OH250406   0.757   2.164  12.524  0.2522 -0.0116 -0.3916
 9664TIP3    H150407   0.680   2.107  12.519 -0.4560  1.0130 -3.1875
 9664TIP3    H250408   0.792   2.149  12.611 -0.2514 -4.2353 -0.6968
 9665TIP3   OH250409   1.621   0.154   5.084  0.1228  0.2524  0.6157
 9665TIP3    H150410   1.537   0.135   5.042  1.3961 -3.0345 -0.7959
 9665TIP3    H250411   1.660   0.223   5.031  0.0686 -1.1941 -1.4165
 9666TIP3   OH250412   0.388   2.428   1.482  0.1263  0.5339  0.1402
 9666TIP3    H150413   0.399   2.451   1.574 -0.5284  0.3696  0.2615
 9666TIP3    H250414   0.468   2.460   1.440  0.8776 -0.2358  0.9206
 9667TIP3   OH250415   5.284   5.438   5.544 -0.3053 -0.4070 -0.0967
 9667TIP3    H150416   5.253   5.499   5.611 -2.3577 -0.2934 -1.0916
 9667TIP3    H250417   5.344   5.490   5.490 -1.0301  0.3884 -0.1629
 9668TIP3   OH250418   0.645   5.357  13.003  0.4117  0.3364 -0.2662
 9668TIP3    H150419   0.618   5.318  12.920  0.8299  0.2650 -0.3703
 9668TIP3    H250420   0.563   5.371  13.050  0.2525 -0.6838 -0.2199
 9669TIP3   OH250421   3.568   6.357   0.162  0.2366  0.0934 -0.4860
 9669TIP3    H150422   3.477   6.335   0.140  0.1784  1.3379 -1.6290
 9669TIP3    H250423   3.588   6.433   0.107  0.5961  2.5229  2.6340
 9670TIP3   OH250424   5.126   5.293   0.399 -0.6781 -0.2075  0.2038
 9670TIP3    H150425   5.168   5.234   0.462 -2.7586 -0.8667  1.0762
 9670TIP3    H250426   5.191   5.360   0.382  1.7552 -2.6049 -0.6939
 9671TIP3   OH250427   2.232   4.252  11.730 -0.5623  0.3193 -0.8630
 9671TIP3    H150428   2.226   4.182  11.664 -1.4887 -1.8247  1.3190
 9671TIP3    H250429   2.254   4.206  11.811 -4.8794  1.9422  1.5431
 9672TIP3   OH250430   0.409   1.793   4.926  0.4980 -0.0501 -0.5277
 9672TIP3    H150431   0.335   1.756   4.973 -1.0652  1.5675 -1.5610
 9672TIP3    H250432   0.455   1.846   4.991  1.6113 -2.0902  0.4545
 9673TIP3   OH250433   0.125   0.466   4.772  0.0222 -0.0474 -0.3996
 9673TIP3    H150434   0.057   0.427   4.828 -0.8479  1.1537 -0.5581
 9673TIP3    H250435   0.109   0.428   4.686  1.9222 -2.5821  0.2632
 9674TIP3   OH250436   5.006   6.161  12.159  0.0372 -0.2595 -0.0867
 9674TIP3    H150437   4.990   6.254  12.148  0.7790 -0.1933 -0.6867
 9674TIP3    H250438   4.974   6.120  12.079 -0.3329 -0.5248  0.1957
 9675TIP3   OH250439   1.551   1.693  13.887  0.3369  0.4266 -0.4862
 9675TIP3    H150440   1.553   1.788  13.888  1.6074  0.4238  0.4407
 9675TIP3    H250441   1.630   1.667  13.935  0.3580 -1.0936 -1.2832
 9676TIP3   OH250442   4.106   1.404  12.803 -0.0083  0.0132  0.5780
 9676TIP3    H150443   4.148   1.319  12.798  0.4184  0.1653  1.4080
 9676TIP3    H250444   4.133   1.449  12.723 -2.4035 -1.5597 -1.2720
 9677TIP3   OH250445   5.341   4.099   4.056  0.4020 -0.0544  0.0685
 9677TIP3    H150446   5.330   4.024   3.998  1.1728  0.9200 -1.3988
 9677TIP3    H250447   5.427   4.085   4.096  0.9414  0.4405 -0.8694
 9678TIP3   OH250448   6.130   2.363  11.697  0.0394 -0.0814  0.3124
 9678TIP3    H150449   6.077   2.373  11.777 -0.1265 -0.4084  0.2425
 9678TIP3    H250450   6.180   2.445  11.692  1.5140 -0.8484  1.8151
 9679TIP3   OH250451   0.778   1.123  13.036  0.3541 -0.4024 -0.6460
 9679TIP3    H150452   0.793   1.212  13.067  0.2173  0.4755 -2.9395
 9679TIP3    H250453   0.850   1.104  12.977 -0.0408 -1.5148 -0.8115
 9680TIP3   OH250454   2.285   4.973  12.084 -0.6642 -0.3342 -0.7217
 9680TIP3    H150455   2.271   4.932  11.999 -0.7217  1.2725 -1.5183
 9680TIP3    H250456   2.209   4.948  12.136 -0.3868 -1.7347 -0.9448
 9681TIP3   OH250457   5.818   4.068  15.693 -0.3996 -0.1065  0.6270
 9681TIP3    H150458   5.748   4.003  15.692  0.8456 -1.6075  2.4771
 9681TIP3    H250459   5.849   4.068  15.784  3.0524 -0.7439 -0.4088
 9682TIP3   OH250460   0.766   3.200   2.844 -0.1352 -0.0691 -0.1524
 9682TIP3    H150461   0.852   3.242   2.844  0.3265 -1.0072 -0.1908
 9682TIP3    H250462   0.714   3.254   2.785 -0.0809  1.5019  1.1567
 9683TIP3   OH250463   1.841   4.145  16.247 -0.0720 -0.1359  0.8576
 9683TIP3    H150464   1.801   4.116  16.328  0.7577  0.7571  1.6083
 9683TIP3    H250465   1.918   4.088  16.237 -0.7829 -0.9897  0.0964
 9684TIP3   OH250466   1.506   1.385   5.563  0.5506 -0.3794 -0.2660
 9684TIP3    H150467   1.438   1.318   5.574  0.0768  0.0930 -0.2962
 9684TIP3    H250468   1.534   1.375   5.472  1.3204 -1.3169  0.0559
 9685TIP3   OH250469   2.490   5.312   0.772 -0.2010 -0.6483 -0.3029
 9685TIP3    H150470   2.455   5.401   0.772 -0.4275 -0.7348 -0.7714
 9685TIP3    H250471   2.584   5.323   0.787 -0.5226 -0.4682  1.9396
 9686TIP3   OH250472   5.903   4.832   5.603 -0.3360  0.1849 -0.2425
 9686TIP3    H150473   5.951   4.907   5.637 -1.1597  0.4721  0.3401
 9686TIP3    H250474   5.956   4.799   5.531 -0.6214  2.1704 -1.4190
 9687TIP3   OH250475   0.038   5.595  16.127  0.3585  0.0795  0.0081
 9687TIP3    H150476  -0.029   5.596  16.059  1.3025  0.2171 -0.9496
 9687TIP3    H250477   0.012   5.664  16.188  0.1672  0.8376 -0.9067
 9688TIP3   OH250478   3.671   4.693  11.033 -0.1821  0.1015  0.2690
 9688TIP3    H150479   3.610   4.664  11.101 -0.6391 -0.2050 -0.2583
 9688TIP3    H250480   3.642   4.647  10.954  0.5073  0.2422 -0.0743
 9689TIP3   OH250481   3.141   0.137   4.821 -0.6022 -0.5326 -0.7202
 9689TIP3    H150482   3.085   0.167   4.749  1.1773 -0.3970 -2.0975
 9689TIP3    H250483   3.192   0.065   4.784 -0.1809 -0.9657  0.6372
 9690TIP3   OH250484   4.024   1.211  16.194  0.4034  0.0953  0.2144
 9690TIP3    H150485   3.958   1.148  16.223  0.4387  0.4514  1.1232
 9690TIP3    H250486   4.039   1.266  16.271  2.0204 -0.1938  0.1424
 9691TIP3   OH250487   0.717   0.348   0.913 -0.4903 -0.0228 -0.5273
 9691TIP3    H150488   0.655   0.408   0.871  0.0532  0.6807 -0.3558
 9691TIP3    H250489   0.667   0.307   0.983 -0.6241  0.9835 -0.0062
 9692TIP3   OH250490   3.432   1.712  11.350  0.3285 -0.3796 -0.1546
 9692TIP3    H150491   3.499   1.750  11.295 -0.0717  1.7881  0.7492
 9692TIP3    H250492   3.445   1.752  11.436 -2.5545  0.8134 -0.1307
 9693TIP3   OH250493   6.020   0.207   0.763  0.0072 -0.2290 -0.1620
 9693TIP3    H150494   5.938   0.209   0.713 -0.4321 -0.9561  0.4992
 9693TIP3    H250495   6.012   0.130   0.818  0.2362  0.8405  1.4347
 9694TIP3   OH250496   4.555   6.688   0.700  0.1127 -0.1318  0.4035
 9694TIP3    H150497   4.516   6.769   0.667 -0.9914 -0.5222  0.7120
 9694TIP3    H250498   4.503   6.666   0.777 -1.6604 -2.7645 -1.3815
 9695TIP3   OH250499   5.605   0.609   4.606  0.1008 -0.1310  0.4485
 9695TIP3    H150500   5.684   0.660   4.588  0.3773 -0.3734  0.9585
 9695TIP3    H250501   5.571   0.586   4.520  0.8479 -0.4191  0.2212
 9696TIP3   OH250502   1.361   6.246  17.006  0.3757  0.1135  0.6109
 9696TIP3    H150503   1.338   6.157  17.035 -2.3498  0.0483 -1.3493
 9696TIP3    H250504   1.365   6.239  16.910  3.6931  1.4276  0.5311
 9697TIP3   OH250505   3.181   3.170  13.970  0.3070 -0.3059  0.0950
 9697TIP3    H150506   3.209   3.079  13.977 -0.3324 -0.5744 -0.6526
 9697TIP3    H250507   3.090   3.164  13.939  0.3987  0.5885 -0.3696
 9698TIP3   OH250508   1.818   5.259   1.800  0.1318  0.1515  0.3492
 9698TIP3    H150509   1.812   5.342   1.848 -0.9071  0.2923  0.0205
 9698TIP3    H250510   1.746   5.206   1.836 -1.4882  0.7204 -1.8475
 9699TIP3   OH250511   6.379   6.522  17.092 -0.2161 -0.3346  0.0858
 9699TIP3    H150512   6.417   6.437  17.113 -1.3211 -0.5672  1.3148
 9699TIP3    H250513   6.352   6.514  17.001  0.7524 -0.8788 -0.1687
 9700TIP3   OH250514   1.848   2.191   6.808 -0.0380  0.0496 -1.0499
 9700TIP3    H150515   1.936   2.220   6.831 -0.8683  1.1288  1.0191
 9700TIP3    H250516   1.858   2.098   6.788  1.2296 -0.4921  1.6684
 9701TIP3   OH250517   0.785   4.666  13.766 -0.0641 -0.1167  0.4910
 9701TIP3    H150518   0.822   4.621  13.690  0.0761 -0.0503  0.5187
 9701TIP3    H250519   0.736   4.739  13.729  1.0629  0.6763  0.5188
 9702TIP3   OH250520   0.813   2.035   2.432  0.6100 -0.0546  0.1599
 9702TIP3    H150521   0.727   1.997   2.445 -0.0129  1.2816  0.1581
 9702TIP3    H250522   0.799   2.108   2.371  0.9731  2.6447  3.0446
 9703TIP3   OH250523   2.709   4.951   3.588  0.0167  0.4751  0.3432
 9703TIP3    H150524   2.786   4.935   3.643 -0.8230 -0.3221  1.3338
 9703TIP3    H250525   2.720   4.892   3.514  0.8509  1.1057 -0.0506
 9704TIP3   OH250526   6.704   1.049   0.469 -1.0936 -0.6599 -0.6755
 9704TIP3    H150527   6.768   1.074   0.402 -0.5236  2.3206  0.8172
 9704TIP3    H250528   6.622   1.035   0.421 -0.3170 -0.3175 -2.1566
 9705TIP3   OH250529   4.286   5.185   0.342 -0.0042  0.2002  0.2423
 9705TIP3    H150530   4.331   5.246   0.284 -1.5694  0.3673 -0.8853
 9705TIP3    H250531   4.198   5.179   0.305  0.1307 -2.8698  0.2215
 9706TIP3   OH250532   3.545   2.506  15.321  0.2355  0.0831 -0.0927
 9706TIP3    H150533   3.496   2.566  15.265 -1.6449 -1.0365  0.2372
 9706TIP3    H250534   3.635   2.511  15.289 -0.1819  1.8355 -1.1094
 9707TIP3   OH250535   5.282   3.541  14.891 -0.6003  0.2849  0.8904
 9707TIP3    H150536   5.283   3.523  14.797  1.3743 -0.6457  1.0380
 9707TIP3    H250537   5.236   3.624  14.899 -2.8591 -0.7113 -0.6431
 9708TIP3   OH250538   6.779   0.081   0.876  0.5115  0.1135  0.2796
 9708TIP3    H150539   6.748   0.163   0.838  1.2365 -0.2276 -1.1328
 9708TIP3    H250540   6.848   0.107   0.937  1.2382  0.5387 -0.6905
 9709TIP3   OH250541   2.765   4.859  11.374  0.4301 -0.1312 -0.1430
 9709TIP3    H150542   2.672   4.853  11.352  0.0380 -0.1123  1.3749
 9709TIP3    H250543   2.796   4.768  11.368 -0.1083 -0.4113  0.9471
 9710TIP3   OH250544   5.856   1.301   5.665 -0.8406  0.1965 -0.0996
 9710TIP3    H150545   5.940   1.258   5.652  0.2583  2.3952 -0.7031
 9710TIP3    H250546   5.837   1.290   5.758  0.3282  0.0659  0.1278
 9711TIP3   OH250547   1.844   6.472  11.817  0.5917 -0.1590  0.1018
 9711TIP3    H150548   1.811   6.423  11.892  0.4352  0.1751  0.2544
 9711TIP3    H250549   1.810   6.561  11.830  0.8304 -0.0235 -0.1952
 9712TIP3   OH250550   6.627   2.473  15.031 -0.5859 -0.2436 -0.1365
 9712TIP3    H150551   6.614   2.563  15.001 -0.2915  0.3402  1.4350
 9712TIP3    H250552   6.720   2.456  15.019 -0.8401 -0.7855 -1.5582
 9713TIP3   OH250553   4.901   4.664   4.419 -0.2246  0.2191 -0.3610
 9713TIP3    H150554   4.879   4.590   4.476  0.7281  1.3310  1.5357
 9713TIP3    H250555   4.819   4.684   4.374 -1.7820  0.9233  2.5660
 9714TIP3   OH250556   0.714   4.049   2.513  0.2239  0.1463 -0.0217
 9714TIP3    H150557   0.710   4.046   2.609  0.2586 -0.2572 -0.0310
 9714TIP3    H250558   0.805   4.029   2.492 -0.3733 -2.6787 -0.2298
 9715TIP3   OH250559   4.731   2.389   5.968  0.0239 -0.0930  0.1195
 9715TIP3    H150560   4.777   2.321   5.919  0.7461  0.3826  0.1147
 9715TIP3    H250561   4.801   2.443   6.005 -0.4881 -0.5564  1.8645
 9716TIP3   OH250562   3.292   1.044  10.523  0.2327 -0.4493 -0.0030
 9716TIP3    H150563   3.207   1.086  10.537  0.3746 -0.3448  0.5711
 9716TIP3    H250564   3.271   0.961  10.480 -0.2606 -0.9233  1.1167
 9717TIP3   OH250565   0.870   1.022   0.209 -0.3498  0.4729 -0.4954
 9717TIP3    H150566   0.810   1.077   0.158  1.2367  2.1173 -0.7166
 9717TIP3    H250567   0.893   1.075   0.284  0.2296 -0.4454 -0.0101
 9718TIP3   OH250568   0.561   4.349   0.606 -0.3473 -0.0962 -0.3299
 9718TIP3    H150569   0.654   4.361   0.628 -0.0677  0.0302 -1.5020
 9718TIP3    H250570   0.527   4.294   0.676  0.5689  0.0152  0.2271
 9719TIP3   OH250571   2.601   3.622   3.086  0.0649 -0.3349  0.2525
 9719TIP3    H150572   2.508   3.601   3.087  0.0605 -0.3550  1.8653
 9719TIP3    H250573   2.645   3.538   3.072 -0.1402 -0.3168 -0.5643
 9720TIP3   OH250574   0.822   1.140  13.902  0.2759 -0.1216  0.2512
 9720TIP3    H150575   0.783   1.105  13.983 -0.4183 -2.1769 -0.9042
 9720TIP3    H250576   0.903   1.090  13.891  1.4942  1.6579  0.7602
 9721TIP3   OH250577   3.045   6.728  11.835 -0.0425 -0.3003 -1.0355
 9721TIP3    H150578   3.044   6.713  11.741 -2.6592 -2.5381 -0.7666
 9721TIP3    H250579   2.968   6.682  11.868  1.8365 -1.3241  2.4639
 9722TIP3   OH250580   4.385   0.845   4.725 -0.4658 -0.6572  0.0566
 9722TIP3    H150581   4.290   0.842   4.733 -0.3943 -1.4892  0.8042
 9722TIP3    H250582   4.410   0.923   4.775 -0.8138  0.1281 -0.9683
 9723TIP3   OH250583   5.837   6.664  12.169  0.0366  1.2439  0.0732
 9723TIP3    H150584   5.745   6.638  12.169 -0.3909  2.3942  2.7319
 9723TIP3    H250585   5.851   6.702  12.082 -1.7727  0.3891 -0.6417
 9724TIP3   OH250586   0.599   1.298   5.475 -0.3911 -0.7167  0.4026
 9724TIP3    H150587   0.563   1.372   5.525  2.3000  1.2430 -0.3132
 9724TIP3    H250588   0.551   1.300   5.392 -1.5901 -0.9739  1.0617
 9725TIP3   OH250589   0.427   3.679  16.791 -0.0649 -0.0702  0.0885
 9725TIP3    H150590   0.501   3.687  16.851  0.1647 -1.9759  0.1220
 9725TIP3    H250591   0.354   3.651  16.847 -0.8276  1.7055  0.0441
 9726TIP3   OH250592   0.427   0.889   0.593 -0.4149  0.1449  0.1345
 9726TIP3    H150593   0.362   0.943   0.639 -0.0322  1.6318 -1.0022
 9726TIP3    H250594   0.431   0.925   0.505 -0.5881 -2.1788 -0.8938
 9727TIP3   OH250595   6.711   6.385  12.372 -0.1368  0.8254  0.0130
 9727TIP3    H150596   6.793   6.402  12.327 -0.2976  0.2782 -0.4911
 9727TIP3    H250597   6.734   6.387  12.465  0.5094  0.3476 -0.1332
 9728TIP3   OH250598   5.125   4.487   0.369  0.6010  0.4878 -0.4698
 9728TIP3    H150599   5.129   4.434   0.449  0.3142  0.6583 -0.3399
 9728TIP3    H250600   5.212   4.527   0.363  1.3076 -1.0877 -1.3376
 9729TIP3   OH250601   2.668   6.742  16.964  0.0300 -0.6355 -0.3001
 9729TIP3    H150602   2.717   6.686  17.024  0.4829 -1.4380 -1.3962
 9729TIP3    H250603   2.734   6.774  16.902 -0.5899 -0.5552 -0.9213
 9730TIP3   OH250604   1.889   3.446   3.863 -0.3437  0.6106 -0.5287
 9730TIP3    H150605   1.885   3.366   3.916  1.2690  1.8874  1.6628
 9730TIP3    H250606   1.843   3.512   3.915 -2.5412  0.9824 -2.7596
 9731TIP3   OH250607   4.278   6.352   0.074 -0.6440  0.0691  0.1053
 9731TIP3    H150608   4.292   6.301   0.154  1.3698  1.1928  0.5535
 9731TIP3    H250609   4.323   6.302   0.006 -3.3850 -1.5270 -0.7008
 9732TIP3   OH250610   4.495   1.376  14.855  0.3836 -0.7711 -0.0731
 9732TIP3    H150611   4.483   1.282  14.843 -1.5700 -0.7373  1.2125
 9732TIP3    H250612   4.431   1.417  14.798  0.2939 -0.2629  0.3758
 9733TIP3   OH250613   2.959   2.480   3.803 -0.0060  0.4751  0.0497
 9733TIP3    H150614   2.947   2.512   3.713  0.5896 -2.0174 -0.9865
 9733TIP3    H250615   2.885   2.421   3.816 -0.3391  1.1627  1.4214
 9734TIP3   OH250616   3.098   1.446   0.205 -0.1289  0.6155  0.5780
 9734TIP3    H150617   3.120   1.531   0.167  1.0401 -0.1538 -0.5425
 9734TIP3    H250618   3.089   1.388   0.130  0.9391 -0.6538  1.3919
 9735TIP3   OH250619   5.325   2.851   3.174 -0.1089  0.1087  0.1666
 9735TIP3    H150620   5.306   2.887   3.261 -0.4839  0.3649 -0.0224
 9735TIP3    H250621   5.267   2.898   3.115  0.5765  0.3682 -0.3162
 9736TIP3   OH250622   5.649   6.492   4.905  0.1920 -0.4280  0.1996
 9736TIP3    H150623   5.660   6.536   4.989 -2.5966 -0.2289  0.5814
 9736TIP3    H250624   5.629   6.401   4.928  0.2480 -0.5680 -0.2887
 9737TIP3   OH250625   6.625   3.085  12.845  0.2502  0.1925 -0.0777
 9737TIP3    H150626   6.636   3.093  12.751  0.3821 -0.6413 -0.1396
 9737TIP3    H250627   6.531   3.090  12.859  0.2309  0.3262 -0.2525
 9738TIP3   OH250628   0.833   3.605   2.820 -0.1651  0.2284  0.2207
 9738TIP3    H150629   0.853   3.650   2.902  0.4808  0.4725 -0.0619
 9738TIP3    H250630   0.918   3.587   2.781 -0.3582 -1.9751  0.6878
 9739TIP3   OH250631   6.462   4.346  12.588  0.2414  0.0325 -0.5170
 9739TIP3    H150632   6.516   4.272  12.613  0.7204  0.2470 -0.8946
 9739TIP3    H250633   6.434   4.326  12.499 -0.3829 -0.1174 -0.2970
 9740TIP3   OH250634   3.398   6.746  13.141 -0.3593  0.0267  0.0499
 9740TIP3    H150635   3.405   6.781  13.052  2.1379  2.4801  1.0418
 9740TIP3    H250636   3.456   6.802  13.193 -0.7376 -2.0897  3.0141
 9741TIP3   OH250637   2.120   5.096   0.425 -0.4557  0.1428  0.0817
 9741TIP3    H150638   2.161   5.013   0.401  1.0446  0.8036  0.2390
 9741TIP3    H250639   2.188   5.143   0.473 -1.1857  1.5662 -0.2275
 9742TIP3   OH250640   1.298   1.295   1.933  0.2657  0.1284 -0.0279
 9742TIP3    H150641   1.282   1.389   1.924 -0.9184  0.0055  0.5250
 9742TIP3    H250642   1.268   1.275   2.022 -3.3671 -1.4743 -1.4343
 9743TIP3   OH250643   0.527   4.661  15.391 -0.2237 -0.2439  0.2931
 9743TIP3    H150644   0.506   4.748  15.357 -2.2641 -0.8543 -0.1543
 9743TIP3    H250645   0.557   4.612  15.315 -1.3029 -0.5611  0.0467
 9744TIP3   OH250646   1.819   3.954  12.161  0.2358  0.4300  0.1718
 9744TIP3    H150647   1.751   3.938  12.226  0.6496  1.9862  1.0527
 9744TIP3    H250648   1.899   3.924  12.202 -0.0167 -3.1262 -1.5690
 9745TIP3   OH250649   0.622   5.420   2.285 -0.7034 -0.1181 -0.4641
 9745TIP3    H150650   0.683   5.348   2.266  2.4809  2.4165 -0.7203
 9745TIP3    H250651   0.597   5.453   2.198 -0.4165  0.4010 -0.3510
 9746TIP3   OH250652   2.517   5.102   4.695 -0.0535  0.1467 -0.0236
 9746TIP3    H150653   2.429   5.108   4.732  0.2505 -0.4946  0.8116
 9746TIP3    H250654   2.509   5.035   4.626 -0.4143  0.7213 -0.5511
 9747TIP3   OH250655   1.327   3.747   2.836 -0.1862 -0.2820  0.1998
 9747TIP3    H150656   1.340   3.676   2.773 -0.5143 -0.5595  0.4452
 9747TIP3    H250657   1.380   3.819   2.801 -0.4877 -0.3816 -0.4750
 9748TIP3   OH250658   2.245   0.181   3.865 -0.1261  0.2433  0.2656
 9748TIP3    H150659   2.190   0.194   3.943 -1.8644  0.4266 -0.9217
 9748TIP3    H250660   2.184   0.148   3.799  1.7425 -2.1326 -0.4049
 9749TIP3   OH250661   4.728   3.028   4.498 -0.1036 -0.3429 -0.6646
 9749TIP3    H150662   4.675   2.957   4.461 -2.5776  1.3707 -0.6695
 9749TIP3    H250663   4.804   3.033   4.441  0.3108 -3.1470 -0.4804
 9750TIP3   OH250664   1.596   1.623   2.508 -0.0007 -0.0950  0.3375
 9750TIP3    H150665   1.542   1.700   2.490 -0.3621 -0.0526  1.5046
 9750TIP3    H250666   1.663   1.625   2.440 -0.8842  0.4043 -0.5510
 9751TIP3   OH250667   1.509   2.124  14.691 -0.8909  0.0184 -0.1064
 9751TIP3    H150668   1.590   2.112  14.740 -0.9195  0.6435  0.1077
 9751TIP3    H250669   1.459   2.187  14.742 -0.8633  0.7941 -1.0066
 9752TIP3   OH250670   6.754   6.064   1.425 -0.5924  0.1030 -0.0922
 9752TIP3    H150671   6.762   6.154   1.458 -1.7720 -0.4386  1.7440
 9752TIP3    H250672   6.836   6.022   1.451 -1.1895 -0.1036  1.5091
 9753TIP3   OH250673   1.802   4.981   6.245 -0.0558  0.4785 -0.2143
 9753TIP3    H150674   1.864   5.053   6.235 -1.6165  1.8686 -0.2656
 9753TIP3    H250675   1.801   4.963   6.339  1.9301 -1.0218 -0.3934
 9754TIP3   OH250676   4.206   5.804  17.065 -0.6116 -0.1831  0.1464
 9754TIP3    H150677   4.282   5.751  17.090  0.1453  0.8680  0.1375
 9754TIP3    H250678   4.153   5.746  17.011 -0.5203 -1.3848  1.2803
 9755TIP3   OH250679   4.735   1.574   2.832  0.3128 -0.1692 -0.3548
 9755TIP3    H150680   4.731   1.663   2.799 -1.4007 -0.0450  0.0635
 9755TIP3    H250681   4.652   1.534   2.805  0.3669 -1.1402  0.7876
 9756TIP3   OH250682   2.170   2.823   5.795  0.3057 -0.0803  0.1096
 9756TIP3    H150683   2.114   2.747   5.778 -0.4602  0.9255 -2.2248
 9756TIP3    H250684   2.245   2.812   5.737  2.6325 -1.3251  3.0934
 9757TIP3   OH250685   2.046   4.081  15.920 -0.4197 -0.2340 -0.2717
 9757TIP3    H150686   2.120   4.037  15.876 -0.0955  1.5371 -1.6151
 9757TIP3    H250687   1.972   4.068  15.860 -0.0132  2.0647 -1.3903
 9758TIP3   OH250688   0.664   6.401   1.288  0.2473 -0.1611 -0.3140
 9758TIP3    H150689   0.586   6.419   1.235  0.3018 -0.8645 -0.6508
 9758TIP3    H250690   0.660   6.306   1.304  0.8329 -0.1352 -0.0177
 9759TIP3   OH250691   5.260   0.597   5.177 -0.1562 -0.1119 -0.3989
 9759TIP3    H150692   5.188   0.659   5.167 -0.0681  0.1280  0.4330
 9759TIP3    H250693   5.337   0.652   5.193  0.1031 -0.3945 -0.6591
 9760TIP3   OH250694   2.264   2.709  13.016 -0.0413 -0.9742 -0.7581
 9760TIP3    H150695   2.196   2.644  12.997 -1.0070  0.1505 -1.2712
 9760TIP3    H250696   2.257   2.773  12.945 -0.1504  0.4977  0.5184
 9761TIP3   OH250697   2.305   1.935   3.400 -0.1132  0.2236  0.2294
 9761TIP3    H150698   2.320   1.851   3.359 -0.4737  0.3411 -0.1552
 9761TIP3    H250699   2.324   1.999   3.332  0.3654  0.4624  0.5836
 9762TIP3   OH250700   0.780   4.639  10.934 -0.0173  0.5522 -0.3507
 9762TIP3    H150701   0.875   4.655  10.934  0.0428  0.2081 -0.1357
 9762TIP3    H250702   0.772   4.546  10.955 -0.4105  0.6204 -0.1980
 9763TIP3   OH250703   0.277   2.402  15.462 -0.4702  0.4193  0.2485
 9763TIP3    H150704   0.325   2.432  15.385  0.8286 -0.1745  0.8039
 9763TIP3    H250705   0.192   2.375  15.428  0.7158 -1.6042 -1.3075
 9764TIP3   OH250706   3.947   3.066  16.305 -0.2229 -0.0753 -0.4114
 9764TIP3    H150707   3.931   2.984  16.258 -0.0835  0.4870 -1.4822
 9764TIP3    H250708   3.863   3.112  16.302 -0.3381 -0.2326  0.3072
 9765TIP3   OH250709   3.245   1.629  12.650  0.0246  0.0202 -0.0480
 9765TIP3    H150710   3.157   1.659  12.672 -0.3312 -1.3273  0.4883
 9765TIP3    H250711   3.232   1.541  12.614  1.1145  0.0005 -0.4367
 9766TIP3   OH250712   4.412   2.882  16.834 -1.2376 -0.0122  0.2470
 9766TIP3    H150713   4.317   2.881  16.850 -1.7363 -1.1763 -2.1493
 9766TIP3    H250714   4.423   2.947  16.765 -0.8074 -1.9165 -1.5922
 9767TIP3   OH250715   3.092   5.534  12.734 -0.1807 -0.0913  0.3176
 9767TIP3    H150716   3.099   5.608  12.673  1.3022 -1.7607 -1.6547
 9767TIP3    H250717   3.166   5.544  12.793  1.6219 -1.3575 -1.6159
 9768TIP3   OH250718   2.684   4.404  15.864  0.1769  0.7793 -0.4421
 9768TIP3    H150719   2.627   4.474  15.832  0.3427  1.7112  1.1749
 9768TIP3    H250720   2.625   4.350  15.918  0.8557  2.0862  1.7341
 9769TIP3   OH250721   0.393   2.735   1.503 -0.0945 -0.2198  0.3002
 9769TIP3    H150722   0.489   2.730   1.511 -0.0568 -0.1562 -0.1054
 9769TIP3    H250723   0.361   2.703   1.587  0.2809 -0.5675  0.3192
 9770TIP3   OH250724   1.151   5.051  15.012 -0.8947  0.3187 -0.4751
 9770TIP3    H150725   1.102   4.996  15.072  0.9644 -1.5842 -0.5960
 9770TIP3    H250726   1.158   5.135  15.056 -1.4929 -0.3570  0.9456
 9771TIP3   OH250727   2.400   3.828  17.045  0.0349  0.1951  0.3243
 9771TIP3    H150728   2.491   3.835  17.018  0.2100 -0.1679  0.8232
 9771TIP3    H250729   2.355   3.789  16.969  0.0832  1.3796 -0.3363
 9772TIP3   OH250730   0.529   4.200  11.077 -0.5253 -0.2394  0.2018
 9772TIP3    H150731   0.451   4.178  11.128 -0.2324 -2.4253 -0.2008
 9772TIP3    H250732   0.527   4.141  11.002  1.1307  0.1812 -0.2335
 9773TIP3   OH250733   4.805   2.533  16.585  0.0396 -0.0336  0.0684
 9773TIP3    H150734   4.829   2.464  16.524 -0.4692 -1.6444  1.6049
 9773TIP3    H250735   4.802   2.612  16.532  1.8928 -0.9361 -1.5214
 9774TIP3   OH250736   0.604   0.220  14.807  0.0718  0.2160 -0.0446
 9774TIP3    H150737   0.661   0.164  14.859  0.6093 -0.3063 -1.1711
 9774TIP3    H250738   0.576   0.288  14.868 -1.7028 -1.9618  1.7455
 9775TIP3   OH250739   1.459   3.461  14.889  0.3831 -0.2406  0.2723
 9775TIP3    H150740   1.408   3.388  14.856 -1.0335  0.2361  1.3116
 9775TIP3    H250741   1.439   3.533  14.829 -0.5580  0.0690  0.9399
 9776TIP3   OH250742   1.524   1.404  13.511  0.0705  0.1017 -0.2264
 9776TIP3    H150743   1.444   1.353  13.497  0.3267 -0.7185  1.1884
 9776TIP3    H250744   1.522   1.426  13.604  0.7632  1.3476 -0.4895
 9777TIP3   OH250745   0.879   4.934   5.541 -0.1776  0.2423 -0.3292
 9777TIP3    H150746   0.958   4.974   5.505  1.1070 -1.3873  0.5317
 9777TIP3    H250747   0.854   4.867   5.477 -0.7732  0.6182 -0.5028
 9778TIP3   OH250748   4.443   1.933   6.648  0.6044 -0.5271  0.0980
 9778TIP3    H150749   4.464   1.840   6.647  0.1694 -0.6325  0.4126
 9778TIP3    H250750   4.378   1.944   6.579 -0.3502 -0.7108  0.9403
 9779TIP3   OH250751   4.382   2.219   0.321  0.3040  0.7960 -0.3461
 9779TIP3    H150752   4.308   2.194   0.376  0.2417 -1.1983 -1.2713
 9779TIP3    H250753   4.406   2.307   0.352 -0.1224  0.0346  2.3891
 9780TIP3   OH250754   0.272   5.782  12.334  0.1148 -0.6006 -0.0156
 9780TIP3    H150755   0.244   5.775  12.425 -0.8607 -0.7482 -0.3238
 9780TIP3    H250756   0.288   5.692  12.307 -1.2945 -0.7188 -0.5088
 9781TIP3   OH250757   5.111   2.181   0.901  0.3233 -0.0673 -0.3720
 9781TIP3    H150758   5.156   2.261   0.927  0.7338 -0.7457  1.0878
 9781TIP3    H250759   5.150   2.158   0.816  0.8941  0.7385 -0.3371
 9782TIP3   OH250760   0.798   6.289  14.525 -0.0922 -0.4973 -0.3688
 9782TIP3    H150761   0.827   6.351  14.458  0.7062 -1.0946 -0.5898
 9782TIP3    H250762   0.750   6.222  14.475  1.4974 -1.5677 -0.5347
 9783TIP3   OH250763   5.054   5.539  11.937  0.4182  0.2387  0.2344
 9783TIP3    H150764   4.980   5.600  11.935  0.0389 -0.0719  2.1304
 9783TIP3    H250765   5.016   5.455  11.913  0.4087  0.2906  0.0660
 9784TIP3   OH250766   2.900   2.024  13.745 -0.7306  0.3589  0.2267
 9784TIP3    H150767   2.886   1.942  13.792 -0.9411 -0.2157 -0.8155
 9784TIP3    H250768   2.811   2.058  13.731 -0.7077  0.1726 -0.3712
 9785TIP3   OH250769   3.967   1.051  12.001 -0.9804  0.2334 -0.5891
 9785TIP3    H150770   3.912   1.113  11.954 -1.7965 -0.1944 -0.2110
 9785TIP3    H250771   3.921   1.034  12.083 -1.1415 -1.3969 -0.9730
 9786TIP3   OH250772   1.665   6.581  14.315  0.1873 -0.3047 -0.3659
 9786TIP3    H150773   1.630   6.642  14.380  1.4431 -1.8661  1.9292
 9786TIP3    H250774   1.685   6.636  14.239 -0.4556  1.7956  0.9008
 9787TIP3   OH250775   2.930   2.857   3.578 -0.0417  0.1184 -0.1417
 9787TIP3    H150776   2.860   2.899   3.528 -0.0884 -0.2185 -0.3599
 9787TIP3    H250777   3.001   2.921   3.577 -0.5807  0.7528  0.6649
 9788TIP3   OH250778   4.421   6.640   3.396 -1.0142 -0.6201 -0.0411
 9788TIP3    H150779   4.327   6.654   3.404 -1.0249 -1.5781  2.2270
 9788TIP3    H250780   4.460   6.726   3.412 -1.4769  0.2650 -3.0798
 9789TIP3   OH250781   1.102   2.114   0.694 -0.1964 -0.0069 -0.3667
 9789TIP3    H150782   1.009   2.130   0.712 -0.1416  0.2717 -0.3374
 9789TIP3    H250783   1.119   2.161   0.613 -0.0016  0.2017 -0.2053
 9790TIP3   OH250784   3.213   6.320  12.503 -0.7969  0.7040 -0.1845
 9790TIP3    H150785   3.149   6.352  12.439 -0.6027  1.6471  0.0838
 9790TIP3    H250786   3.204   6.225  12.500 -1.6043  0.7896 -0.7779
 9791TIP3   OH250787   5.083   1.000   4.490  0.3449  0.1511  0.0899
 9791TIP3    H150788   5.022   0.953   4.545  0.1314  0.8836  0.4868
 9791TIP3    H250789   5.126   0.932   4.438 -0.3668 -0.4182  0.2401
 9792TIP3   OH250790   4.954   3.897  12.821  0.4244  0.1371 -0.0777
 9792TIP3    H150791   4.927   3.840  12.893  0.2893  1.2464  0.7825
 9792TIP3    H250792   4.874   3.911  12.770  0.0772  0.8625  0.6493
 9793TIP3   OH250793   3.103   5.844  12.690 -0.1781 -0.1978 -0.4910
 9793TIP3    H150794   3.093   5.842  12.785  0.5356 -2.2283 -0.4138
 9793TIP3    H250795   3.014   5.851  12.655 -0.4530  0.3570  0.3104
 9794TIP3   OH250796   2.878   6.042   4.127 -0.2249 -0.2432  0.1824
 9794TIP3    H150797   2.795   6.029   4.081 -0.4239 -1.7740  0.8909
 9794TIP3    H250798   2.941   6.058   4.058 -0.9224 -0.1340 -0.4456
 9795TIP3   OH250799   4.410   5.794   5.106  0.0436  0.8524  0.4235
 9795TIP3    H150800   4.441   5.768   5.020  1.1292  1.4344  0.6233
 9795TIP3    H250801   4.455   5.736   5.167 -0.2089  0.8830  0.6416
 9796TIP3   OH250802   4.752   3.055  16.527 -0.6079  0.7793 -0.4504
 9796TIP3    H150803   4.745   2.984  16.591  2.3638  0.7218 -0.0450
 9796TIP3    H250804   4.732   3.134  16.577  1.3148  0.6912  0.5818
 9797TIP3   OH250805   3.151   0.516   3.728  0.2206  0.0449  0.8986
 9797TIP3    H150806   3.245   0.501   3.724  0.2006 -0.1491  1.1159
 9797TIP3    H250807   3.112   0.434   3.695  0.1460  0.8533 -1.1609
 9798TIP3   OH250808   1.247   5.867  11.283  0.6468 -0.9644 -0.4627
 9798TIP3    H150809   1.200   5.945  11.252 -1.0359 -2.4896 -2.0426
 9798TIP3    H250810   1.323   5.901  11.329  1.3560  1.6447 -3.2074
 9799TIP3   OH250811   1.968   1.012   1.785 -0.0338 -0.1812  0.4658
 9799TIP3    H150812   1.888   1.017   1.837 -1.2207  0.1779 -1.3272
 9799TIP3    H250813   1.939   1.025   1.695  1.7084 -2.3980 -0.5195
 9800TIP3   OH250814   3.353   0.657  12.446  0.6064  0.2462  0.0660
 9800TIP3    H150815   3.446   0.635  12.435  0.8577  0.5134  1.4923
 9800TIP3    H250816   3.308   0.603  12.380  1.7598  0.0809 -0.6159
 9801TIP3   OH250817   1.834   0.371   5.241 -0.0033  0.3001 -0.2593
 9801TIP3    H150818   1.924   0.347   5.266 -0.0702  1.6345  1.3738
 9801TIP3    H250819   1.837   0.373   5.145  1.6590  0.1232 -0.2497
 9802TIP3   OH250820   4.776   4.653  15.989  0.5805  0.4806 -0.0884
 9802TIP3    H150821   4.692   4.699  15.984 -0.0468 -0.2883  2.1871
 9802TIP3    H250822   4.819   4.689  16.067  1.2166 -0.9486  0.2511
 9803TIP3   OH250823   2.987   1.345   6.101 -0.0421  0.0872 -1.1451
 9803TIP3    H150824   2.899   1.316   6.124  0.3564  0.2215  0.6683
 9803TIP3    H250825   3.046   1.279   6.138  0.7340  1.5601  0.4045
 9804TIP3   OH250826   3.783   3.625   5.177  0.3509 -0.6324  0.3848
 9804TIP3    H150827   3.852   3.592   5.234 -1.2480 -1.5550  1.8910
 9804TIP3    H250828   3.829   3.676   5.110  2.5400 -2.0636  0.7104
 9805TIP3   OH250829   5.293   0.565  11.466  0.2503  0.5749 -0.3946
 9805TIP3    H150830   5.326   0.612  11.390  1.7977  1.3870  0.7162
 9805TIP3    H250831   5.249   0.632  11.519  0.8404  0.4083  0.3209
 9806TIP3   OH250832   4.899   4.141  13.157  0.0997 -0.5474 -0.1648
 9806TIP3    H150833   4.951   4.060  13.153 -2.7685 -2.5818  0.6173
 9806TIP3    H250834   4.816   4.114  13.196 -1.1432  2.7499 -0.2618
 9807TIP3   OH250835   0.658   3.687   3.701  0.3498  0.0414 -0.0385
 9807TIP3    H150836   0.738   3.642   3.673 -0.1150 -0.2811 -0.8582
 9807TIP3    H250837   0.594   3.669   3.633 -0.1165  1.2018  0.0611
 9808TIP3   OH250838   0.220   6.015  15.518 -0.1169 -0.1846  0.1225
 9808TIP3    H150839   0.221   6.026  15.423  1.5349  0.4989  0.1867
 9808TIP3    H250840   0.287   5.949  15.534 -0.2863 -0.1842  0.8278
 9809TIP3   OH250841   5.900   2.338   6.313 -0.3167 -0.3254 -0.2148
 9809TIP3    H150842   5.946   2.262   6.348  1.3811 -0.3845 -2.3625
 9809TIP3    H250843   5.894   2.399   6.387  2.7029 -0.6039  0.3718
 9810TIP3   OH250844   5.659   0.264  14.277  0.8735  0.1509 -0.3644
 9810TIP3    H150845   5.722   0.323  14.235 -0.4443  0.4850 -1.9633
 9810TIP3    H250846   5.657   0.186  14.222 -1.2314  0.7875 -1.2874
 9811TIP3   OH250847   2.730   5.943   5.021 -0.3610  0.4522 -0.0641
 9811TIP3    H150848   2.734   5.854   5.054 -0.0563  0.4223 -0.1816
 9811TIP3    H250849   2.658   5.984   5.070 -1.8545 -0.4296 -1.4038
 9812TIP3   OH250850   4.833   1.163  16.315  0.2130 -0.6981 -0.0069
 9812TIP3    H150851   4.763   1.135  16.256  0.9161 -0.7071 -0.8754
 9812TIP3    H250852   4.869   1.082  16.351  0.5676 -0.7759 -0.5195
 9813TIP3   OH250853   4.743   3.472  14.907 -0.1009  0.3327 -0.1460
 9813TIP3    H150854   4.724   3.561  14.879  2.0738  0.9882  0.2889
 9813TIP3    H250855   4.807   3.439  14.844  0.3433 -0.3240  0.6193
 9814TIP3   OH250856   1.925   0.391  13.606  0.6960 -0.5218  0.2022
 9814TIP3    H150857   1.928   0.472  13.658  0.4379  0.2107 -0.8768
 9814TIP3    H250858   1.959   0.324  13.664  2.3381  0.6351  0.6499
 9815TIP3   OH250859   2.974   4.796  15.774  0.4012  0.1159  0.3611
 9815TIP3    H150860   3.038   4.850  15.728 -0.7880  0.6921 -0.6778
 9815TIP3    H250861   3.022   4.759  15.848  2.2665 -0.4625 -1.0679
 9816TIP3   OH250862   6.391   3.898   5.104 -0.4014 -0.0245 -0.4709
 9816TIP3    H150863   6.417   3.946   5.183 -0.7939 -0.4309 -0.0901
 9816TIP3    H250864   6.314   3.944   5.072 -2.0064 -1.5328  1.0215
 9817TIP3   OH250865   5.624   3.823   0.823 -0.0450 -0.1158  0.5331
 9817TIP3    H150866   5.550   3.779   0.781 -0.3332  1.5558 -0.8106
 9817TIP3    H250867   5.586   3.900   0.864  0.9622  0.9331 -0.4255
 9818TIP3   OH250868   2.496   0.903   4.107  0.0524 -0.1381  0.0360
 9818TIP3    H150869   2.465   0.993   4.106  0.5027  0.0150 -0.2669
 9818TIP3    H250870   2.428   0.853   4.062 -0.2225  0.0377  0.2519
 9819TIP3   OH250871   2.738   5.888  10.748  0.0066  0.0082  0.5326
 9819TIP3    H150872   2.709   5.979  10.758  1.4837  0.5830 -0.1529
 9819TIP3    H250873   2.720   5.848  10.833 -0.4122  1.0040  0.9313
 9820TIP3   OH250874   4.327   0.907   5.049  0.1079 -0.5883 -0.6875
 9820TIP3    H150875   4.305   0.852   5.124  0.6701  0.7336  0.5121
 9820TIP3    H250876   4.416   0.882   5.026  0.3262 -0.2680 -0.2097
 9821TIP3   OH250877   0.630   5.359   5.873 -0.5717 -0.5733  0.0616
 9821TIP3    H150878   0.589   5.289   5.924 -1.3686  0.2014  0.4991
 9821TIP3    H250879   0.585   5.439   5.900  0.8472  0.2354  0.1380
 9822TIP3   OH250880   1.011   4.640   5.466  0.0597  0.0030 -0.3608
 9822TIP3    H150881   0.978   4.660   5.553  0.0307  0.6189 -0.5126
 9822TIP3    H250882   1.106   4.638   5.476  0.0682  0.3243 -0.3644
 9823TIP3   OH250883   3.065   1.616   4.683  0.3641 -0.1185 -0.3315
 9823TIP3    H150884   3.076   1.652   4.771  1.6094 -3.1011  0.8609
 9823TIP3    H250885   3.153   1.616   4.646 -0.0585  0.5520 -1.3775
 9824TIP3   OH250886   2.891   2.604  12.019  0.1431 -0.1940 -0.1388
 9824TIP3    H150887   2.901   2.515  11.986 -0.6166  0.1355 -1.2898
 9824TIP3    H250888   2.817   2.640  11.971 -0.2427  0.7161  1.0806
 9825TIP3   OH250889   6.038   2.298   6.093  0.4433  0.3473 -0.5461
 9825TIP3    H150890   5.972   2.320   6.159 -0.1170  0.0623 -1.0026
 9825TIP3    H250891   6.122   2.311   6.138  0.0691 -0.3157  0.3843
 9826TIP3   OH250892   1.990   1.874  14.804 -0.2424  0.7772 -0.7038
 9826TIP3    H150893   2.049   1.801  14.786 -0.4514  0.6759 -0.9886
 9826TIP3    H250894   2.047   1.947  14.826 -0.0516  0.0200  1.5594
 9827TIP3   OH250895   6.676   1.561  16.621 -0.4381  0.0206  0.3085
 9827TIP3    H150896   6.742   1.564  16.552  0.9517  0.1372  1.6013
 9827TIP3    H250897   6.724   1.535  16.700 -1.9325  0.1259  1.2952
 9828TIP3   OH250898   1.716   1.026  14.279 -0.1797  0.0936 -0.4085
 9828TIP3    H150899   1.625   1.016  14.310 -0.0629  1.2778  0.3827
 9828TIP3    H250900   1.769   0.999  14.355  0.1414 -0.3567 -0.7875
 9829TIP3   OH250901   2.154   6.297   3.896 -0.4256 -0.0158  0.5647
 9829TIP3    H150902   2.176   6.295   3.803 -0.3452  1.2737  0.5414
 9829TIP3    H250903   2.087   6.365   3.904 -2.3369 -1.8323  1.0798
 9830TIP3   OH250904   4.705   2.896  10.549  0.5258  0.0064 -0.0968
 9830TIP3    H150905   4.775   2.836  10.525  2.1003  1.3345  0.8919
 9830TIP3    H250906   4.691   2.881  10.642 -1.6100 -1.2677 -0.5669
 9831TIP3   OH250907   6.624   3.397  13.988  0.4181  0.4756 -0.1299
 9831TIP3    H150908   6.531   3.412  13.976  0.1912 -1.1347 -0.6114
 9831TIP3    H250909   6.657   3.479  14.024 -0.9349  1.5419 -1.1888
 9832TIP3   OH250910   6.553   1.254  13.525  0.3863 -0.4476 -0.1669
 9832TIP3    H150911   6.578   1.341  13.558 -0.8761  0.2611 -0.9656
 9832TIP3    H250912   6.534   1.268  13.432 -0.6213 -1.3887 -0.1290
 9833TIP3   OH250913   1.084   4.727   3.519 -0.0385 -0.3676  0.0441
 9833TIP3    H150914   1.085   4.742   3.425  2.1597  0.4311  0.1377
 9833TIP3    H250915   1.102   4.813   3.557  2.1917 -1.2164  1.0402
 9834TIP3   OH250916   2.662   4.249  10.699 -0.0038 -0.8143  0.0119
 9834TIP3    H150917   2.587   4.190  10.692 -0.2710 -0.2787 -2.0357
 9834TIP3    H250918   2.723   4.218  10.632  0.8132 -0.0836  0.3979
 9835TIP3   OH250919   5.151   4.220  13.862 -0.0378 -0.1567  0.2172
 9835TIP3    H150920   5.166   4.191  13.772 -1.3336 -3.0171  0.7993
 9835TIP3    H250921   5.064   4.259  13.860 -0.5658 -1.2862  0.4022
 9836TIP3   OH250922   0.305   2.188   1.392 -0.8561  0.1584 -0.6876
 9836TIP3    H150923   0.391   2.148   1.378 -0.3455  0.5706  1.0126
 9836TIP3    H250924   0.323   2.266   1.444 -2.1027  1.2202 -1.7970
 9837TIP3   OH250925   2.958   0.606  13.962 -0.3108  0.7720 -0.6955
 9837TIP3    H150926   2.891   0.603  13.894 -1.3765 -0.9293  0.3662
 9837TIP3    H250927   3.000   0.520  13.958 -1.2659  0.1435  1.6100
 9838TIP3   OH250928   6.035   3.824  14.464  0.3963  0.0831  0.3928
 9838TIP3    H150929   5.969   3.826  14.395 -1.1023  1.1461  1.7912
 9838TIP3    H250930   6.088   3.902  14.448 -0.3094  0.6477  0.7611
 9839TIP3   OH250931   1.221   5.149  11.660 -0.1754 -0.2522  0.3468
 9839TIP3    H150932   1.139   5.180  11.699 -2.1981 -1.6619 -2.4214
 9839TIP3    H250933   1.216   5.054  11.666  0.2996 -0.4341 -1.5028
 9840TIP3   OH250934   6.030   5.624   5.897 -0.5663 -0.0357  0.5293
 9840TIP3    H150935   6.077   5.627   5.814 -0.6441 -0.6355  0.4571
 9840TIP3    H250936   6.047   5.535   5.931 -0.2909  0.2957  1.2935
 9841TIP3   OH250937   4.447   3.446  13.708 -0.4647 -0.3137  0.1501
 9841TIP3    H150938   4.514   3.427  13.774 -0.7413  0.5644  0.7032
 9841TIP3    H250939   4.405   3.362  13.691  1.5164 -1.1334 -1.0636
 9842TIP3   OH250940   1.436   5.246  16.333 -0.8034 -0.0442 -0.0092
 9842TIP3    H150941   1.478   5.317  16.380 -1.3410 -1.5046  2.9207
 9842TIP3    H250942   1.501   5.216  16.269  0.8911  0.6059  1.3547
 9843TIP3   OH250943   5.211   5.851   0.969  1.0152  0.1486 -0.2090
 9843TIP3    H150944   5.238   5.768   1.010 -1.0027 -0.9820 -1.0303
 9843TIP3    H250945   5.195   5.829   0.877 -0.3567  1.2393 -0.2686
 9844TIP3   OH250946   4.221   2.410  16.826  0.3546  0.5404 -0.1316
 9844TIP3    H150947   4.156   2.481  16.833  0.0572  0.6612 -2.9379
 9844TIP3    H250948   4.297   2.443  16.872 -1.7305  0.0215  4.1480
 9845TIP3   OH250949   1.102   0.330  12.853  0.7371  0.2598  0.0302
 9845TIP3    H150950   1.119   0.285  12.770 -0.9113 -0.9286  0.3118
 9845TIP3    H250951   1.014   0.365  12.844 -0.1196 -1.2807  1.8710
 9846TIP3   OH250952   4.527   4.428   1.102 -0.1468  0.0833  0.0818
 9846TIP3    H150953   4.561   4.517   1.095 -0.0154 -0.0386 -0.9380
 9846TIP3    H250954   4.459   4.433   1.169  0.3964  0.7797  0.5930
 9847TIP3   OH250955   4.670   4.094   1.304 -0.3399  0.4255 -0.0719
 9847TIP3    H150956   4.590   4.042   1.295 -1.8867  2.2044  2.1445
 9847TIP3    H250957   4.682   4.135   1.219  0.1695 -2.3545 -1.4646
 9848TIP3   OH250958   1.179   4.155  14.726 -0.1190  0.1799 -0.0169
 9848TIP3    H150959   1.232   4.221  14.681 -0.6839  0.7368  0.1118
 9848TIP3    H250960   1.096   4.200  14.744 -0.0725 -0.1657  1.1670
 9849TIP3   OH250961   1.222   2.222   0.031 -0.4712 -0.2614  0.4637
 9849TIP3    H150962   1.260   2.173  -0.042 -0.9035  0.2178 -0.0882
 9849TIP3    H250963   1.135   2.183   0.044 -0.8802  0.4481 -0.0803
 9850TIP3   OH250964   2.317   2.301   0.574 -0.0831  0.0867  0.3113
 9850TIP3    H150965   2.380   2.339   0.512 -0.4324 -0.1100 -0.1735
 9850TIP3    H250966   2.248   2.367   0.582  0.2702  0.3827  0.9895
 9851TIP3   OH250967   1.188   6.238   3.089 -0.1044  0.0155 -0.6127
 9851TIP3    H150968   1.099   6.212   3.065 -1.3801  1.9908  1.5247
 9851TIP3    H250969   1.199   6.208   3.178  1.1972  0.2398 -0.6753
 9852TIP3   OH250970   6.321   4.010   4.089 -0.4357  0.1830  0.9434
 9852TIP3    H150971   6.280   3.929   4.118  1.4269 -0.9123  0.6518
 9852TIP3    H250972   6.372   3.985   4.012 -0.2730  1.7668  0.4999
 9853TIP3   OH250973   1.627   2.426   0.913  0.1469 -0.5596 -0.5671
 9853TIP3    H150974   1.683   2.426   0.836 -0.9859 -0.0495 -1.4176
 9853TIP3    H250975   1.542   2.394   0.881 -0.6731  0.7673  0.1959
 9854TIP3   OH250976   5.724   6.345   1.358  0.4428  0.1427 -0.2572
 9854TIP3    H150977   5.806   6.349   1.308  0.9011 -2.1807  0.2084
 9854TIP3    H250978   5.667   6.289   1.306  0.4599 -1.2354  1.1514
 9855TIP3   OH250979   2.583   4.242   1.020  0.0535  0.1158 -0.1822
 9855TIP3    H150980   2.488   4.251   1.024 -0.1710 -2.0400  2.0161
 9855TIP3    H250981   2.598   4.179   0.949 -0.4907 -1.7388  1.2493
 9856TIP3   OH250982   4.878   6.309   3.889 -0.4115 -0.2852  0.4746
 9856TIP3    H150983   4.858   6.364   3.965 -0.4763  0.5634 -0.1458
 9856TIP3    H250984   4.973   6.314   3.881 -0.5228  0.7928 -0.3470
 9857TIP3   OH250985   3.467   6.416   5.684  0.0449 -0.0853 -0.1492
 9857TIP3    H150986   3.420   6.409   5.767  0.6080  0.7967  0.2454
 9857TIP3    H250987   3.488   6.509   5.675  0.2499 -0.2140 -1.1381
 9858TIP3   OH250988   4.260   4.752  13.329  0.4033  0.1038  0.3197
 9858TIP3    H150989   4.315   4.681  13.296 -0.1053 -0.4371  0.6154
 9858TIP3    H250990   4.191   4.761  13.264  0.3672  0.2006  0.3710
 9859TIP3   OH250991   4.225   2.617  12.186 -0.3413 -0.4549  0.0523
 9859TIP3    H150992   4.188   2.555  12.123 -0.7131 -0.0703 -0.1162
 9859TIP3    H250993   4.315   2.588  12.199  0.2780  0.3951 -1.9098
 9860TIP3   OH250994   1.157   0.567   4.206 -0.4830 -0.7423  0.1187
 9860TIP3    H150995   1.153   0.587   4.299 -0.7436  0.2545 -0.0956
 9860TIP3    H250996   1.180   0.650   4.164  0.1395 -1.2934 -0.6635
 9861TIP3   OH250997   4.445   0.470   0.026  0.1280 -0.5914 -0.7020
 9861TIP3    H150998   4.429   0.378   0.046 -0.5056 -0.4518 -0.5469
 9861TIP3    H250999   4.358   0.511   0.028  0.3506 -0.0791 -1.2262
 9862TIP3   OH251000   1.925   3.646  16.996  0.2997  0.8620 -0.5424
 9862TIP3    H151001   1.954   3.568  17.043  0.9775  0.2284 -1.9603
 9862TIP3    H251002   1.850   3.678  17.046 -1.0321 -1.6305 -0.8081
 9863TIP3   OH251003   6.732   5.844  15.459 -0.2716 -0.2088  0.4891
 9863TIP3    H151004   6.756   5.844  15.552  1.0080 -0.5188  0.1833
 9863TIP3    H251005   6.708   5.934  15.440  0.5325  0.1044  0.8807
 9864TIP3   OH251006   4.555   2.667   2.757  0.6261  0.2312  0.3855
 9864TIP3    H151007   4.558   2.594   2.819  0.8173  0.7253  0.9670
 9864TIP3    H251008   4.481   2.647   2.699  0.0244  0.1004  1.1891
 9865TIP3   OH251009   3.756   0.024   6.586  0.4381  0.1799 -0.5554
 9865TIP3    H151010   3.665   0.051   6.576 -0.1044 -1.6656 -1.1064
 9865TIP3    H251011   3.753  -0.046   6.652  1.4910  0.2565 -0.4055
 9866TIP3   OH251012   3.309   5.804   6.332  0.0691 -0.0681 -0.8197
 9866TIP3    H151013   3.244   5.800   6.402 -1.0296 -1.5513 -1.8799
 9866TIP3    H251014   3.298   5.892   6.295 -1.8410 -0.5109 -1.4233
 9867TIP3   OH251015   1.922   0.028  12.662  0.0233 -0.0962  0.6489
 9867TIP3    H151016   1.925   0.045  12.756 -1.2701 -0.2702  0.7288
 9867TIP3    H251017   2.014   0.030  12.635  0.3347  0.9583  1.7249
 9868TIP3   OH251018   5.526   2.805   4.941 -0.0131  0.5024  0.7593
 9868TIP3    H151019   5.439   2.805   4.981  0.5148  0.1983  1.9471
 9868TIP3    H251020   5.565   2.721   4.966  0.2691  0.1913 -0.5982
 9869TIP3   OH251021   1.301   6.310   1.202  0.3695 -0.5561 -0.6484
 9869TIP3    H151022   1.256   6.228   1.221 -0.7502 -0.0036 -0.8234
 9869TIP3    H251023   1.233   6.367   1.167  1.1197  0.4595 -0.5039
 9870TIP3   OH251024   1.996   1.594   5.827  0.2333 -0.0119 -0.1848
 9870TIP3    H151025   2.006   1.568   5.919  0.3568 -0.2103 -0.2547
 9870TIP3    H251026   2.058   1.667   5.816  0.1406  0.0833 -0.0829
 9871TIP3   OH251027   3.278   2.564  16.988  0.3531  0.0505  0.3159
 9871TIP3    H151028   3.305   2.579  16.898 -1.0499 -0.6591 -0.2566
 9871TIP3    H251029   3.358   2.537  17.033  1.3374  1.6946 -0.3813
 9872TIP3   OH251030   1.575   0.921  11.462  0.5108 -0.5222 -0.4962
 9872TIP3    H151031   1.563   0.972  11.542 -0.3901 -0.7360 -0.4898
 9872TIP3    H251032   1.536   0.836  11.482 -0.2376 -0.3899 -1.3577
 9873TIP3   OH251033   6.412   5.057  14.369  0.3082  0.2506  0.6357
 9873TIP3    H151034   6.487   5.009  14.403 -0.3191 -0.6161  0.8423
 9873TIP3    H251035   6.430   5.149  14.389  0.9280 -0.0298  1.4089
 9874TIP3   OH251036   5.942   3.494   5.793 -0.1878  0.0171  0.3929
 9874TIP3    H151037   5.973   3.568   5.741  0.5692  0.5526  1.5505
 9874TIP3    H251038   6.012   3.429   5.784 -0.6255 -0.3715 -0.2317
 9875TIP3   OH251039   6.162   3.700  13.877  0.1682  0.1202  0.4456
 9875TIP3    H151040   6.170   3.605  13.863 -2.8163 -0.1467 -0.1566
 9875TIP3    H251041   6.121   3.708  13.963  0.9874  0.9194  0.7672
 9876TIP3   OH251042   1.161   6.503   3.410  0.5771  0.1826 -0.5463
 9876TIP3    H151043   1.132   6.515   3.501 -1.1578 -0.0676 -1.0201
 9876TIP3    H251044   1.132   6.582   3.365 -0.1950 -0.4687 -1.2306
 9877TIP3   OH251045   0.604   3.295  15.108 -0.0987  0.6303  0.5211
 9877TIP3    H151046   0.668   3.225  15.116 -1.3109 -0.7241 -0.8294
 9877TIP3    H251047   0.654   3.375  15.122  1.4617 -0.4495  1.4894
 9878TIP3   OH251048   4.224   3.209  12.062  0.4456  0.4624  0.6398
 9878TIP3    H151049   4.218   3.212  11.967  0.1000 -1.4960  0.5482
 9878TIP3    H251050   4.261   3.122  12.081  1.9455  1.3772  2.2416
 9879TIP3   OH251051   2.795   2.075   3.138 -0.4381 -0.4421  0.6649
 9879TIP3    H151052   2.820   2.160   3.102 -0.1694 -0.5317  0.6337
 9879TIP3    H251053   2.878   2.027   3.145 -0.1664  0.2383  3.1943
 9880TIP3   OH251054   3.021   3.307   5.083  0.1203 -0.0406 -0.8601
 9880TIP3    H151055   3.014   3.402   5.072  1.1503  0.0531 -0.8970
 9880TIP3    H251056   3.077   3.280   5.010 -1.1410 -0.8596 -1.5497
 9881TIP3   OH251057   4.969   6.704  16.309  0.1596 -0.8896 -0.5471
 9881TIP3    H151058   5.035   6.637  16.291  0.0502 -0.6376 -1.9571
 9881TIP3    H251059   4.911   6.663  16.374  1.9034 -0.9535  1.0273
 9882TIP3   OH251060   6.408   0.657  10.738  0.1193  0.3393  0.0164
 9882TIP3    H151061   6.335   0.678  10.679 -1.6866 -2.0078  1.2678
 9882TIP3    H251062   6.463   0.597  10.688 -0.1629  0.1647 -0.0877
 9883TIP3   OH251063   1.499   4.562  14.778  0.3439 -0.2797 -0.3527
 9883TIP3    H151064   1.457   4.646  14.758  2.8916  1.7325  2.0799
 9883TIP3    H251065   1.565   4.551  14.709  0.4676  0.0538 -0.2868
 9884TIP3   OH251066   1.043   6.662   1.901  0.0664  0.2622  0.5328
 9884TIP3    H151067   1.062   6.596   1.968 -1.0652 -0.7107 -0.0718
 9884TIP3    H251068   0.959   6.700   1.928 -0.4447 -0.2030 -0.3693
 9885TIP3   OH251069   4.521   6.202  11.264  0.0040 -0.0033 -0.1312
 9885TIP3    H151070   4.448   6.151  11.298  0.2823  0.7555  1.7406
 9885TIP3    H251071   4.498   6.293  11.282  1.5316  0.2413  0.8145
 9886TIP3   OH251072   2.579   2.287   2.927  0.3658  0.1931  0.4220
 9886TIP3    H151073   2.570   2.311   3.019 -0.5517 -0.4044  0.5068
 9886TIP3    H251074   2.559   2.193   2.925 -0.1792  0.3171 -0.4573
 9887TIP3   OH251075   3.946   6.752  11.866  0.8386 -0.4260  0.8420
 9887TIP3    H151076   3.938   6.672  11.918  2.2514 -0.3099  1.2850
 9887TIP3    H251077   4.019   6.735  11.807 -0.4180 -0.3616 -0.8056
 9888TIP3   OH251078   1.551   1.984  13.159 -0.3050 -0.3449  0.9930
 9888TIP3    H151079   1.632   2.008  13.114  0.9798 -0.1517  3.3047
 9888TIP3    H251080   1.483   2.037  13.116  0.9136  0.1887 -0.3554
 9889TIP3   OH251081   1.920   6.072   2.446  0.0573  0.6789  0.0329
 9889TIP3    H151082   1.965   6.134   2.389 -0.4484  0.8106 -0.2263
 9889TIP3    H251083   1.850   6.123   2.486  0.5159  0.6318  0.9092
 9890TIP3   OH251084   4.363   4.458   1.357  0.1712  0.1370 -0.0949
 9890TIP3    H151085   4.275   4.449   1.391 -0.0610 -1.6449 -1.0134
 9890TIP3    H251086   4.417   4.402   1.413  0.5997  0.6959  0.0620
 9891TIP3   OH251087   5.886   3.522   6.303 -0.0671  0.1239  0.2451
 9891TIP3    H151088   5.852   3.610   6.288 -0.8465 -0.2309 -0.1252
 9891TIP3    H251089   5.810   3.470   6.327  0.5459 -0.2386  1.4647
 9892TIP3   OH251090   5.603   3.199  13.632  0.7116  0.0093 -0.0623
 9892TIP3    H151091   5.655   3.171  13.556 -0.7524  1.3537 -1.6732
 9892TIP3    H251092   5.600   3.294  13.624 -1.2324  0.0254  0.4694
 9893TIP3   OH251093   1.605   1.173  16.919  0.0334  0.1804 -0.1119
 9893TIP3    H151094   1.543   1.101  16.925 -1.4654  1.4373  0.1687
 9893TIP3    H251095   1.642   1.167  16.831 -0.4031 -0.6533 -0.2433
 9894TIP3   OH251096   5.391   2.255  11.611 -0.7648  0.0312 -0.0667
 9894TIP3    H151097   5.473   2.212  11.634 -1.0928  1.1588  3.9155
 9894TIP3    H251098   5.323   2.205  11.657 -2.1793  0.1166 -1.9273
 9895TIP3   OH251099   6.716   4.522  13.121  0.7169 -0.1939  0.7910
 9895TIP3    H151100   6.772   4.522  13.044 -1.0362 -1.5267 -0.5714
 9895TIP3    H251101   6.775   4.505  13.194  2.3408  0.5315 -0.2925
 9896TIP3   OH251102   5.771   5.514  14.935  0.7980 -0.0168  0.2495
 9896TIP3    H151103   5.812   5.441  14.888  1.2129 -0.4714  1.2807
 9896TIP3    H251104   5.702   5.544  14.877  1.1129 -0.7465 -0.5253
 9897TIP3   OH251105   5.530   4.613   1.238  0.5519  0.6736  1.5667
 9897TIP3    H151106   5.596   4.637   1.172 -0.9524 -0.2105 -0.3528
 9897TIP3    H251107   5.485   4.696   1.257 -0.3146  0.6405 -0.1063
 9898TIP3   OH251108   4.863   3.582  12.209  0.4962  0.1498  0.4192
 9898TIP3    H151109   4.789   3.636  12.233 -1.1739 -1.3837 -0.9522
 9898TIP3    H251110   4.916   3.637  12.151 -1.1243  0.3817 -0.9076
 9899TIP3   OH251111   2.210   1.487   3.708  0.4209  0.7202 -0.7327
 9899TIP3    H151112   2.145   1.419   3.691  1.2470 -0.4049  0.3772
 9899TIP3    H251113   2.165   1.569   3.689 -1.4300  0.0033  0.2876
 9900TIP3   OH251114   4.873   3.908  14.942  0.4926  0.1737 -0.0106
 9900TIP3    H151115   4.897   3.972  14.875 -1.7456 -0.2719 -1.3655
 9900TIP3    H251116   4.921   3.829  14.918  0.8333  0.4500 -0.2362
 9901TIP3   OH251117   0.662   2.516  12.931 -0.1998 -0.3900  0.7773
 9901TIP3    H151118   0.733   2.522  12.867  0.0359 -0.8386  0.9965
 9901TIP3    H251119   0.624   2.604  12.933 -1.3276 -0.7501 -1.2524
 9902TIP3   OH251120   4.596   3.231  15.730  0.0401 -0.4584  0.6385
 9902TIP3    H151121   4.551   3.166  15.676 -2.0381 -0.3666  2.1380
 9902TIP3    H251122   4.633   3.181  15.802  3.5928 -0.7099 -1.1514
 9903TIP3   OH251123   4.613   4.807  16.981 -0.3158  0.2561 -0.7837
 9903TIP3    H151124   4.525   4.798  16.946 -0.8216 -0.6603  0.6557
 9903TIP3    H251125   4.653   4.721  16.970 -0.0865  0.2809 -0.2028
 9904TIP3   OH251126   1.361   5.114   6.386  0.0522 -0.2277  0.1758
 9904TIP3    H151127   1.414   5.106   6.466 -0.1231 -1.2425  0.2121
 9904TIP3    H251128   1.319   5.028   6.377 -0.9057  0.2805 -0.3302
 9905TIP3   OH251129   1.786   0.271  12.759  0.1433 -0.0009  0.0537
 9905TIP3    H151130   1.707   0.219  12.772 -0.0513  0.7376  2.2274
 9905TIP3    H251131   1.756   0.362  12.761  1.1511  0.3474  2.4085
 9906TIP3   OH251132   5.965   3.928  15.964  0.6041 -0.5851  0.0056
 9906TIP3    H151133   6.005   3.878  16.035 -2.0872 -0.4611  1.7519
 9906TIP3    H251134   5.907   3.866  15.921  0.7286 -0.1245 -0.8408
 9907TIP3   OH251135   2.740   0.834   0.627  0.2413  0.1662  0.0290
 9907TIP3    H151136   2.792   0.903   0.586 -1.0541  0.9345 -0.3706
 9907TIP3    H251137   2.798   0.757   0.627  0.7293  0.4890 -2.0714
 9908TIP3   OH251138   4.093   3.229   4.930  0.3532 -0.1171  0.2542
 9908TIP3    H151139   4.170   3.278   4.900 -0.2552 -0.0522 -1.2732
 9908TIP3    H251140   4.026   3.296   4.944 -0.5867 -0.4338 -2.1616
 9909TIP3   OH251141   5.196   2.195   0.398 -0.3997  0.2088 -0.2649
 9909TIP3    H151142   5.247   2.256   0.345 -1.5184  0.3496 -1.2193
 9909TIP3    H251143   5.168   2.246   0.474 -0.2329  0.5085 -0.4034
 9910TIP3   OH251144   4.856   1.300  15.640  0.2161 -0.4115  0.4257
 9910TIP3    H151145   4.809   1.255  15.570  0.2770 -0.1967  0.2468
 9910TIP3    H251146   4.880   1.385  15.603 -1.2390  0.3998  1.2522
 9911TIP3   OH251147   5.826   1.531  13.670  0.2907  0.4984 -0.0855
 9911TIP3    H151148   5.765   1.588  13.624 -1.3400 -1.2244 -0.2034
 9911TIP3    H251149   5.839   1.457  13.611  0.2104 -0.5305  1.1414
 9912TIP3   OH251150   6.117   1.422   3.243 -0.2240 -0.3846  0.0435
 9912TIP3    H151151   6.044   1.483   3.252 -0.4094 -0.7505  1.1633
 9912TIP3    H251152   6.077   1.341   3.213 -0.4109 -0.8211  1.4180
 9913TIP3   OH251153   2.361   2.736   0.208 -0.7267  0.3035 -0.1441
 9913TIP3    H151154   2.373   2.646   0.238  2.1433  0.4100 -0.6852
 9913TIP3    H251155   2.303   2.728   0.132  0.1897 -1.2429 -0.7389
 9914TIP3   OH251156   1.009   3.625  16.699  0.2914  0.2624  0.0004
 9914TIP3    H151157   0.951   3.552  16.677  0.2879  0.0603  0.6710
 9914TIP3    H251158   0.999   3.686  16.626 -0.7459  0.2173  0.0868
 9915TIP3   OH251159   0.782   0.699   1.159 -0.5798  0.0978  0.3618
 9915TIP3    H151160   0.801   0.634   1.227 -0.7263 -1.2540 -0.8534
 9915TIP3    H251161   0.866   0.716   1.117 -0.0905  2.4021  2.0555
 9916TIP3   OH251162   4.176   4.761   5.542 -0.6788  0.0509 -0.6539
 9916TIP3    H151163   4.228   4.716   5.609 -2.5907 -2.2366 -0.5689
 9916TIP3    H251164   4.241   4.807   5.488  1.0788  0.3013  1.5302
 9917TIP3   OH251165   0.423   2.146  11.496  0.0760 -0.1791 -0.3039
 9917TIP3    H151166   0.446   2.066  11.545 -0.2423  0.5172  1.0229
 9917TIP3    H251167   0.501   2.201  11.504 -0.3780  0.3755  0.3588
 9918TIP3   OH251168   0.784   2.858  14.083 -0.0345 -0.2430 -0.0888
 9918TIP3    H151169   0.767   2.765  14.067 -2.6336  0.6299 -3.7032
 9918TIP3    H251170   0.707   2.888  14.131 -0.1640  0.3795 -0.6687
 9919TIP3   OH251171   2.547   5.762   5.666  0.5112  0.4067 -0.4310
 9919TIP3    H151172   2.604   5.768   5.743  0.7623  3.6011 -0.7267
 9919TIP3    H251173   2.483   5.832   5.677  0.0465  0.4472 -2.7387
 9920TIP3   OH251174   3.855   0.946   3.799  0.3502 -0.0611  0.0044
 9920TIP3    H151175   3.792   0.890   3.845  0.3181 -0.1479 -0.1424
 9920TIP3    H251176   3.804   0.990   3.732  0.1615  0.9704  0.8062
 9921TIP3   OH251177   3.116   3.638   2.914  0.6656  0.6896 -0.4148
 9921TIP3    H151178   3.197   3.670   2.874  1.4213  1.1915  1.3890
 9921TIP3    H251179   3.138   3.627   3.006 -1.0662 -0.1099 -0.0543
 9922TIP3   OH251180   0.311   4.201   3.734  0.2561 -0.0229  0.0188
 9922TIP3    H151181   0.380   4.202   3.668 -0.4376 -0.7871 -0.7462
 9922TIP3    H251182   0.326   4.121   3.784  0.8029  0.5716  0.8517
 9923TIP3   OH251183   4.027   4.404   2.355 -0.1349  0.0202  0.4780
 9923TIP3    H151184   4.052   4.323   2.311 -1.5832 -1.4642  2.1990
 9923TIP3    H251185   3.954   4.438   2.303  0.8694  0.5765 -0.5945
 9924TIP3   OH251186   0.721   0.941   1.309  0.2651 -0.1394  0.2457
 9924TIP3    H151187   0.813   0.965   1.323 -0.2988  2.4624  0.1528
 9924TIP3    H251188   0.723   0.848   1.291  2.5098 -1.0066  3.8191
 9925TIP3   OH251189   4.939   0.923  16.345 -0.3234 -0.0813 -0.1063
 9925TIP3    H151190   4.997   0.926  16.421 -0.4281 -3.0368  0.2182
 9925TIP3    H251191   4.996   0.898  16.272 -0.8924 -1.4594 -0.1013
 9926TIP3   OH251192   4.034   6.358   2.519  0.6573  0.0817  0.0498
 9926TIP3    H151193   4.113   6.382   2.471  1.7245 -0.6622  1.3577
 9926TIP3    H251194   4.053   6.271   2.555 -1.5054 -0.9933 -1.1719
 9927TIP3   OH251195   5.605   1.108   4.751  0.0480  0.2688 -0.1554
 9927TIP3    H151196   5.647   1.063   4.824  1.5342  0.2454 -0.9918
 9927TIP3    H251197   5.534   1.048   4.723  0.8096 -0.7025 -0.0664
 9928TIP3   OH251198   3.223   0.937   4.328 -0.2953  0.4118 -0.5559
 9928TIP3    H151199   3.189   1.026   4.341  0.7020  0.9409 -1.4507
 9928TIP3    H251200   3.310   0.939   4.369 -1.3781 -1.0419  2.0839
 9929TIP3   OH251201   1.519   1.841   1.882 -0.2681 -0.5984  0.2272
 9929TIP3    H151202   1.458   1.856   1.809  0.0232 -0.0033  0.1011
 9929TIP3    H251203   1.542   1.749   1.875  1.0153 -0.2053 -1.4332
 9930TIP3   OH251204   2.115   1.947   1.839 -0.4223  0.3447 -0.1205
 9930TIP3    H151205   2.149   1.985   1.920  1.1773  0.4630 -0.8048
 9930TIP3    H251206   2.192   1.937   1.783 -1.2755 -1.0506 -1.1118
 9931TIP3   OH251207   3.590   5.855  14.730 -0.0722  0.1801  0.1632
 9931TIP3    H151208   3.629   5.846  14.817  0.2092 -0.7357 -0.0503
 9931TIP3    H251209   3.584   5.765  14.696 -1.6796  0.3509 -0.1168
 9932TIP3   OH251210   5.808   0.113  14.610 -0.4635  0.7196  0.0875
 9932TIP3    H151211   5.886   0.120  14.665  0.2987  1.6748 -1.0558
 9932TIP3    H251212   5.740   0.158  14.660 -0.9751 -2.0658  2.1486
 9933TIP3   OH251213   0.115   4.748   2.428  0.1280  0.4961  0.0667
 9933TIP3    H151214   0.036   4.802   2.435 -0.9388 -0.7992 -1.4207
 9933TIP3    H251215   0.178   4.804   2.381  0.1435  1.5232  1.2336
 9934TIP3   OH251216   1.492   6.014   1.191 -0.0783 -0.0977  0.1844
 9934TIP3    H151217   1.581   5.979   1.188  0.7813  1.9219  0.3443
 9934TIP3    H251218   1.493   6.074   1.265 -0.4704  2.6640 -1.8974
 9935TIP3   OH251219   0.950   0.114   4.234  1.0347  0.1506  0.1457
 9935TIP3    H151220   0.961   0.052   4.305 -1.1477  0.0506  0.4592
 9935TIP3    H251221   0.986   0.069   4.157 -1.2173 -1.9121  0.1892
 9936TIP3   OH251222   1.902   5.121  12.047  0.0992  0.3145  0.2354
 9936TIP3    H151223   1.932   5.113  11.957  3.3043 -0.6535  1.2534
 9936TIP3    H251224   1.849   5.043  12.063  1.1708 -0.5329 -0.2746
 9937TIP3   OH251225   0.386   1.214   4.591  0.5404  0.0668  0.5624
 9937TIP3    H151226   0.424   1.302   4.587 -0.2060  0.3636 -0.2169
 9937TIP3    H251227   0.419   1.170   4.513  2.0529 -0.8376  1.6745
 9938TIP3   OH251228   1.643   6.422   0.799 -0.5137 -0.2691 -0.1839
 9938TIP3    H151229   1.550   6.398   0.791 -0.7830 -1.3390  4.0406
 9938TIP3    H251230   1.689   6.347   0.762 -1.2305  0.0259 -1.8129
 9939TIP3   OH251231   3.571   0.913  11.333 -0.4016 -0.0629  0.4435
 9939TIP3    H151232   3.648   0.860  11.354  1.0614  1.2165 -1.2612
 9939TIP3    H251233   3.542   0.880  11.248  0.5403  1.7474 -0.6543
 9940TIP3   OH251234   5.675   0.737  11.274 -0.1475  0.2941 -0.2435
 9940TIP3    H151235   5.736   0.732  11.200  2.1205 -1.1932  1.5542
 9940TIP3    H251236   5.727   0.774  11.345 -1.7551  0.1386  1.0738
 9941TIP3   OH251237   2.161   0.097  15.223 -0.1543  0.4371 -0.7454
 9941TIP3    H151238   2.185   0.044  15.147  0.8786 -0.3463  0.0991
 9941TIP3    H251239   2.162   0.036  15.297 -2.9086  0.7797 -0.3300
 9942TIP3   OH251240   6.493   2.994  14.757  0.1840 -0.3699  0.1348
 9942TIP3    H151241   6.490   3.059  14.827 -1.2024 -0.0860 -0.1509
 9942TIP3    H251242   6.446   3.034  14.684  1.7239 -0.6080 -1.0372
 9943TIP3   OH251243   5.724   1.110   5.141  0.4596 -0.0704 -0.1603
 9943TIP3    H151244   5.772   1.041   5.187 -0.2270 -0.9150 -0.6795
 9943TIP3    H251245   5.700   1.172   5.209 -0.1198 -1.0573  0.5666
 9944TIP3   OH251246   0.966   2.340  10.834  0.1805 -0.1966 -0.5348
 9944TIP3    H151247   0.889   2.343  10.778 -0.1811 -1.9939 -0.1661
 9944TIP3    H251248   1.009   2.425  10.819  0.3038 -0.7008 -3.8110
 9945TIP3   OH251249   6.473   5.981  14.158  0.0696 -0.4659 -0.1480
 9945TIP3    H151250   6.487   6.067  14.198  1.0422  0.0646 -1.5544
 9945TIP3    H251251   6.555   5.962  14.113 -1.0866 -0.8419 -2.2134
 9946TIP3   OH251252   5.867   0.774  16.188 -0.0010  0.4661 -0.3713
 9946TIP3    H151253   5.838   0.865  16.186 -0.4574  0.3132 -1.3606
 9946TIP3    H251254   5.930   0.768  16.115  1.3042  0.3895  0.7188
 9947TIP3   OH251255   5.968   2.893   6.684  0.4316 -0.1028 -0.5164
 9947TIP3    H151256   5.921   2.872   6.765 -0.7120  0.4861 -1.0094
 9947TIP3    H251257   6.001   2.982   6.699 -2.4250  1.2842 -1.8123
 9948TIP3   OH251258   5.824   2.586   4.257 -0.0154  0.0453  0.2077
 9948TIP3    H151259   5.873   2.601   4.176  3.3150  1.1000  2.2040
 9948TIP3    H251260   5.854   2.501   4.287 -2.7828 -1.2949 -0.5454
 9949TIP3   OH251261   3.354   6.696   1.544 -0.3059  0.3479 -0.2932
 9949TIP3    H151262   3.340   6.603   1.529  0.6933  0.0413  0.5414
 9949TIP3    H251263   3.397   6.700   1.629  0.1327  1.5398 -0.5516
 9950TIP3   OH251264   0.579   4.337  12.582 -0.5744  0.0765  0.5055
 9950TIP3    H151265   0.503   4.357  12.527 -1.0704  1.2397  1.5626
 9950TIP3    H251266   0.570   4.245  12.605 -2.6590  0.6023  2.0482
 9951TIP3   OH251267   0.475   5.770   0.352 -0.0536  0.0381  0.3624
 9951TIP3    H151268   0.517   5.843   0.306  0.2559 -0.0030  0.5707
 9951TIP3    H251269   0.444   5.808   0.434 -0.0029 -0.0336  0.4158
 9952TIP3   OH251270   2.825   2.529  12.610  0.0182  0.2724  0.1125
 9952TIP3    H151271   2.830   2.486  12.695 -1.1018  0.7635  0.4432
 9952TIP3    H251272   2.849   2.461  12.547 -1.6178 -0.8506  0.6329
 9953TIP3   OH251273   6.676   1.489  12.182 -0.8572  0.5617 -0.1230
 9953TIP3    H151274   6.739   1.528  12.123 -0.1310 -1.5893 -0.8850
 9953TIP3    H251275   6.697   1.524  12.269  0.1906  1.2472 -0.6468
 9954TIP3   OH251276   2.106   0.508   6.062 -0.5070 -0.0842  0.0494
 9954TIP3    H151277   2.014   0.532   6.070 -1.0005 -1.1367 -1.8612
 9954TIP3    H251278   2.106   0.412   6.066  0.4970 -0.0951 -0.0220
 9955TIP3   OH251279   2.912   1.957   3.872 -0.2049  0.2720 -0.2902
 9955TIP3    H151280   2.975   1.998   3.812 -0.7526  1.6978  0.0717
 9955TIP3    H251281   2.871   1.888   3.820  0.4975  0.4054 -1.0382
 9956TIP3   OH251282   5.153   2.329  14.119  0.7326 -0.7094  0.8668
 9956TIP3    H151283   5.171   2.249  14.168 -0.3541 -1.3631  0.2267
 9956TIP3    H251284   5.081   2.371  14.167 -1.5500 -2.2246 -1.0311
 9957TIP3   OH251285   5.259   2.322   4.123 -0.6766 -0.5244 -0.1273
 9957TIP3    H151286   5.285   2.397   4.070  0.4310 -0.0473  1.0491
 9957TIP3    H251287   5.237   2.254   4.059  0.5593  0.0445 -1.2087
 9958TIP3   OH251288   3.363   0.719   5.570 -0.0889 -0.3248  0.0277
 9958TIP3    H151289   3.293   0.735   5.634 -1.3450  2.8732 -1.9008
 9958TIP3    H251290   3.437   0.688   5.622 -1.8794 -0.5390  2.6256
 9959TIP3   OH251291   1.711   5.501   3.249  0.4477  0.6074  0.6350
 9959TIP3    H151292   1.685   5.475   3.338  1.0973  2.2334  1.3431
 9959TIP3    H251293   1.639   5.554   3.217  1.3063  2.2195  1.2534
 9960TIP3   OH251294   2.698   6.749  11.553  0.3200  0.3945 -0.0508
 9960TIP3    H151295   2.713   6.661  11.585 -0.4782  0.2083 -0.1712
 9960TIP3    H251296   2.784   6.778  11.521  1.0353  0.3969  1.7309
 9961TIP3   OH251297   0.835   3.509  14.667 -0.5299 -0.1424 -0.3992
 9961TIP3    H151298   0.885   3.537  14.744  2.3376  0.2873 -2.2487
 9961TIP3    H251299   0.827   3.414  14.677  1.5046 -0.3651 -0.3893
 9962TIP3   OH251300   6.057   1.438  12.793  0.3106 -0.3282 -0.2798
 9962TIP3    H151301   6.084   1.443  12.702 -0.2577  0.4233 -0.4168
 9962TIP3    H251302   6.071   1.527  12.827  3.5929 -1.3009  1.2762
 9963TIP3   OH251303   4.686   5.871   1.902 -0.4886 -0.0323  0.0617
 9963TIP3    H151304   4.751   5.870   1.973  0.2310 -0.2985 -0.5861
 9963TIP3    H251305   4.649   5.959   1.905 -1.4224 -0.4306  1.6011
 9964TIP3   OH251306   3.896   0.230   5.230 -0.3286  0.0894 -0.0475
 9964TIP3    H151307   3.871   0.192   5.315  2.0328 -0.2028  0.5926
 9964TIP3    H251308   3.903   0.324   5.247  1.6173 -0.1072  0.5840
 9965TIP3   OH251309   2.177   2.817   2.692  0.2172 -0.6265  0.0359
 9965TIP3    H151310   2.137   2.871   2.624 -2.8891 -1.1077  1.2692
 9965TIP3    H251311   2.195   2.733   2.649 -1.1740 -0.7367 -0.3884
 9966TIP3   OH251312   0.123   4.767   3.739 -0.1882 -0.0303 -0.4848
 9966TIP3    H151313   0.064   4.726   3.803  1.1419  1.5251  1.9076
 9966TIP3    H251314   0.177   4.695   3.706 -1.3764 -0.9890 -0.3836
 9967TIP3   OH251315   5.276   0.053   2.420 -0.4312 -0.0761  0.5203
 9967TIP3    H151316   5.347  -0.005   2.393 -0.2380 -0.2807  1.4390
 9967TIP3    H251317   5.315   0.112   2.484 -0.4052  1.6815 -1.0188
 9968TIP3   OH251318   0.295   5.404   4.147  0.3780  0.1255 -0.5459
 9968TIP3    H151319   0.323   5.433   4.234  0.6456  1.3098 -1.0067
 9968TIP3    H251320   0.352   5.451   4.087  0.0031 -0.4659 -1.3811
 9969TIP3   OH251321   4.346   5.737   0.510 -0.2506 -0.0895 -0.8229
 9969TIP3    H151322   4.337   5.832   0.513 -0.7760 -0.1470  0.6186
 9969TIP3    H251323   4.439   5.722   0.494  0.1570  0.7035  0.5860
 9970TIP3   OH251324   1.768   4.645   2.410 -0.3045  0.1955  1.0680
 9970TIP3    H151325   1.780   4.636   2.316  0.7409  1.5145  1.0561
 9970TIP3    H251326   1.778   4.556   2.444  0.8436 -0.0660  0.0875
 9971TIP3   OH251327   1.812   6.367   5.666  0.6040 -0.2336  0.4595
 9971TIP3    H151328   1.905   6.351   5.678  0.6609 -0.3329 -0.1120
 9971TIP3    H251329   1.800   6.372   5.572 -0.1760 -1.4267  0.4817
 9972TIP3   OH251330   1.879   0.167   6.027  0.9290 -0.1731  0.1170
 9972TIP3    H151331   1.903   0.089   5.977  0.0733 -0.3545 -0.0278
 9972TIP3    H251332   1.823   0.217   5.968  1.9449  0.8647 -0.0134
 9973TIP3   OH251333   5.195   6.685  13.469  0.2517  0.1943  0.1177
 9973TIP3    H151334   5.200   6.602  13.421 -0.2633  1.1490 -1.6757
 9973TIP3    H251335   5.187   6.659  13.561 -0.0614 -1.7376 -0.4062
 9974TIP3   OH251336   4.774   6.445   4.659 -0.1723  0.0570 -0.5540
 9974TIP3    H151337   4.738   6.376   4.603 -1.9087  0.2501  0.2338
 9974TIP3    H251338   4.752   6.416   4.748  2.6821 -0.3363  0.1129
 9975TIP3   OH251339   3.648   0.753  13.709  0.2203  0.1081  0.2608
 9975TIP3    H151340   3.640   0.682  13.774  0.7135 -0.9211 -0.7638
 9975TIP3    H251341   3.581   0.816  13.734 -2.3832 -2.1596 -0.5827
 9976TIP3   OH251342   0.006   0.247  16.543  0.4778 -0.5634  0.6962
 9976TIP3    H151343  -0.052   0.315  16.510  2.1296  0.2334 -0.6875
 9976TIP3    H251344  -0.050   0.194  16.601 -1.4103  0.5826  0.0065
 9977TIP3   OH251345   1.279   2.156   2.076  0.1510  0.3890 -0.0778
 9977TIP3    H151346   1.276   2.194   2.164 -0.1349 -0.6628  0.3788
 9977TIP3    H251347   1.358   2.194   2.037  0.6101  0.4202  0.8457
 9978TIP3   OH251348   5.619   5.492   6.445 -0.1656  0.4089 -0.5706
 9978TIP3    H151349   5.618   5.458   6.534 -0.0575 -1.1039 -1.1288
 9978TIP3    H251350   5.700   5.542   6.439  1.5675 -2.2534 -0.7855
 9979TIP3   OH251351   1.751   3.577   0.591 -0.3831 -0.3438 -0.0781
 9979TIP3    H151352   1.846   3.586   0.581 -0.5437  0.7425 -0.8307
 9979TIP3    H251353   1.735   3.599   0.682  0.0497 -0.1585 -0.0432
 9980TIP3   OH251354   4.705   2.948   0.293 -0.0730 -0.2079  0.5597
 9980TIP3    H151355   4.781   2.997   0.325  1.1906 -0.9134 -1.1570
 9980TIP3    H251356   4.630   2.990   0.333  1.2143  0.6253  2.2100
 9981TIP3   OH251357   0.471   6.405  13.664 -0.6013 -0.2386  0.3732
 9981TIP3    H151358   0.469   6.500  13.651  1.2035 -0.0238  1.3133
 9981TIP3    H251359   0.451   6.368  13.578 -1.3668  0.9854  0.0088
 9982TIP3   OH251360   5.907   6.611   3.116 -0.3742  0.7311 -0.7767
 9982TIP3    H151361   5.884   6.518   3.125 -0.9079  1.0082  1.1643
 9982TIP3    H251362   5.964   6.614   3.040 -0.3204 -1.2026 -0.8642
 9983TIP3   OH251363   2.431   0.844  16.728  0.1473  0.1247  0.3894
 9983TIP3    H151364   2.408   0.914  16.788 -0.1429  0.5038 -0.1535
 9983TIP3    H251365   2.486   0.885  16.662 -0.3623 -0.0550 -0.1606
 9984TIP3   OH251366   3.031   5.276  16.326  0.2901  0.3645 -0.2261
 9984TIP3    H151367   3.009   5.368  16.338 -0.7739  0.0872  0.0860
 9984TIP3    H251368   2.985   5.231  16.398  0.6827 -0.4214 -0.4519
 9985TIP3   OH251369   2.992   3.297  12.374  0.2081 -0.1849  1.0085
 9985TIP3    H151370   2.959   3.277  12.287 -1.2310  0.4907  1.3822
 9985TIP3    H251371   2.969   3.221  12.427  0.3977 -0.2583  0.9897
 9986TIP3   OH251372   5.193   0.442   1.559  0.4897 -0.5297  0.5393
 9986TIP3    H151373   5.138   0.487   1.495  0.6593 -0.3461  0.5216
 9986TIP3    H251374   5.242   0.512   1.602  0.7207 -0.6946  0.5442
 9987TIP3   OH251375   3.685   4.293   5.029 -0.2267 -0.2033  0.1957
 9987TIP3    H151376   3.670   4.209   5.072 -0.1447 -0.7977 -0.8981
 9987TIP3    H251377   3.598   4.330   5.017 -0.5508 -1.4543 -1.8437
 9988TIP3   OH251378   0.294   0.443   2.397 -0.6209 -0.3352  0.0195
 9988TIP3    H151379   0.204   0.420   2.373 -1.2387  1.5530  0.3297
 9988TIP3    H251380   0.284   0.509   2.465  0.9777  0.5602 -0.5518
 9989TIP3   OH251381   2.114   6.091   2.639  0.0034  0.1157 -0.1428
 9989TIP3    H151382   2.152   6.005   2.658  0.4919 -0.1669 -2.1784
 9989TIP3    H251383   2.031   6.071   2.594  1.5441  0.5433 -3.4912
 9990TIP3   OH251384   3.389   6.332  11.916  0.1732  0.0325 -0.2410
 9990TIP3    H151385   3.456   6.264  11.926 -0.1709 -0.8786 -3.2479
 9990TIP3    H251386   3.310   6.293  11.954  0.2941 -0.7598 -0.7745
 9991TIP3   OH251387   0.416   5.634  11.818  0.5931  0.0528 -0.1687
 9991TIP3    H151388   0.382   5.589  11.741 -0.4627  2.3123 -1.0945
 9991TIP3    H251389   0.348   5.624  11.884  1.3175 -1.5242  0.3845
 9992TIP3   OH251390   4.150   5.413   0.138 -0.0412  0.3290 -0.1783
 9992TIP3    H151391   4.162   5.495   0.187 -1.0441 -0.6557  1.8658
 9992TIP3    H251392   4.236   5.372   0.139  0.5141  1.3763 -1.3609
 9993TIP3   OH251393   5.090   3.313  14.416 -0.3901 -0.0550 -0.5806
 9993TIP3    H151394   5.050   3.238  14.371 -0.7585  0.8501 -1.8306
 9993TIP3    H251395   5.039   3.389  14.386  1.1792  0.9361 -0.8683
 9994TIP3   OH251396   5.268   6.746   5.630 -0.2365  0.2687  0.4817
 9994TIP3    H151397   5.353   6.787   5.646 -0.3241  0.9142 -0.6412
 9994TIP3    H251398   5.218   6.811   5.581 -0.1828 -1.3025 -1.8352
 9995TIP3   OH251399   3.523   1.126   6.283  0.1061 -0.0317  0.1000
 9995TIP3    H151400   3.460   1.197   6.297  1.0092  1.3253 -2.2367
 9995TIP3    H251401   3.476   1.062   6.229 -0.1175 -0.3559  0.6679
 9996TIP3   OH251402   1.392   6.602   0.595 -0.0662  0.0489  0.1799
 9996TIP3    H151403   1.405   6.697   0.593  0.4928  0.2793  4.4930
 9996TIP3    H251404   1.301   6.591   0.625  0.3473 -0.6798  1.2278
 9997TIP3   OH251405   1.402   0.138  16.940  0.4110 -0.0063  0.1080
 9997TIP3    H151406   1.495   0.116  16.938  1.0234  2.3822  0.1249
 9997TIP3    H251407   1.375   0.124  17.031  0.8041 -0.4307  0.1616
 9998TIP3   OH251408   2.476   4.653   4.075 -0.2903  0.6212  0.1723
 9998TIP3    H151409   2.567   4.650   4.045  0.0410 -0.3364  1.2038
 9998TIP3    H251410   2.437   4.725   4.026  0.0732 -1.1068 -2.8907
 9999TIP3   OH251411   2.794   4.538  14.178 -0.3447 -0.2706  0.1706
 9999TIP3    H151412   2.766   4.481  14.107 -0.3848  0.1226 -0.1349
 9999TIP3    H251413   2.786   4.626  14.142  0.0185 -0.0885  0.5279
10000TIP3   OH251414   5.908   5.847   0.646 -0.6222 -0.6486  1.1110
10000TIP3    H151415   5.958   5.766   0.646  0.8864  0.2272  0.6270
10000TIP3    H251416   5.817   5.820   0.635 -0.0283 -2.2014 -0.4371
10001TIP3   OH251417   3.555   6.057  13.485 -0.1281 -0.5459  0.0147
10001TIP3    H151418   3.501   5.981  13.509  0.4044 -1.2107 -0.8381
10001TIP3    H251419   3.577   6.098  13.568 -2.2695 -0.0123  0.3828
10002TIP3   OH251420   6.015   0.364   2.578  0.0494 -0.4425  0.1858
10002TIP3    H151421   5.989   0.453   2.604  0.6879  0.0896 -0.9253
10002TIP3    H251422   5.943   0.334   2.523 -0.4595 -0.8702  1.0667
10003TIP3   OH251423   6.485   1.764   3.066  0.2086  0.6255 -0.2862
10003TIP3    H151424   6.453   1.683   3.104  0.0339  1.2899  1.0637
10003TIP3    H251425   6.556   1.791   3.125  1.6997  0.3761 -1.9075
10004TIP3   OH251426   2.566   1.410   3.938  0.5351 -0.0327  0.3292
10004TIP3    H151427   2.509   1.394   3.863  1.7579 -2.4711 -0.1895
10004TIP3    H251428   2.533   1.350   4.005 -0.6672  2.2633  1.8915
10005TIP3   OH251429   2.243   4.616  12.955 -0.1963 -0.0261 -0.2090
10005TIP3    H151430   2.269   4.705  12.981 -1.2456  0.1705  0.2459
10005TIP3    H251431   2.325   4.571  12.938  0.3902  0.8087  0.3109
10006TIP3   OH251432   0.525   5.594   3.420  0.1027 -0.2042  0.3214
10006TIP3    H151433   0.535   5.649   3.498 -1.0640  0.3371  0.1070
10006TIP3    H251434   0.505   5.507   3.455  0.4789 -0.1690  0.6351
10007TIP3   OH251435   4.597   0.697  17.201 -0.2458  0.1407 -0.0525
10007TIP3    H151436   4.562   0.618  17.243  2.2476 -1.7053 -1.2148
10007TIP3    H251437   4.520   0.737  17.159 -1.5476 -1.8129  0.3276
10008TIP3   OH251438   3.742   2.691   3.066  0.6350 -0.2442 -0.0106
10008TIP3    H151439   3.740   2.651   3.153  0.7591 -0.1668  0.0290
10008TIP3    H251440   3.816   2.752   3.070  0.8384 -0.4726 -0.2711
10009TIP3   OH251441   2.984   5.587  16.359 -0.1316  0.2498  0.3076
10009TIP3    H151442   3.024   5.602  16.274  0.0615 -1.9122 -0.0367
10009TIP3    H251443   3.004   5.667  16.409  2.2880  0.3961 -0.7229
10010TIP3   OH251444   5.167   0.425   2.066 -0.6728 -0.3496  0.1828
10010TIP3    H151445   5.211   0.383   1.992 -0.0803 -1.2857  1.0333
10010TIP3    H251446   5.238   0.456   2.122 -1.1139  0.5469  0.2643
10011TIP3   OH251447   6.207   5.366  10.806  0.2544  0.0359 -0.0827
10011TIP3    H151448   6.168   5.436  10.859  2.7195  0.0711  1.8713
10011TIP3    H251449   6.229   5.408  10.723 -0.3336  0.9778  0.2225
10012TIP3   OH251450   5.489   0.971   5.037 -0.4033 -0.3538  0.3136
10012TIP3    H151451   5.500   0.899   4.975 -0.9671  0.8928 -1.2964
10012TIP3    H251452   5.577   1.005   5.052 -0.4180  0.3444 -1.0822
10013TIP3   OH251453   0.315   0.777   0.015  0.3087 -0.0198 -0.3853
10013TIP3    H151454   0.336   0.738  -0.070  1.4097 -1.1287  0.3477
10013TIP3    H251455   0.342   0.710   0.079 -0.5282  0.7634  0.8378
10014TIP3   OH251456   5.975   6.210   4.187  0.6744 -0.4276 -0.9786
10014TIP3    H151457   5.927   6.128   4.199  1.8391 -1.0003 -0.0488
10014TIP3    H251458   6.028   6.196   4.108  1.4196 -0.8633 -0.4145
10015TIP3   OH251459   2.471   0.366   5.835  0.1253  0.4742 -0.1157
10015TIP3    H151460   2.483   0.396   5.925 -1.4607 -0.9410  0.6238
10015TIP3    H251461   2.534   0.295   5.825  0.5066  0.8234 -0.2414
10016TIP3   OH251462   5.491   5.207  15.230 -0.4590 -0.0906  0.4368
10016TIP3    H151463   5.489   5.183  15.323 -0.2527  2.5860  1.2009
10016TIP3    H251464   5.532   5.293  15.228  0.5092 -0.5225 -2.2841
10017TIP3   OH251465   2.443   0.674  17.152 -0.0233  0.0392 -0.1863
10017TIP3    H151466   2.411   0.765  17.153 -1.6974 -0.5062  0.1464
10017TIP3    H251467   2.515   0.673  17.215  1.1727  1.4910 -1.4414
10018TIP3   OH251468   4.103   3.457  17.064 -0.2362 -0.5563  0.1251
10018TIP3    H151469   4.182   3.409  17.092  0.7255  1.0157  0.2054
10018TIP3    H251470   4.136   3.533  17.017 -1.7302 -0.0475 -0.1612
10019TIP3   OH251471   5.328   1.645   1.350 -0.5066  0.0644  0.0697
10019TIP3    H151472   5.329   1.665   1.257 -2.3031 -0.7643 -0.1662
10019TIP3    H251473   5.319   1.550   1.354  0.7744 -0.0450  1.1243
10020TIP3   OH251474   2.607   0.342   3.261 -0.5581  0.3409 -0.1422
10020TIP3    H151475   2.592   0.436   3.272 -1.1490  0.0933  1.3697
10020TIP3    H251476   2.524   0.301   3.287 -0.2095 -0.6222 -0.4959
10021TIP3   OH251477   2.499   3.996   6.197 -0.0583  0.9385 -0.2751
10021TIP3    H151478   2.471   3.925   6.255 -1.3599  1.5970 -0.0443
10021TIP3    H251479   2.532   4.064   6.255 -1.9514  1.8588 -0.1832
10022TIP3   OH251480   1.778   3.508  11.034  0.8094  0.6415  0.2627
10022TIP3    H151481   1.765   3.435  11.095  1.3027  0.4910  0.1915
10022TIP3    H251482   1.725   3.486  10.958  0.2569  0.7892  0.5979
10023TIP3   OH251483   5.306   5.221   2.159 -0.4764  0.5363  0.0173
10023TIP3    H151484   5.274   5.235   2.248 -1.2113  0.6182 -0.2561
10023TIP3    H251485   5.270   5.136   2.134  1.2249 -0.3525  0.4497
10024TIP3   OH251486   5.223   3.881  16.378  0.0189  0.5705 -0.2649
10024TIP3    H151487   5.286   3.821  16.418 -1.3488 -0.0340  1.0717
10024TIP3    H251488   5.276   3.957  16.353  1.1787  0.3763  1.4326
10025TIP3   OH251489   6.709   3.917   6.245  0.3161  0.2332  0.6562
10025TIP3    H151490   6.698   3.833   6.201  1.1304 -0.5079  1.8194
10025TIP3    H251491   6.635   3.923   6.305 -0.3374  0.8710 -0.1719
10026TIP3   OH251492   3.888   2.319   3.718 -0.4651  0.4080  0.4326
10026TIP3    H151493   3.868   2.337   3.810 -0.4620  2.0063  0.1569
10026TIP3    H251494   3.814   2.266   3.687  0.7001 -2.2546  1.9290
10027TIP3   OH251495   0.486   4.292  16.754  0.0476  0.0106  0.1482
10027TIP3    H151496   0.475   4.250  16.839 -0.3808 -2.1470 -0.9059
10027TIP3    H251497   0.559   4.353  16.766 -0.1636 -0.0644  2.0911
10028TIP3   OH251498   3.742   1.796  11.876 -0.0070 -0.1839  0.0133
10028TIP3    H151499   3.704   1.819  11.791  0.1760  1.9664  0.4662
10028TIP3    H251500   3.717   1.868  11.933  2.3250 -0.1385  1.0560
10029TIP3   OH251501   4.563   2.417   3.731 -0.1849 -0.0203 -0.0634
10029TIP3    H151502   4.594   2.503   3.704  0.0536  0.1779  0.8299
10029TIP3    H251503   4.483   2.404   3.680 -0.6894  1.0907  0.4196
10030TIP3   OH251504   0.140   2.537   3.823 -0.4821 -0.3203  0.1588
10030TIP3    H151505   0.182   2.621   3.838  1.1078 -1.1677  0.7611
10030TIP3    H251506   0.110   2.540   3.732 -1.4150  1.2658  0.4961
10031TIP3   OH251507   3.312   4.769   3.906  0.1177 -0.2522 -0.5315
10031TIP3    H151508   3.246   4.798   3.969 -0.6763 -1.1927 -0.8974
10031TIP3    H251509   3.388   4.748   3.960  0.2243  1.0782 -0.1261
10032TIP3   OH251510   0.970   0.741  11.317 -0.0014 -0.8510  0.1131
10032TIP3    H151511   1.050   0.733  11.264 -0.6988  0.2248 -1.1686
10032TIP3    H251512   0.927   0.656  11.309  0.9397 -1.4006  0.7193
10033TIP3   OH251513   5.125   5.011   2.216 -0.0336 -0.4413 -0.3810
10033TIP3    H151514   5.160   4.962   2.291 -2.7741 -1.7709  0.1775
10033TIP3    H251515   5.058   5.068   2.254 -1.1633 -0.8082 -1.7213
10034TIP3   OH251516   0.606   1.881   2.529  0.4430 -0.5410 -0.1635
10034TIP3    H151517   0.549   1.815   2.489 -0.4962 -0.4777  1.0399
10034TIP3    H251518   0.647   1.836   2.603  1.6172 -0.4446 -0.7368
10035TIP3   OH251519   5.622   4.147   0.196 -0.5456 -0.0914  0.3650
10035TIP3    H151520   5.642   4.202   0.121 -0.5562 -0.5823 -0.0025
10035TIP3    H251521   5.559   4.197   0.247 -2.3612 -0.7027 -1.1585
10036TIP3   OH251522   0.906   1.033   5.326  0.3165 -0.2056 -0.5893
10036TIP3    H151523   0.843   1.036   5.254 -2.1335 -0.3395  1.3751
10036TIP3    H251524   0.976   1.093   5.301 -0.0668 -0.8108 -3.3448
10037TIP3   OH251525   2.750   1.755   5.108 -0.3273 -0.0182 -0.1443
10037TIP3    H151526   2.663   1.757   5.068  0.3900  0.5762 -1.7610
10037TIP3    H251527   2.763   1.844   5.140 -0.6653 -0.3475  0.9665
10038TIP3   OH251528   6.095   1.974   1.369 -0.0255 -0.0381 -0.0783
10038TIP3    H151529   6.027   1.908   1.362  0.2639 -0.5559  1.5170
10038TIP3    H251530   6.053   2.047   1.415  0.3791 -0.2331  0.6232
10039TIP3   OH251531   5.162   6.108  15.307 -0.0351 -0.0622 -0.5376
10039TIP3    H151532   5.078   6.066  15.327  0.1007 -0.2286 -0.3091
10039TIP3    H251533   5.228   6.040  15.325  0.1969  0.2880 -0.0265
10040TIP3   OH251534   4.792   6.149   4.185  0.3395 -0.0904  0.2583
10040TIP3    H151535   4.858   6.112   4.127 -0.2697 -0.3780 -0.2707
10040TIP3    H251536   4.793   6.093   4.262 -0.6235 -1.2985 -0.5654
10041TIP3   OH251537   4.762   4.059   0.370  0.2349 -0.2434  0.6504
10041TIP3    H151538   4.715   4.081   0.289  2.2693  1.9410 -0.0642
10041TIP3    H251539   4.750   4.136   0.426  1.3855 -0.4086  1.1559
10042TIP3   OH251540   1.819   0.987   5.580  0.3163  0.1690  0.6389
10042TIP3    H151541   1.813   0.895   5.605  1.2633 -0.3658 -0.9128
10042TIP3    H251542   1.897   1.020   5.625  0.8046 -0.2058  0.0893
10043TIP3   OH251543   5.656   2.845   2.289 -0.0829 -0.0364  0.1175
10043TIP3    H151544   5.644   2.752   2.307 -0.1931  0.1848  1.2494
10043TIP3    H251545   5.567   2.881   2.288  0.0784  0.7160  3.5421
10044TIP3   OH251546   3.571   5.065   4.729 -0.1912  1.1598  0.8362
10044TIP3    H151547   3.476   5.059   4.732 -0.2456  0.8250 -0.5975
10044TIP3    H251548   3.594   5.124   4.801 -1.2420 -0.7190  2.8252
10045TIP3   OH251549   5.063   4.514   5.624 -0.3602 -0.4396  0.3352
10045TIP3    H151550   5.115   4.459   5.683 -1.4169  0.8392  2.5737
10045TIP3    H251551   4.972   4.491   5.644 -0.8538  2.2120  1.5193
10046TIP3   OH251552   4.673   4.606   0.748 -0.0029  0.4411 -0.0050
10046TIP3    H151553   4.658   4.527   0.697  2.1718 -0.1767  0.2131
10046TIP3    H251554   4.593   4.617   0.800 -0.8996 -0.7936 -1.0804
10047TIP3   OH251555   5.025   2.343  11.935  0.2336 -0.5192  0.5545
10047TIP3    H151556   5.096   2.319  11.995  1.4605 -1.2518 -1.1086
10047TIP3    H251557   4.975   2.262  11.923  0.1055 -0.4219  0.4312
10048TIP3   OH251558   5.137   6.707  15.492  0.0211  0.3576  0.1676
10048TIP3    H151559   5.227   6.740  15.485 -0.1048  0.8014  0.5465
10048TIP3    H251560   5.082   6.785  15.483 -0.3910 -0.0990 -1.4830
10049TIP3   OH251561   2.316   5.104   4.256  0.1516 -0.0680  0.4433
10049TIP3    H151562   2.261   5.172   4.217  2.3521  0.9792 -1.0466
10049TIP3    H251563   2.267   5.023   4.243 -1.4576  0.9244  0.0806
10050TIP3   OH251564   2.723   1.881   2.270 -0.1012 -0.1893  0.2380
10050TIP3    H151565   2.709   1.859   2.362 -0.9136  1.1603  0.4683
10050TIP3    H251566   2.803   1.933   2.269 -1.1737  1.5902  0.5406
10051TIP3   OH251567   3.277   5.522   5.297 -0.4745 -0.3253 -0.0371
10051TIP3    H151568   3.255   5.461   5.368  0.6155 -0.6150  0.0724
10051TIP3    H251569   3.216   5.595   5.309  0.4424  0.1840  1.9361
10052TIP3   OH251570   3.751   2.756   5.774  0.1411  0.5892  0.5734
10052TIP3    H151571   3.844   2.771   5.791 -0.0411  1.4620  0.8544
10052TIP3    H251572   3.744   2.662   5.755  1.0883  0.5428  0.4522
10053TIP3   OH251573   6.749   2.042   2.261 -0.4219  0.2772  0.4369
10053TIP3    H151574   6.688   2.059   2.189 -0.4187  0.5364  0.4942
10053TIP3    H251575   6.758   2.126   2.305  1.9070  0.9070 -1.0534
10054TIP3   OH251576   4.680   5.060  16.277 -0.5726  0.5475  0.0360
10054TIP3    H151577   4.660   5.103  16.360  0.6427 -0.6653  0.9930
10054TIP3    H251578   4.742   4.991  16.300 -1.7373 -1.1177 -1.5753
10055TIP3   OH251579   5.982   6.403  14.072  0.3708  0.3245 -0.2187
10055TIP3    H151580   5.999   6.412  13.978 -0.1984 -0.4196 -0.4027
10055TIP3    H251581   5.967   6.310  14.085 -0.1345  0.4973  0.5165
10056TIP3   OH251582   6.049   5.967  12.907 -0.1458  0.2870  0.2774
10056TIP3    H151583   6.014   5.948  12.819 -0.0567  0.5568  0.1817
10056TIP3    H251584   6.040   5.885  12.955 -0.0991  0.1095 -0.0179
10057TIP3   OH251585   6.049   1.693  11.714  0.2874  0.0847  0.2409
10057TIP3    H151586   6.074   1.702  11.806  1.0609  2.4406 -0.1085
10057TIP3    H251587   6.127   1.656  11.671 -0.6556 -2.6602  0.7167
10058TIP3   OH251588   4.323   5.591   3.753  0.4019 -0.3232 -0.0113
10058TIP3    H151589   4.263   5.522   3.781  0.2986  0.0895  0.7973
10058TIP3    H251590   4.377   5.609   3.829  1.0798 -0.1859 -0.5182
10059TIP3   OH251591   4.869   2.221   5.816  0.1139  0.4594 -0.0003
10059TIP3    H151592   4.828   2.167   5.749  2.9494 -0.6183 -0.9605
10059TIP3    H251593   4.930   2.163   5.861 -0.0790  1.7449  2.0569
10060TIP3   OH251594   0.828   2.946  11.353 -0.0967  0.1893  0.4136
10060TIP3    H151595   0.779   2.870  11.322  0.0042  0.4845 -0.5033
10060TIP3    H251596   0.881   2.913  11.425 -0.7279 -0.4068  0.6087
10061TIP3   OH251597   2.190   1.456  16.179  0.2621  1.0870  0.2621
10061TIP3    H151598   2.107   1.473  16.134  0.1473 -3.1420 -1.6601
10061TIP3    H251599   2.165   1.438  16.270 -0.8243  0.9584 -0.0513
10062TIP3   OH251600   2.120   2.510   5.300 -0.0095  0.2720  0.7605
10062TIP3    H151601   2.043   2.547   5.258 -0.6068 -0.2355  1.3786
10062TIP3    H251602   2.194   2.545   5.251 -0.5438  2.1065  1.1832
10063TIP3   OH251603   6.060   3.712   1.499 -0.5164 -0.4895 -0.3474
10063TIP3    H151604   5.975   3.706   1.455 -0.4301 -0.4783 -0.5153
10063TIP3    H251605   6.119   3.659   1.445  0.1343  1.3519 -1.5435
10064TIP3   OH251606   2.941   6.791   1.109 -0.0334 -0.6358  0.2046
10064TIP3    H151607   2.941   6.876   1.154 -0.1087 -0.6969  0.3196
10064TIP3    H251608   2.850   6.779   1.082 -0.0513 -0.7492  0.3179
10065TIP3   OH251609   0.506   0.743   4.581 -0.3130 -0.2582 -0.2697
10065TIP3    H151610   0.424   0.747   4.630  0.0267 -0.9323  0.3775
10065TIP3    H251611   0.521   0.650   4.568  0.4795 -0.1492 -0.1588
10066TIP3   OH251612   3.513   4.754   6.119 -0.0299  0.5724  0.5073
10066TIP3    H151613   3.447   4.685   6.134  2.2488 -1.8182  0.3194
10066TIP3    H251614   3.567   4.752   6.198  1.8641 -0.0306 -0.7469
10067TIP3   OH251615   2.086   1.403   5.578 -0.4990 -0.0915 -0.3089
10067TIP3    H151616   2.010   1.438   5.531 -0.7318  0.1655  0.2489
10067TIP3    H251617   2.067   1.420   5.670 -0.7059 -1.8333  0.0080
10068TIP3   OH251618   6.162   4.336   2.295  0.0133 -0.1328 -0.3462
10068TIP3    H151619   6.122   4.391   2.227 -0.0671  0.4349  0.1526
10068TIP3    H251620   6.163   4.249   2.257 -0.4498  0.0948 -0.9042
10069TIP3   OH251621   0.295   1.690  12.530  0.0506  0.0289  0.4264
10069TIP3    H151622   0.367   1.684  12.593  1.2845 -1.9563 -1.0761
10069TIP3    H251623   0.216   1.676  12.582  0.9136 -0.1258  1.7336
10070TIP3   OH251624   2.892   5.983   0.420  0.4198 -0.1182 -0.2347
10070TIP3    H151625   2.871   5.918   0.487 -0.9115  0.1121 -0.4013
10070TIP3    H251626   2.852   5.949   0.340  1.7878 -0.2696 -0.8857
10071TIP3   OH251627   5.709   0.772   5.689 -0.5246  0.6717  0.3668
10071TIP3    H151628   5.711   0.776   5.784 -0.1215 -1.5860  0.5005
10071TIP3    H251629   5.782   0.715   5.665  0.5562  2.6407 -1.4549
10072TIP3   OH251630   0.797   0.482  11.299 -0.1175 -0.2335 -0.5701
10072TIP3    H151631   0.704   0.479  11.325  0.1597 -0.1159  0.4796
10072TIP3    H251632   0.806   0.409  11.237 -0.5848 -1.2054  0.4678
10073TIP3   OH251633   5.500   4.808  11.753 -0.2263  0.3930 -0.7694
10073TIP3    H151634   5.406   4.798  11.736 -0.0645  0.9759 -2.2068
10073TIP3    H251635   5.542   4.744  11.695  0.2540 -0.6322  0.6542
10074TIP3   OH251636   1.276   5.624   1.015 -0.3137 -0.4930 -0.4602
10074TIP3    H151637   1.246   5.534   1.000  1.4576 -1.3834  0.8484
10074TIP3    H251638   1.352   5.614   1.072  3.1229  1.3880 -4.1777
10075TIP3   OH251639   1.704   1.108   2.202 -0.1365  0.0806 -0.0144
10075TIP3    H151640   1.700   1.108   2.297 -0.5494 -0.8144 -0.0255
10075TIP3    H251641   1.626   1.060   2.174 -0.1698  0.5771 -0.8095
10076TIP3   OH251642   5.159   2.097  14.884  0.3833  0.6878  0.1132
10076TIP3    H151643   5.126   2.091  14.794  2.3075 -1.6193 -0.5446
10076TIP3    H251644   5.192   2.186  14.892  0.5675  0.8043 -1.6189
10077TIP3   OH251645   3.547   2.531  14.680  0.3237 -0.0256  0.2032
10077TIP3    H151646   3.488   2.526  14.605  1.4909  1.1727 -0.8316
10077TIP3    H251647   3.550   2.624  14.702  0.8988 -0.2250  1.0126
10078TIP3   OH251648   4.979   5.941  11.942 -0.1749 -0.3214 -0.4602
10078TIP3    H151649   4.909   5.878  11.922 -0.8069 -0.1588  1.1247
10078TIP3    H251650   5.024   5.953  11.858 -0.3838 -2.4500 -0.9450
10079TIP3   OH251651   4.617   4.006  13.779 -0.5807 -0.6428 -0.2687
10079TIP3    H151652   4.538   3.971  13.738 -0.3956 -1.9398  0.4404
10079TIP3    H251653   4.689   3.974  13.725 -0.4138 -1.3632  0.3557
10080TIP3   OH251654   0.220   1.612  14.131 -0.7995 -0.0729 -0.6861
10080TIP3    H151655   0.152   1.575  14.187 -2.4123  2.6519 -0.6584
10080TIP3    H251656   0.177   1.627  14.047 -0.0154  0.9593 -0.9296
10081TIP3   OH251657   6.519   5.070  12.351  0.1022  0.0091 -0.3329
10081TIP3    H151658   6.478   5.076  12.264  1.7633 -1.5001 -1.2936
10081TIP3    H251659   6.610   5.095  12.336  0.4833 -0.5544  0.9247
10082TIP3   OH251660   2.047   6.363   5.319  0.1487  0.7328 -0.0426
10082TIP3    H151661   2.065   6.429   5.251  1.3269  2.8757  2.1883
10082TIP3    H251662   2.124   6.306   5.318  1.6414  2.5784  1.3726
10083TIP3   OH251663   1.184   4.034  13.293 -0.3172 -0.1806  0.1943
10083TIP3    H151664   1.250   4.070  13.234 -0.9059  1.5679  0.5312
10083TIP3    H251665   1.220   4.048  13.381 -0.4474 -0.6607  0.3250
10084TIP3   OH251666   0.215   2.522   2.592  0.3294 -0.0972 -0.1577
10084TIP3    H151667   0.136   2.551   2.546 -0.0946 -1.3628 -0.2641
10084TIP3    H251668   0.192   2.529   2.685 -0.3375 -1.5226 -0.1909
10085TIP3   OH251669   4.887   4.169  14.219 -0.2773  0.1105  0.4144
10085TIP3    H151670   4.859   4.111  14.148 -0.5352 -0.2222  0.7778
10085TIP3    H251671   4.943   4.234  14.177  1.5863 -1.4959  0.2530
10086TIP3   OH251672   3.794   4.955  17.107  0.2023 -0.3426  0.0834
10086TIP3    H151673   3.833   5.025  17.055  0.0166 -0.2685  0.0447
10086TIP3    H251674   3.832   4.966  17.195  0.0819 -0.1232  0.1063
10087TIP3   OH251675   6.240   1.287   2.905  0.1922 -0.0928 -0.4605
10087TIP3    H151676   6.226   1.193   2.917 -1.5477 -0.0275 -1.6760
10087TIP3    H251677   6.289   1.294   2.823  2.2146 -0.0041  0.7031
10088TIP3   OH251678   2.768   6.314  16.920 -0.2338  0.3069  0.1755
10088TIP3    H151679   2.846   6.340  16.968 -1.1399  0.2537  1.7648
10088TIP3    H251680   2.786   6.225  16.891  0.3250  0.3279  0.4418
10089TIP3   OH251681   3.454   2.447  16.779  0.5601 -0.0911  0.4124
10089TIP3    H151682   3.391   2.420  16.713  1.1097 -2.0718  0.6233
10089TIP3    H251683   3.522   2.493  16.730 -0.9067  1.9342  0.1665
10090TIP3   OH251684   0.761   2.946  11.750 -0.5630  0.5781 -0.0624
10090TIP3    H151685   0.762   2.888  11.826 -0.6609  0.2771 -0.2886
10090TIP3    H251686   0.834   2.915  11.696 -1.0930  0.1727 -0.5491
10091TIP3   OH251687   6.661   0.691  15.939 -0.0033  0.4037 -0.1821
10091TIP3    H151688   6.680   0.713  16.030 -1.9577  1.0477  0.1375
10091TIP3    H251689   6.629   0.601  15.942 -2.0520  1.0882  0.1409
10092TIP3   OH251690   1.659   4.808  13.440  0.4215 -0.5149 -0.3062
10092TIP3    H151691   1.601   4.808  13.516  0.3407 -1.2866 -0.3593
10092TIP3    H251692   1.747   4.799  13.477  0.6248  1.6157 -0.1659
10093TIP3   OH251693   1.027   1.881   0.338  0.5021 -0.0023  0.6442
10093TIP3    H151694   0.942   1.896   0.297  0.3507 -1.3219  0.4264
10093TIP3    H251695   1.090   1.920   0.278  0.2371 -1.4116 -0.6180
10094TIP3   OH251696   3.590   2.553   0.754  0.3930  0.3274  0.0590
10094TIP3    H151697   3.532   2.628   0.772 -0.5387  0.7996 -3.9323
10094TIP3    H251698   3.535   2.476   0.770 -0.4313  0.6959 -0.8873
10095TIP3   OH251699   0.699   0.887  13.202 -0.9541  0.4464  0.5359
10095TIP3    H151700   0.630   0.953  13.215 -1.8150  0.2143 -2.1434
10095TIP3    H251701   0.757   0.927  13.137  0.7601  0.0912  1.7848
10096TIP3   OH251702   0.981   0.718   0.964 -0.3061  0.1878 -0.3618
10096TIP3    H151703   0.944   0.785   0.907 -0.1317 -0.1400 -0.8700
10096TIP3    H251704   0.981   0.638   0.911  1.3353  0.2197 -0.4774
10097TIP3   OH251705   5.787   5.061   3.621  0.7120  0.0582  0.3312
10097TIP3    H151706   5.846   5.102   3.558 -1.3774  0.7629 -1.2626
10097TIP3    H251707   5.756   5.133   3.675 -0.4954  0.0981 -0.3906
10098TIP3   OH251708   3.239   3.723  14.728 -0.1272  0.0839 -0.0617
10098TIP3    H151709   3.182   3.766  14.791 -0.7895 -0.3075 -0.3770
10098TIP3    H251710   3.226   3.772  14.646  0.3305  0.2706 -0.0239
10099TIP3   OH251711   4.013   4.173  12.816  0.2730 -0.2392  0.0075
10099TIP3    H151712   4.089   4.120  12.794  1.3174  1.0365  0.4336
10099TIP3    H251713   4.009   4.170  12.912  1.2914  1.6545  0.1599
10100TIP3   OH251714   2.155   0.852   0.709 -0.0369 -0.7613  0.7185
10100TIP3    H151715   2.060   0.859   0.713  0.0368  0.0991  1.1641
10100TIP3    H251716   2.175   0.853   0.615 -0.3545  1.0987  0.6371
10101TIP3   OH251717   6.069   0.503  14.687  0.0687  0.1434 -0.2367
10101TIP3    H151718   6.031   0.506  14.599  2.3265  0.0680 -1.2764
10101TIP3    H251719   6.133   0.574  14.688 -1.4563  1.6506  2.1932
10102TIP3   OH251720   5.822   4.666  13.891  0.2817  0.8004  0.1276
10102TIP3    H151721   5.824   4.589  13.947 -1.3063  0.8206  0.2655
10102TIP3    H251722   5.885   4.647  13.822 -0.5047 -0.9062 -0.1836
10103TIP3   OH251723   1.061   5.449  13.078 -0.0383  0.1808  0.0616
10103TIP3    H151724   0.978   5.479  13.041 -0.1061 -1.1104 -0.9109
10103TIP3    H251725   1.043   5.359  13.106  1.0040 -0.0942 -0.1171
10104TIP3   OH251726   2.366   6.499  15.151 -0.0683 -0.3962 -0.4393
10104TIP3    H151727   2.313   6.578  15.137  0.7748  0.1058 -0.8745
10104TIP3    H251728   2.329   6.435  15.090  0.1517  0.1198 -1.1318
10105TIP3   OH251729   1.469   5.058   3.234  0.4357  0.1649 -0.1217
10105TIP3    H151730   1.414   5.032   3.160  0.9131  1.6157 -1.0311
10105TIP3    H251731   1.438   5.145   3.258  0.6524 -0.0635  1.0398
10106TIP3   OH251732   3.334   2.479   3.360 -0.0127  0.1578 -0.6610
10106TIP3    H151733   3.376   2.420   3.297  0.5479 -0.1027 -0.0632
10106TIP3    H251734   3.407   2.518   3.409 -0.2747  2.3716 -1.8944
10107TIP3   OH251735   0.892   2.930   0.557 -0.5944  0.2337  0.0180
10107TIP3    H151736   0.879   3.018   0.593  1.0163  0.1556  0.8650
10107TIP3    H251737   0.807   2.888   0.566 -1.2444  1.5209  0.1039
10108TIP3   OH251738   6.071   2.958  14.016 -0.2892 -0.6568 -0.6452
10108TIP3    H151739   6.019   2.990  14.090  0.7300 -0.8017  0.1540
10108TIP3    H251740   6.026   2.879  13.987 -2.2083  0.8037 -1.9192
10109TIP3   OH251741   2.211   3.353  14.708  0.4083 -0.1348 -0.4798
10109TIP3    H151742   2.297   3.317  14.726  0.8851 -0.6474 -3.3964
10109TIP3    H251743   2.227   3.431  14.654 -0.8374  2.0009  1.9978
10110TIP3   OH251744   3.781   2.503  13.633  0.1294  0.8895 -0.3061
10110TIP3    H151745   3.848   2.565  13.658  0.6610 -0.1809  1.0287
10110TIP3    H251746   3.723   2.552  13.575  1.0850  2.3169 -0.0922
10111TIP3   OH251747   3.015   1.580  13.195 -0.5550 -0.0295 -0.4326
10111TIP3    H151748   3.022   1.552  13.286 -0.3295 -1.0579 -0.7562
10111TIP3    H251749   2.968   1.663  13.199 -3.2353 -1.4546  0.4038
10112TIP3   OH251750   4.210   1.856  12.049  0.6448  0.0941 -0.0007
10112TIP3    H151751   4.220   1.878  12.142  2.9351 -1.2888  0.1482
10112TIP3    H251752   4.261   1.777  12.037 -0.4774 -0.3769 -2.2636
10113TIP3   OH251753   1.200   6.369   5.810 -0.5375 -0.0108 -0.9564
10113TIP3    H151754   1.207   6.318   5.891 -1.1326  1.0110 -0.2397
10113TIP3    H251755   1.107   6.392   5.805 -0.0389  2.3989 -0.3518
10114TIP3   OH251756   0.543   0.669   4.314 -0.1032  0.0604 -0.3289
10114TIP3    H151757   0.511   0.675   4.404 -0.5694  0.7078 -0.5248
10114TIP3    H251758   0.627   0.624   4.321 -0.9676 -1.5213  0.2178
10115TIP3   OH251759   4.971   0.048   3.163  0.1351 -0.5218 -0.3247
10115TIP3    H151760   4.942   0.096   3.085  0.9926 -1.8736 -1.5240
10115TIP3    H251761   5.014  -0.030   3.129  2.8355  0.0805  1.4261
10116TIP3   OH251762   5.762   3.426   2.336  1.0563  0.7895  0.0816
10116TIP3    H151763   5.764   3.330   2.330  0.2961  0.7267  0.7387
10116TIP3    H251764   5.761   3.444   2.430 -1.3557  1.3645 -0.0018
10117TIP3   OH251765   0.192   2.686  14.725  0.3563 -0.4883  0.0419
10117TIP3    H151766   0.163   2.717  14.639 -1.1921  2.7709  1.5538
10117TIP3    H251767   0.128   2.619  14.749 -1.0711  0.7580 -0.1414
10118TIP3   OH251768   1.169   0.272  11.755  0.3897  0.2607  0.0890
10118TIP3    H151769   1.167   0.314  11.841  0.7091  0.3054  0.0793
10118TIP3    H251770   1.213   0.336  11.699  0.6244  0.0286  0.0082
10119TIP3   OH251771   5.219   3.230  16.262  0.5721 -0.7241  0.6219
10119TIP3    H151772   5.281   3.260  16.196  1.0672  0.4651  1.5769
10119TIP3    H251773   5.273   3.213  16.340 -0.3071  0.8203  1.6309
10120TIP3   OH251774   4.242   5.709  15.318  0.1730  0.0954  0.8159
10120TIP3    H151775   4.300   5.633  15.310  0.0838  0.0349  0.7438
10120TIP3    H251776   4.298   5.777  15.356  0.5318  0.3038 -0.0485
10121TIP3   OH251777   5.691   1.253  17.086  0.5759 -0.7545 -0.2988
10121TIP3    H151778   5.718   1.162  17.069 -0.1079 -0.5570 -2.9204
10121TIP3    H251779   5.596   1.251  17.077  0.5918  0.2686 -0.7969
10122TIP3   OH251780   1.027   6.159  11.773  0.1669 -0.1364  0.2677
10122TIP3    H151781   1.074   6.089  11.819  2.8926  0.2411 -1.7276
10122TIP3    H251782   0.997   6.118  11.692  2.5344  1.0911 -1.3266
10123TIP3   OH251783   5.168   1.384  16.519 -1.0339 -0.4708 -0.6796
10123TIP3    H151784   5.134   1.455  16.572  0.0352 -0.2309 -0.2855
10123TIP3    H251785   5.091   1.341  16.483 -1.6964  0.8869 -0.9247
10124TIP3   OH251786   0.177   2.320   0.668  0.2746  0.2640  0.4682
10124TIP3    H151787   0.084   2.307   0.686 -0.4841  0.9742 -2.4031
10124TIP3    H251788   0.221   2.262   0.730 -2.1042 -0.9217  1.2037
10125TIP3   OH251789   1.383   2.315  14.079 -1.2870 -0.5822  0.4323
10125TIP3    H151790   1.426   2.231  14.092  2.5020  0.4977 -3.0592
10125TIP3    H251791   1.308   2.294  14.023  0.0114 -1.6796 -0.9960
10126TIP3   OH251792   2.875   5.263  15.805  0.1723 -0.7857  0.1931
10126TIP3    H151793   2.818   5.296  15.875  0.1192 -1.7021  0.6016
10126TIP3    H251794   2.963   5.264  15.842  0.3030 -0.2183 -0.1243
10127TIP3   OH251795   4.272   4.278   5.948 -0.0726  0.2488 -0.0596
10127TIP3    H151796   4.259   4.359   5.898 -0.9650 -0.3537 -0.8348
10127TIP3    H251797   4.196   4.274   6.007 -0.2518 -0.2230 -0.3181
10128TIP3   OH251798   6.270   0.152   3.813  0.6481  0.1886 -0.5112
10128TIP3    H151799   6.254   0.144   3.719  0.1198 -0.7792 -0.3525
10128TIP3    H251800   6.184   0.170   3.852  0.5639 -1.0411 -0.0656
10129TIP3   OH251801   2.777   2.744  15.851  0.0035  0.1643 -0.0830
10129TIP3    H151802   2.869   2.718  15.857 -0.3767 -1.7861 -1.6666
10129TIP3    H251803   2.732   2.687  15.913 -0.4337 -0.6482 -1.1327
10130TIP3   OH251804   5.545   2.273  13.872  0.3349 -0.0106  0.6161
10130TIP3    H151805   5.568   2.189  13.913  0.8730 -0.5224 -0.6769
10130TIP3    H251806   5.630   2.311  13.847  0.0509  0.5836  0.5370
10131TIP3   OH251807   0.975   5.775   4.748 -0.0898  0.0107  0.3380
10131TIP3    H151808   0.996   5.761   4.656 -0.0772 -1.0345  0.4950
10131TIP3    H251809   0.898   5.720   4.764 -1.1075  1.4140  0.5574
10132TIP3   OH251810   3.498   1.358   2.569 -0.0178 -0.0170 -0.2169
10132TIP3    H151811   3.533   1.360   2.658 -0.3744 -1.9407 -0.0022
10132TIP3    H251812   3.412   1.317   2.578 -0.7304  1.1864 -1.2589
10133TIP3   OH251813   2.789   5.918  11.473 -0.5490 -0.0502 -0.2821
10133TIP3    H151814   2.757   5.993  11.424 -1.7188 -0.0708  0.4179
10133TIP3    H251815   2.711   5.879  11.512 -0.4134 -3.3128 -2.8771
10134TIP3   OH251816   3.061   6.079   3.920  0.1718  0.0185  0.6619
10134TIP3    H151817   3.121   6.134   3.870 -0.8019  1.2096  0.7644
10134TIP3    H251818   3.034   6.011   3.858  0.8996  0.0134  0.3398
10135TIP3   OH251819   2.837   4.519   4.810  0.1389 -0.1326 -0.3038
10135TIP3    H151820   2.872   4.582   4.872  0.3861 -1.8559  1.4109
10135TIP3    H251821   2.791   4.571   4.745  0.5618  1.7927  0.8801
10136TIP3   OH251822   0.468   2.852  15.427  0.0193  0.0079  0.1189
10136TIP3    H151823   0.381   2.887  15.446  0.4251  0.9004  0.3619
10136TIP3    H251824   0.529   2.918  15.460  0.8272 -1.1789  1.1047
10137TIP3   OH251825   2.420   6.561  10.712 -0.0897 -0.3510  0.1657
10137TIP3    H151826   2.462   6.497  10.769 -1.8701 -1.0955  0.7146
10137TIP3    H251827   2.393   6.511  10.635  0.1882  0.1524 -0.2691
10138TIP3   OH251828   4.962   5.536  15.858 -0.1476  0.3739  0.3230
10138TIP3    H151829   4.966   5.496  15.771 -1.7013 -0.2828  0.5051
10138TIP3    H251830   4.958   5.630  15.842  1.5552  0.3703 -0.2087
10139TIP3   OH251831   0.400   4.926   3.318 -0.1398  0.5119  0.7628
10139TIP3    H151832   0.357   5.005   3.284 -2.1795 -0.5006  0.8033
10139TIP3    H251833   0.352   4.906   3.399  0.3208 -0.7821  0.7372
10140TIP3   OH251834   5.203   2.787  12.631  0.5080 -0.3711 -0.4299
10140TIP3    H151835   5.291   2.749  12.626  1.6616  2.2190 -1.6783
10140TIP3    H251836   5.217   2.877  12.660 -1.7706  0.0593 -0.4649
10141TIP3   OH251837   1.761   3.273  11.935 -0.9309 -0.3361  0.2858
10141TIP3    H151838   1.735   3.357  11.898 -0.0259 -1.1124 -2.3085
10141TIP3    H251839   1.733   3.278  12.027 -2.1268  2.2290 -0.1220
10142TIP3   OH251840   5.926   5.729  11.636  0.4323  0.0960 -0.9212
10142TIP3    H151841   5.836   5.750  11.660  0.1485 -1.1427 -0.7947
10142TIP3    H251842   5.965   5.812  11.611 -0.2915  0.9102  0.5078
10143TIP3   OH251843   3.460   2.908  16.297 -0.2621 -0.5181  0.8887
10143TIP3    H151844   3.398   2.981  16.300 -0.5194 -0.7163  0.5328
10143TIP3    H251845   3.488   2.905  16.205  0.0329 -0.6310  0.9821
10144TIP3   OH251846   0.439   1.061   4.810  0.2212 -0.0305 -0.1944
10144TIP3    H151847   0.431   1.121   4.884  1.0676 -0.7350  0.4920
10144TIP3    H251848   0.425   1.117   4.733 -0.6830  0.7082  0.4831
10145TIP3   OH251849   1.618   1.631   1.219  0.0420 -0.0308 -0.1993
10145TIP3    H151850   1.673   1.576   1.163 -1.2780 -1.8819  0.2349
10145TIP3    H251851   1.577   1.693   1.158 -1.2650 -1.9160 -1.3249
10146TIP3   OH251852   4.414   3.756   1.176  0.6684 -0.2721 -0.3897
10146TIP3    H151853   4.446   3.677   1.220  2.1876  0.1144 -0.7459
10146TIP3    H251854   4.394   3.816   1.248  1.4681 -0.2705 -0.1549
10147TIP3   OH251855   1.300   1.866   1.720  0.6888 -0.3591 -0.1893
10147TIP3    H151856   1.303   1.852   1.625  2.3444  0.9863 -0.3698
10147TIP3    H251857   1.222   1.919   1.734  0.6114 -0.2972 -0.8355
10148TIP3   OH251858   3.303   5.477  16.517  0.3301  0.0888 -1.6548
10148TIP3    H151859   3.214   5.471  16.551  0.4655  0.7523 -1.1600
10148TIP3    H251860   3.301   5.426  16.436 -0.0665 -1.2895 -0.8159
10149TIP3   OH251861   6.133   4.141  15.978 -0.0145 -0.1247 -0.2644
10149TIP3    H151862   6.066   4.072  15.974 -0.1977 -0.0276  0.7168
10149TIP3    H251863   6.093   4.216  15.935  0.4665 -0.8301 -2.0055
10150TIP3   OH251864   6.305   0.523   2.216  0.1775 -0.2613  0.2299
10150TIP3    H151865   6.279   0.477   2.137 -0.0902  0.5269 -0.1508
10150TIP3    H251866   6.263   0.609   2.210  0.5201 -0.0208  1.0031
10151TIP3   OH251867   0.066   6.420   2.157 -0.1073 -0.3090  0.3407
10151TIP3    H151868   0.029   6.506   2.174  0.2977 -0.1796  0.5720
10151TIP3    H251869   0.159   6.429   2.178  0.1935 -0.4530 -0.8279
10152TIP3   OH251870   2.582   3.649  13.843  0.1116  0.3479 -0.4879
10152TIP3    H151871   2.526   3.580  13.806  0.0156  0.6052 -0.8273
10152TIP3    H251872   2.522   3.720  13.864  0.3514  0.7649 -1.1871
10153TIP3   OH251873   0.887   1.899  12.744  0.4343 -0.8055  0.7549
10153TIP3    H151874   0.852   1.884  12.832  1.2426  2.1106  1.6838
10153TIP3    H251875   0.905   1.993  12.741  1.9394 -1.0755 -1.9944
10154TIP3   OH251876   0.939   3.670  11.801  0.9733  0.5555 -0.3431
10154TIP3    H151877   0.894   3.685  11.718  0.9351 -0.2077 -0.4727
10154TIP3    H251878   0.897   3.730  11.863 -0.0174  0.0839 -0.5313
10155TIP3   OH251879   4.510   0.642   5.968  0.2165 -0.1061 -0.3132
10155TIP3    H151880   4.526   0.559   6.013 -1.6854 -0.5875 -0.4577
10155TIP3    H251881   4.490   0.704   6.038  1.9457  0.3377 -0.1814
10156TIP3   OH251882   5.092   4.409   0.118  0.1042  0.1283 -0.3029
10156TIP3    H151883   5.080   4.496   0.080  1.8001  0.8809  0.7406
10156TIP3    H251884   5.134   4.426   0.202  0.7225 -1.7262 -0.1974
10157TIP3   OH251885   5.146   4.448   6.132  0.1873 -0.7391  0.3564
10157TIP3    H151886   5.230   4.427   6.172  1.3248 -0.0426 -1.5474
10157TIP3    H251887   5.168   4.487   6.048 -1.9719  1.7049  0.7945
10158TIP3   OH251888   1.189   3.945  16.733  0.2386 -0.0536  0.2764
10158TIP3    H151889   1.140   4.026  16.751  2.0618  1.0269  0.6985
10158TIP3    H251890   1.172   3.890  16.810  1.2279  1.1235  1.3918
10159TIP3   OH251891   6.589   4.241  13.632  0.6885 -0.3586  0.4440
10159TIP3    H151892   6.543   4.160  13.609  0.0617 -0.1741  0.9985
10159TIP3    H251893   6.593   4.240  13.728 -0.0195  0.6321  0.5011
10160TIP3   OH251894   2.436   0.892   0.573  0.4722  0.0066  0.3634
10160TIP3    H151895   2.436   0.979   0.532  0.6776 -0.5052 -0.7630
10160TIP3    H251896   2.527   0.877   0.596  0.2925  0.4708  1.4301
10161TIP3   OH251897   4.145   0.675  15.650  0.0627 -0.0984 -0.0420
10161TIP3    H151898   4.107   0.692  15.564 -0.5931  0.1527  0.2950
10161TIP3    H251899   4.202   0.750  15.667 -0.6144  0.3649  0.1945
10162TIP3   OH251900   2.229   1.431   0.208  0.1921  0.4580 -0.5473
10162TIP3    H151901   2.320   1.433   0.237  0.8277  0.6547 -2.4111
10162TIP3    H251902   2.194   1.517   0.231  0.6336  0.5698 -0.3006
10163TIP3   OH251903   6.511   1.107  15.062  0.3100 -0.3522  0.0665
10163TIP3    H151904   6.543   1.180  15.010  0.5334 -0.3229  0.2468
10163TIP3    H251905   6.507   1.140  15.152 -0.6658 -0.2090 -0.0178
10164TIP3   OH251906   6.266   3.071  13.881  0.0127  0.2332  0.0629
10164TIP3    H151907   6.187   3.040  13.924  0.2276 -0.5056 -0.0632
10164TIP3    H251908   6.329   3.083  13.952 -0.2317  0.8998  0.1721
10165TIP3   OH251909   4.728   5.741  12.997 -0.1347 -0.0796 -0.4096
10165TIP3    H151910   4.699   5.832  13.003  0.1047  0.0683 -1.3088
10165TIP3    H251911   4.667   5.700  12.936 -0.7561 -0.7461  0.6435
10166TIP3   OH251912   6.790   2.501  16.111 -0.2898  0.6510  0.4409
10166TIP3    H151913   6.754   2.522  16.025 -0.8733  0.2186  0.5760
10166TIP3    H251914   6.871   2.552  16.116  1.2961 -1.4820 -1.5255
10167TIP3   OH251915   6.150   0.398   1.123  0.2536  0.9035  0.1762
10167TIP3    H151916   6.082   0.415   1.058  0.2687 -0.1540 -0.1185
10167TIP3    H251917   6.178   0.486   1.151 -0.2011  1.3606 -0.7601
10168TIP3   OH251918   1.283   6.670   5.697 -0.1896 -0.2317  0.4123
10168TIP3    H151919   1.281   6.583   5.736  0.4984 -0.7384 -0.6445
10168TIP3    H251920   1.223   6.664   5.623 -1.3418  0.6707  1.2243
10169TIP3   OH251921   6.022   1.529  16.687 -0.5934 -0.1603 -0.5705
10169TIP3    H151922   6.034   1.436  16.708  0.4995 -0.3965 -2.0900
10169TIP3    H251923   5.951   1.530  16.622  0.3757 -0.1198 -1.6667
10170TIP3   OH251924   1.452   5.762   1.925  0.0776  0.4619 -0.3323
10170TIP3    H151925   1.428   5.765   1.832 -1.6049  1.3464  0.1059
10170TIP3    H251926   1.451   5.853   1.953 -0.6940  0.1124  0.8456
10171TIP3   OH251927   2.737   6.100  14.109 -0.3724  0.3568  0.0722
10171TIP3    H151928   2.738   6.171  14.173 -0.2664  0.3280  0.1033
10171TIP3    H251929   2.652   6.058  14.121  0.4292 -0.9514  1.6388
10172TIP3   OH251930   4.724   3.189   3.713  0.2704  0.0250 -0.5552
10172TIP3    H151931   4.708   3.159   3.802 -1.0004  0.2751 -0.6822
10172TIP3    H251932   4.814   3.222   3.714  0.3234 -0.1382  0.5732
10173TIP3   OH251933   5.625   0.563  16.473 -0.8250 -0.9009 -0.1837
10173TIP3    H151934   5.604   0.609  16.392  0.4464 -2.8509 -1.7206
10173TIP3    H251935   5.688   0.621  16.517  0.6940 -1.0322 -2.0329
10174TIP3   OH251936   5.094   6.279   2.655 -0.2182 -0.0971 -0.3642
10174TIP3    H151937   5.108   6.371   2.677 -0.4380 -0.1492  0.0114
10174TIP3    H251938   4.999   6.271   2.645 -0.3286 -0.5476  0.8680
10175TIP3   OH251939   4.943   5.797   5.168  0.3031 -0.4437 -0.2711
10175TIP3    H151940   4.887   5.872   5.149  0.5178 -0.6425 -1.7700
10175TIP3    H251941   4.974   5.813   5.258  1.0117  1.7073 -0.8262
10176TIP3   OH251942   0.857   4.998   3.593  0.3204  0.3430  0.0051
10176TIP3    H151943   0.841   4.910   3.628 -0.1890  0.7537  0.8296
10176TIP3    H251944   0.952   5.009   3.597  0.3428  0.0239  0.3601
10177TIP3   OH251945   4.825   5.546  14.389  0.0945  0.0984  0.3606
10177TIP3    H151946   4.866   5.622  14.430  0.1673 -0.1509  0.7603
10177TIP3    H251947   4.747   5.581  14.346  0.2559  0.4368  0.3392
10178TIP3   OH251948   0.903   1.098  11.645  0.1684  0.3058 -0.0348
10178TIP3    H151949   0.837   1.126  11.582 -2.6938 -1.2656  2.0400
10178TIP3    H251950   0.912   1.172  11.705 -1.5250 -0.2858  0.9979
10179TIP3   OH251951   2.693   3.570  16.476  0.0024 -0.4027 -0.1368
10179TIP3    H151952   2.669   3.478  16.475  1.5165 -0.8458 -2.2253
10179TIP3    H251953   2.733   3.586  16.390 -1.3857  2.5315 -0.3899
10180TIP3   OH251954   3.277   6.049   4.121  0.2306  0.1984  0.0892
10180TIP3    H151955   3.213   6.062   4.051  0.4807  0.2651 -0.1253
10180TIP3    H251956   3.243   6.103   4.193 -1.3293 -1.7285  0.8856
10181TIP3   OH251957   3.879   0.277  15.396 -0.1933 -0.0634 -0.0853
10181TIP3    H151958   3.961   0.228  15.389 -0.1015  0.2880 -1.9196
10181TIP3    H251959   3.902   0.354  15.448  0.5311 -0.1961 -0.1933
10182TIP3   OH251960   5.831   2.643  13.321  0.4929 -0.4269 -0.3238
10182TIP3    H151961   5.790   2.659  13.236 -0.3911  2.2942  0.5014
10182TIP3    H251962   5.889   2.718  13.335 -1.8843  1.0888  2.7960
10183TIP3   OH251963   4.742   5.839  12.221  0.3194  0.2359 -0.0321
10183TIP3    H151964   4.770   5.833  12.129 -1.5221  0.9148 -0.6905
10183TIP3    H251965   4.722   5.932  12.234  0.0455  0.0573  0.8854
10184TIP3   OH251966   4.252   3.054   0.692 -0.1884 -0.1551 -0.3119
10184TIP3    H151967   4.272   3.009   0.610  1.6814 -0.3196  0.1963
10184TIP3    H251968   4.161   3.030   0.712 -0.7529  0.0662 -2.4218
10185TIP3   OH251969   4.523   2.346  16.405 -0.5370 -0.3766  0.1363
10185TIP3    H151970   4.466   2.422  16.399  1.8656  1.4140 -2.8695
10185TIP3    H251971   4.540   2.321  16.314  2.6195 -1.3839  0.8588
10186TIP3   OH251972   4.228   4.302  15.703  0.0024  0.0367 -0.1389
10186TIP3    H151973   4.294   4.371  15.711  0.1451 -0.2231  1.2911
10186TIP3    H251974   4.173   4.329  15.629 -0.5446  2.2346  0.9814
10187TIP3   OH251975   3.578   1.030  15.517 -0.2505 -0.2059  0.6246
10187TIP3    H151976   3.656   1.083  15.499  0.5751 -0.8019  2.2574
10187TIP3    H251977   3.533   1.025  15.433  1.5732 -0.0115 -0.4215
10188TIP3   OH251978   6.003   3.672   2.579 -0.0817  0.0389  0.4315
10188TIP3    H151979   6.010   3.581   2.550 -1.3150 -0.1561  0.7032
10188TIP3    H251980   5.983   3.721   2.500 -0.6551 -0.1102  0.4763
10189TIP3   OH251981   4.554   6.210  10.034  0.5384 -0.0952 -0.1425
10189TIP3    H151982   4.626   6.149  10.018 -0.0694 -0.3362 -2.2956
10189TIP3    H251983   4.597   6.291  10.062  1.6360 -0.3540 -0.9971
10190TIP3   OH251984   5.542   5.087   5.512  0.1593  0.4167  0.1864
10190TIP3    H151985   5.467   5.034   5.540  1.1853 -1.1260  0.1420
10190TIP3    H251986   5.549   5.156   5.578  0.7980 -1.4949  2.2525
10191TIP3   OH251987   4.018   5.016   5.534 -0.2908 -1.0778  0.5594
10191TIP3    H151988   3.960   4.997   5.460 -0.2556 -0.8564  0.4737
10191TIP3    H251989   4.071   4.937   5.544  0.8353 -0.5303 -0.6915
10192TIP3   OH251990   2.195   0.011   5.387  0.1597  0.0661 -0.2561
10192TIP3    H151991   2.277  -0.001   5.435  0.0899  1.0054  0.1044
10192TIP3    H251992   2.129  -0.032   5.441 -0.2367  2.6860  1.4814
10193TIP3   OH251993   1.293   4.250   0.074 -0.0225  0.0995  0.0662
10193TIP3    H151994   1.331   4.162   0.077  0.4892  0.3347  2.1540
10193TIP3    H251995   1.329   4.294   0.151 -0.9796  1.8458 -0.4360
10194TIP3   OH251996   4.867   5.740   2.463  0.1450  0.1392  0.0262
10194TIP3    H151997   4.868   5.830   2.430  1.7523  0.0784 -0.1918
10194TIP3    H251998   4.897   5.687   2.389  0.1742 -0.4588  0.4551
10195TIP3   OH251999   5.568   1.389  11.650  0.2860 -0.5788  0.4291
10195TIP3    H152000   5.520   1.353  11.725 -0.1874  3.8817  2.6439
10195TIP3    H252001   5.654   1.412  11.685  0.3852  0.7720 -0.6031
10196TIP3   OH252002   6.424   2.554  12.099  0.4608 -0.8519 -0.5343
10196TIP3    H152003   6.515   2.561  12.069  1.0474 -1.1586  1.0797
10196TIP3    H252004   6.383   2.635  12.070  1.1780 -0.8117 -1.4885
10197TIP3   OH252005   5.266   1.344   6.284 -0.2198  0.2553 -0.5155
10197TIP3    H152006   5.177   1.379   6.292  0.4490  1.5972  2.3366
10197TIP3    H252007   5.264   1.261   6.332  0.3591  0.9822  0.8035
10198TIP3   OH252008   2.558   2.559   2.456  0.2300 -0.4549 -0.1589
10198TIP3    H152009   2.517   2.514   2.530 -0.6602  0.0538 -0.3199
10198TIP3    H252010   2.509   2.529   2.379  1.2432 -1.0900 -0.5680
10199TIP3   OH252011   1.030   3.495   6.273  0.3483 -0.2503 -0.1391
10199TIP3    H152012   1.123   3.470   6.279  0.6336  0.9915  1.1268
10199TIP3    H252013   0.983   3.412   6.280  1.3117 -0.7015  2.1661
10200TIP3   OH252014   6.176   3.593   6.482  0.4626 -0.1895 -0.1525
10200TIP3    H152015   6.237   3.585   6.555 -1.5137 -2.7034  1.4073
10200TIP3    H252016   6.119   3.667   6.507  0.1689 -0.6565  0.6113
10201TIP3   OH252017   0.290   4.056   0.547  0.1078 -0.1278 -0.5661
10201TIP3    H152018   0.300   4.135   0.494 -0.8396 -0.0540 -0.6548
10201TIP3    H252019   0.281   4.088   0.637 -0.5754 -0.1009 -0.6350
10202TIP3   OH252020   2.894   2.559   5.275 -0.5146 -0.1275 -0.1846
10202TIP3    H152021   2.959   2.516   5.329 -0.0651  0.0443 -0.5851
10202TIP3    H252022   2.926   2.550   5.186  0.1993  1.9965 -0.2170
10203TIP3   OH252023   0.469   1.321  14.663  0.1124  0.2538  0.6719
10203TIP3    H152024   0.378   1.336  14.688 -0.7659 -0.7154 -1.6219
10203TIP3    H252025   0.491   1.396  14.608  0.2766 -0.0962  0.2537
10204TIP3   OH252026   2.460   0.741   5.273 -0.1131  0.9261  0.3368
10204TIP3    H152027   2.391   0.748   5.340 -1.0942  1.1972 -0.6584
10204TIP3    H252028   2.482   0.648   5.270  0.3435  0.9866  1.4129
10205TIP3   OH252029   0.008   6.614  12.885  0.3054 -0.3339  0.1394
10205TIP3    H152030   0.015   6.520  12.898  1.8869 -0.4687 -1.3428
10205TIP3    H252031   0.048   6.630  12.800 -0.7874  1.5756 -0.0835
10206TIP3   OH252032   2.966   0.452  12.172  0.3857 -0.1970  0.0731
10206TIP3    H152033   2.959   0.502  12.253 -2.2633 -0.8807  0.3718
10206TIP3    H252034   2.992   0.517  12.106  1.6710  0.5475  1.2607
10207TIP3   OH252035   4.743   4.260  15.843 -0.0231 -0.0131  0.3858
10207TIP3    H152036   4.773   4.342  15.881  0.5839 -0.5419  1.0914
10207TIP3    H252037   4.809   4.195  15.871 -0.9714 -0.9068  0.6089
10208TIP3   OH252038   4.081   0.203  15.848 -0.8074 -0.3363  0.0801
10208TIP3    H152039   4.079   0.257  15.927  4.4366  0.4707  0.0190
10208TIP3    H252040   4.056   0.263  15.777  2.1848  1.4144  0.3582
10209TIP3   OH252041   0.193   2.789  15.878  0.0477  0.2747  0.1281
10209TIP3    H152042   0.287   2.808  15.873 -0.3483  2.1258 -3.9842
10209TIP3    H252043   0.186   2.697  15.856  0.8784  0.0657  0.6906
10210TIP3   OH252044   1.042   2.678   0.298  0.2657  0.2263 -0.3049
10210TIP3    H152045   0.956   2.640   0.317 -0.3606 -0.0966 -3.2818
10210TIP3    H252046   1.093   2.605   0.263  0.3843  1.1880 -2.2745
10211TIP3   OH252047   3.531   1.280  15.750  0.2444 -0.0418  0.0038
10211TIP3    H152048   3.465   1.350  15.750 -1.0757 -1.2414 -0.0721
10211TIP3    H252049   3.530   1.247  15.660 -0.6049 -1.4549  0.5050
10212TIP3   OH252050   4.235   4.090   5.114 -0.5224 -0.3362 -0.0640
10212TIP3    H152051   4.252   4.173   5.068 -1.9462  0.9288  1.5673
10212TIP3    H252052   4.276   4.024   5.058  1.5515  1.5270 -0.9362
10213TIP3   OH252053   3.188   4.878   1.291  0.0203 -0.3267  0.5087
10213TIP3    H152054   3.186   4.856   1.384  1.5215 -0.5039  0.5179
10213TIP3    H252055   3.279   4.903   1.273 -0.0717 -0.9773 -1.0639
10214TIP3   OH252056   4.581   3.089  14.721 -0.3575 -0.5743  0.3759
10214TIP3    H152057   4.672   3.071  14.743  0.4603  1.0796 -1.4231
10214TIP3    H252058   4.532   3.065  14.800  1.9615  1.6789  2.6701
10215TIP3   OH252059   5.308   5.781  16.743 -0.6198  0.2054 -0.2389
10215TIP3    H152060   5.245   5.733  16.691 -2.0978 -1.5667  2.8820
10215TIP3    H252061   5.327   5.724  16.818  1.1431  2.5954  1.3385
10216TIP3   OH252062   6.339   5.137   5.912 -0.3942  0.1044  0.1749
10216TIP3    H152063   6.260   5.120   5.964 -0.3345 -0.1276  0.1920
10216TIP3    H252064   6.400   5.178   5.973 -0.7595  0.9608 -0.0190
10217TIP3   OH252065   6.590   1.570   1.965 -0.3868 -0.1775  0.0816
10217TIP3    H152066   6.608   1.491   1.915  0.8414  0.0721  0.0988
10217TIP3    H252067   6.653   1.568   2.037 -0.2401  0.8865 -0.0006
10218TIP3   OH252068   1.976   6.581   2.845 -0.0053  0.3823 -0.7052
10218TIP3    H152069   2.011   6.498   2.812 -1.1858 -0.2118 -0.5190
10218TIP3    H252070   1.953   6.564   2.936  0.9404  1.3030 -0.2778
10219TIP3   OH252071   6.184   0.825   2.992 -0.1773  0.5927 -0.1739
10219TIP3    H152072   6.109   0.846   3.049 -2.2956 -1.7701 -1.8377
10219TIP3    H252073   6.145   0.814   2.906  2.4862  1.2240 -1.5467
10220TIP3   OH252074   0.192   1.693   2.863  0.5615  0.1176 -0.2776
10220TIP3    H152075   0.234   1.733   2.787 -1.0814  2.2187 -0.1572
10220TIP3    H252076   0.104   1.671   2.834  0.7243 -1.4794  0.3205
10221TIP3   OH252077   0.865   4.291   1.036  0.2356  0.4063 -0.0209
10221TIP3    H152078   0.878   4.237   1.114 -0.0693  0.5733  0.1480
10221TIP3    H252079   0.913   4.246   0.967 -1.3112 -0.9700 -0.2774
10222TIP3   OH252080   6.096   6.333  15.082 -0.0397 -0.2432  0.5897
10222TIP3    H152081   6.154   6.314  15.008  0.9431 -0.0455  1.2874
10222TIP3    H252082   6.137   6.407  15.127 -2.8004  2.5429 -1.0248
10223TIP3   OH252083   3.131   0.988  13.365  0.2502  0.3317 -0.2984
10223TIP3    H152084   3.038   0.972  13.382  0.0381  0.9979 -0.8017
10223TIP3    H252085   3.166   1.020  13.448 -0.3358  1.6514 -0.5414
10224TIP3   OH252086   0.913   4.001   6.119  0.7063  0.1128  0.6395
10224TIP3    H152087   0.971   4.077   6.109  0.3172  0.6268  2.0808
10224TIP3    H252088   0.963   3.938   6.170  1.4949 -1.1663 -1.5872
10225TIP3   OH252089   3.483   0.168   6.014 -0.4422 -0.3262  0.2538
10225TIP3    H152090   3.419   0.097   6.008 -0.9370  0.1611 -0.3462
10225TIP3    H252091   3.468   0.222   5.937  1.1374 -0.5486 -0.2486
10226TIP3   OH252092   0.814   1.878   3.349 -0.7453 -0.0908 -0.5542
10226TIP3    H152093   0.772   1.829   3.419  0.5561 -0.2599  0.1415
10226TIP3    H252094   0.748   1.941   3.320 -2.4401 -2.1104 -1.3947
10227TIP3   OH252095   3.576   2.383  11.537  0.1651 -0.7716 -0.1743
10227TIP3    H152096   3.535   2.367  11.453 -0.6184 -1.0842  0.2564
10227TIP3    H252097   3.633   2.308  11.552 -0.7444 -1.4110  0.1892
10228TIP3   OH252098   0.302   1.709  13.766  0.3440 -0.2997 -0.1544
10228TIP3    H152099   0.347   1.773  13.822  0.0632  0.9436 -1.2808
10228TIP3    H252100   0.267   1.762  13.694 -0.1328 -1.7089 -0.9864
10229TIP3   OH252101   0.747   6.721   2.400 -0.1830 -0.4226  0.1157
10229TIP3    H152102   0.825   6.667   2.384 -0.8128 -1.4450  0.3695
10229TIP3    H252103   0.702   6.724   2.315  0.3141  0.4817 -0.1238
10230TIP3   OH252104   5.319   1.836   5.794 -0.4352  0.0070  0.1807
10230TIP3    H152105   5.407   1.822   5.760 -0.8919  1.6628 -1.9311
10230TIP3    H252106   5.332   1.891   5.872  0.4266 -0.3682  0.3086
10231TIP3   OH252107   2.209   2.674   3.804 -0.4200 -0.6350 -0.1206
10231TIP3    H152108   2.130   2.621   3.797  0.7891 -2.7124  1.0398
10231TIP3    H252109   2.233   2.669   3.897 -0.8617  2.9885  0.3410
10232TIP3   OH252110   3.538   4.586  14.305  0.0925 -0.1394  0.1700
10232TIP3    H152111   3.497   4.568  14.389  1.0202 -2.5071  0.1946
10232TIP3    H252112   3.472   4.635  14.256 -1.5062 -1.0436  1.3316
10233TIP3   OH252113   1.046   6.112   0.225 -0.5758 -0.1820 -0.3822
10233TIP3    H152114   1.080   6.065   0.301  0.5663 -0.5353 -1.0995
10233TIP3    H252115   1.123   6.148   0.182 -1.1264 -0.7124 -1.8553
10234TIP3   OH252116   1.094   4.347  15.859 -0.2147  0.2856  0.7882
10234TIP3    H152117   1.184   4.378  15.869 -1.1622  4.5217 -1.3109
10234TIP3    H252118   1.096   4.294  15.779  0.2531  1.6220 -0.1231
10235TIP3   OH252119   0.389   2.430  13.652  0.1178 -0.3170 -0.6229
10235TIP3    H152120   0.407   2.346  13.610  0.0568 -1.7480  1.9954
10235TIP3    H252121   0.322   2.410  13.718  1.0556  1.4767  0.9846
10236TIP3   OH252122   1.412   0.655  15.384  0.2907 -0.5575 -0.0230
10236TIP3    H152123   1.451   0.731  15.341  0.9953 -1.5886 -1.2712
10236TIP3    H252124   1.337   0.632  15.329  0.1052 -0.7987  0.3222
10237TIP3   OH252125   4.302   5.912  14.173  0.1221 -0.1210 -0.3991
10237TIP3    H152126   4.307   5.823  14.207 -0.6918 -0.3549 -0.8533
10237TIP3    H252127   4.218   5.945  14.205  0.3518  0.4342 -0.3584
10238TIP3   OH252128   0.245   2.682  15.040 -0.3067 -0.6724 -0.0894
10238TIP3    H152129   0.329   2.700  15.081 -0.4208 -0.9183  0.2621
10238TIP3    H252130   0.254   2.714  14.950  0.1858 -0.7708 -0.0773
10239TIP3   OH252131   2.572   0.546  13.630 -0.3727  0.2825  1.0025
10239TIP3    H152132   2.519   0.511  13.701 -0.6811 -1.0238  0.1626
10239TIP3    H252133   2.509   0.575  13.565 -0.0959 -0.3645  0.4258
10240TIP3   OH252134   3.920   1.685  16.431 -0.1221  0.1265 -0.1506
10240TIP3    H152135   4.010   1.716  16.428 -0.3877  0.9062 -0.1101
10240TIP3    H252136   3.912   1.642  16.516  0.6445 -1.3197 -0.7546
10241TIP3   OH252137   1.269   4.188   0.978 -0.2663  0.1098 -0.0140
10241TIP3    H152138   1.177   4.171   0.998 -0.3759 -0.0876 -0.6784
10241TIP3    H252139   1.267   4.251   0.906  0.1261  1.8294  1.3874
10242TIP3   OH252140   5.269   5.240  16.905  0.1499 -0.5781  0.2950
10242TIP3    H152141   5.328   5.165  16.901  0.5890 -0.4397  2.7139
10242TIP3    H252142   5.324   5.314  16.877  1.0963 -0.5104  2.1639
10243TIP3   OH252143   5.393   5.165   6.159 -0.7165 -0.1365  0.4755
10243TIP3    H152144   5.426   5.085   6.199 -0.4411  0.3244  1.1741
10243TIP3    H252145   5.370   5.222   6.232 -1.2666  0.2876 -0.0109
10244TIP3   OH252146   6.087   2.375   4.998 -0.3235 -0.2079  0.2588
10244TIP3    H152147   6.041   2.333   5.071 -2.2606 -1.0531 -1.3145
10244TIP3    H252148   6.016   2.405   4.940  1.1224  1.0008 -0.9608
10245TIP3   OH252149   3.802   1.021   6.212  0.2292  0.7300 -0.5422
10245TIP3    H152150   3.753   0.950   6.171  1.3570 -0.5640  0.2878
10245TIP3    H252151   3.736   1.076   6.253 -0.5757 -0.7159  0.1496
10246TIP3   OH252152   0.043   2.838  15.197 -0.2888 -0.3385 -0.3943
10246TIP3    H152153   0.011   2.811  15.283 -0.0990 -2.3945 -0.9047
10246TIP3    H252154   0.113   2.775  15.177  0.3815  0.7431 -1.6138
10247TIP3   OH252155   0.398   4.788   6.143 -0.4751 -0.4355 -0.2041
10247TIP3    H152156   0.348   4.757   6.218 -0.8231 -0.4094 -0.4239
10247TIP3    H252157   0.397   4.715   6.081  0.9664 -0.9632  0.3645
10248TIP3   OH252158   4.712   2.450   3.083 -0.0060  0.2191  0.7078
10248TIP3    H152159   4.636   2.484   3.034  0.1232  0.8930  0.9628
10248TIP3    H252160   4.736   2.522   3.141  0.1511 -0.4020  1.4168
10249TIP3   OH252161   1.042   3.816  11.314 -0.2406 -0.3450 -0.4414
10249TIP3    H152162   1.127   3.799  11.354 -0.7808  0.5333  1.1599
10249TIP3    H252163   1.041   3.760  11.236  1.8353 -0.2764 -0.5834
10250TIP3   OH252164   1.295   3.113  13.810 -0.5912  0.2111 -0.8996
10250TIP3    H152165   1.361   3.156  13.754  0.4204  0.2180  0.2624
10250TIP3    H252166   1.346   3.055  13.867 -1.7455 -0.8877 -0.9577
10251TIP3   OH252167   4.688   0.623   3.505  0.4402 -0.7025 -0.1560
10251TIP3    H152168   4.674   0.646   3.597 -0.5905  0.0652 -0.4857
10251TIP3    H252169   4.686   0.707   3.459  0.8933 -1.0842 -0.8864
10252TIP3   OH252170   1.768   0.193   5.454  0.0762 -0.3733  0.0884
10252TIP3    H152171   1.788   0.271   5.505  0.6214 -0.1575 -0.4498
10252TIP3    H252172   1.805   0.210   5.367 -0.0080 -1.1246 -0.1046
10253TIP3   OH252173   6.259   0.404   0.692 -0.5640 -0.7280 -0.2655
10253TIP3    H152174   6.267   0.481   0.748 -0.3003 -0.8342 -0.1588
10253TIP3    H252175   6.197   0.347   0.738  0.4474 -1.2851  0.4523
10254TIP3   OH252176   5.969   6.528   5.904 -0.1996  0.1977  0.6997
10254TIP3    H152177   5.955   6.441   5.942 -2.6604  1.2409  2.4564
10254TIP3    H252178   5.882   6.555   5.875  0.7644  1.5590 -1.0934
10255TIP3   OH252179   3.854   5.429   3.696 -0.0891 -0.4419  0.6151
10255TIP3    H152180   3.763   5.398   3.703 -0.6831  1.1669  0.6555
10255TIP3    H252181   3.873   5.466   3.782  0.4426 -0.3625  0.4652
10256TIP3   OH252182   1.782   1.491  11.306  0.1191  0.1314 -0.3900
10256TIP3    H152183   1.725   1.524  11.376  0.7630  1.7588 -0.5820
10256TIP3    H252184   1.827   1.569  11.273  0.9884 -0.8294 -1.5773
10257TIP3   OH252185   1.158   6.755  14.046  0.2239 -0.1356 -0.3393
10257TIP3    H152186   1.128   6.673  14.006  0.7094 -1.1258  1.2535
10257TIP3    H252187   1.082   6.787  14.095  0.0082  0.4558 -1.0240
10258TIP3   OH252188   2.790   2.091   0.121 -0.4497  0.0198 -0.0864
10258TIP3    H152189   2.861   2.045   0.164 -1.0535  1.8066  3.0953
10258TIP3    H252190   2.832   2.167   0.081 -0.3678  0.3057  0.5378
10259TIP3   OH252191   4.920   1.175  13.415  0.0966 -0.1550  0.2415
10259TIP3    H152192   4.870   1.254  13.436  0.2107 -0.6215  2.5775
10259TIP3    H252193   4.854   1.107  13.402  0.0345  0.0894 -0.8603
10260TIP3   OH252194   5.220   2.377  15.957  0.4347  0.6344  0.2033
10260TIP3    H152195   5.287   2.382  16.025  0.1973  0.1938  0.4750
10260TIP3    H252196   5.173   2.460  15.963  0.6053  0.7176  0.3793
10261TIP3   OH252197   6.529   4.428   6.002 -0.3490 -0.5866  0.3512
10261TIP3    H152198   6.501   4.515   5.975  0.1222 -0.7136 -0.5926
10261TIP3    H252199   6.571   4.391   5.924  2.2660 -0.4734  1.6082
10262TIP3   OH252200   0.429   0.386  14.452 -0.0347  0.2352  0.4870
10262TIP3    H152201   0.389   0.371  14.538  0.1488 -1.1281  0.3467
10262TIP3    H252202   0.426   0.301  14.408 -1.1238  1.1489 -1.3163
10263TIP3   OH252203   5.392   2.558  16.204  0.0447  0.4229  0.4422
10263TIP3    H152204   5.406   2.467  16.177  0.6123  0.6490 -0.0496
10263TIP3    H252205   5.322   2.553  16.270 -0.4694 -0.2832 -0.1334
10264TIP3   OH252206   0.614   6.061   2.614 -0.4680 -0.1723 -0.1496
10264TIP3    H152207   0.585   6.012   2.691 -0.5215 -0.3602 -0.2915
10264TIP3    H252208   0.667   6.132   2.650 -0.9491  0.0669  0.1002
10265TIP3   OH252209   6.769   1.067   1.808  0.4081 -0.2082  0.8448
10265TIP3    H152210   6.859   1.101   1.805  0.1463  0.4379 -0.9456
10265TIP3    H252211   6.774   0.982   1.764  0.2706 -0.5301  1.4425
10266TIP3   OH252212   2.128   6.021  16.523  0.4654  0.1645  0.5940
10266TIP3    H152213   2.220   6.029  16.496  0.5914  0.9121  1.2001
10266TIP3    H252214   2.131   5.969  16.603  0.3425  0.1147  0.5674
10267TIP3   OH252215   1.894   1.435   1.647 -0.5519 -0.5470  0.0185
10267TIP3    H152216   1.827   1.448   1.580 -0.0592  1.2105 -0.1790
10267TIP3    H252217   1.959   1.378   1.605  0.9770  2.4235 -1.9875
10268TIP3   OH252218   0.865   0.167  11.904 -0.8021 -0.0571  0.3278
10268TIP3    H152219   0.936   0.198  11.847 -1.2762 -2.5929 -1.8546
10268TIP3    H252220   0.904   0.095  11.954 -2.0046 -2.3566 -1.8350
10269TIP3   OH252221   4.429   5.984   0.191  0.3017 -0.2760  0.0166
10269TIP3    H152222   4.520   5.978   0.160  0.3235 -0.0844  0.0366
10269TIP3    H252223   4.437   6.028   0.276  0.2945 -1.2861  0.5474
10270TIP3   OH252224   4.139   0.347  12.407  0.5068  0.1494 -0.2573
10270TIP3    H152225   4.146   0.324  12.314  1.2294  1.6359 -0.6210
10270TIP3    H252226   4.227   0.376  12.431  0.0254  1.0770  0.5003
10271TIP3   OH252227   0.999   4.119  12.331  0.1551 -0.2015 -0.1602
10271TIP3    H152228   1.090   4.093  12.342  0.0550 -0.1806  0.8400
10271TIP3    H252229   0.972   4.081  12.248  0.6832 -1.3553  0.1802
10272TIP3   OH252230   0.355   2.597  12.351  0.1107  0.2018 -0.8015
10272TIP3    H152231   0.340   2.692  12.347 -0.2476  0.1798 -0.1343
10272TIP3    H252232   0.297   2.567  12.421  1.2165 -0.3048 -0.0842
10273TIP3   OH252233   3.534   2.823  15.296  0.7571 -0.0969 -0.7546
10273TIP3    H152234   3.497   2.861  15.217  1.2811 -0.4371 -1.1765
10273TIP3    H252235   3.614   2.779  15.266  0.9485 -0.2525 -0.0423
10274TIP3   OH252236   1.254   0.642  14.957  0.2724  0.1423 -0.2522
10274TIP3    H152237   1.170   0.611  14.921  0.9848  0.6694 -2.4906
10274TIP3    H252238   1.235   0.730  14.988 -0.3629 -0.3354  0.7913
10275TIP3   OH252239   1.080   2.219  11.234 -0.2340  0.2704 -0.1292
10275TIP3    H152240   1.159   2.198  11.285 -1.4872 -1.1195  1.3392
10275TIP3    H252241   1.078   2.153  11.165 -0.8796 -0.6790  0.7605
10276TIP3   OH252242   2.174   1.804   5.789 -0.4482 -0.3093 -0.3236
10276TIP3    H152243   2.252   1.805   5.734 -0.8270  0.5410 -0.8635
10276TIP3    H252244   2.178   1.886   5.838  0.0735 -1.2105  1.2348
10277TIP3   OH252245   6.406   3.629  16.748  0.1883 -0.3189  0.4552
10277TIP3    H152246   6.431   3.536  16.740  0.1167 -0.2166 -1.4452
10277TIP3    H252247   6.489   3.676  16.752  0.2935 -0.3387 -0.8798
10278TIP3   OH252248   3.909   2.370   1.663 -0.4127  0.0541 -0.6327
10278TIP3    H152249   3.946   2.285   1.688  1.0629  0.8310 -0.1055
10278TIP3    H252250   3.816   2.362   1.686 -0.4833 -1.6988 -1.3727
10279TIP3   OH252251   4.448   0.135   1.241 -0.2137 -0.0300  0.1552
10279TIP3    H152252   4.391   0.058   1.244 -0.4230  0.1545  1.0735
10279TIP3    H252253   4.494   0.126   1.158  0.9117 -1.9882  0.9127
10280TIP3   OH252254   6.658   0.569  16.693  0.4007 -0.2569  0.1998
10280TIP3    H152255   6.616   0.550  16.609  1.5249  0.5032 -0.5685
10280TIP3    H252256   6.651   0.488  16.743  0.4998 -1.0094 -0.9814
10281TIP3   OH252257   3.294   5.368   3.563 -0.1252 -0.3770  0.1598
10281TIP3    H152258   3.205   5.355   3.529  0.0852  2.3938 -1.8663
10281TIP3    H252259   3.350   5.326   3.497  0.1338 -1.6004  1.1288
10282TIP3   OH252260   1.532   1.823  16.643 -0.1583  0.3756 -0.4309
10282TIP3    H152261   1.500   1.758  16.580 -0.3919 -0.0920  0.1575
10282TIP3    H252262   1.596   1.874  16.594 -2.4726  1.9942 -1.9532
10283TIP3   OH252263   5.186   2.690   5.066  0.1454 -0.3427  0.5068
10283TIP3    H152264   5.242   2.617   5.041 -0.4701 -0.5488 -0.2959
10283TIP3    H252265   5.204   2.757   5.000  1.7537  0.8063  2.0134
10284TIP3   OH252266   1.395   0.257   5.609 -0.4239  0.5417 -0.0358
10284TIP3    H152267   1.473   0.204   5.627 -1.2410 -1.8817 -2.7803
10284TIP3    H252268   1.428   0.332   5.560  0.5004  1.2944  1.6918
10285TIP3   OH252269   6.698   3.630   5.663 -0.2939  0.9048  0.4864
10285TIP3    H152270   6.741   3.607   5.581 -3.8740  0.4118 -1.4707
10285TIP3    H252271   6.752   3.590   5.731  2.0435  0.0891 -1.7074
10286TIP3   OH252272   3.042   5.789   4.938  0.0756 -0.9791 -0.1805
10286TIP3    H152273   2.984   5.786   4.862  0.5188 -2.7133 -0.4852
10286TIP3    H252274   3.053   5.698   4.963  1.4654 -0.5608  0.8125
10287TIP3   OH252275   2.220   3.140   5.706  0.1042  0.4896 -0.7607
10287TIP3    H152276   2.202   3.222   5.659  0.3791  0.9350 -0.1044
10287TIP3    H252277   2.300   3.158   5.756 -1.2901  0.7341  1.4942
10288TIP3   OH252278   1.411   0.675  13.037 -0.0216  0.2778 -0.2318
10288TIP3    H152279   1.438   0.649  12.949  0.2449 -0.4121  0.0406
10288TIP3    H252280   1.317   0.657  13.039 -0.0952  0.6306 -0.4893
10289TIP3   OH252281   3.118   5.125   1.171  0.2764 -0.0622  0.1253
10289TIP3    H152282   3.146   5.046   1.219  1.6667  0.5464  0.3779
10289TIP3    H252283   3.198   5.176   1.162 -0.6755  1.5148  0.3033
10290TIP3   OH252284   1.209   5.653  11.885 -0.3676  0.7952  0.1765
10290TIP3    H152285   1.183   5.576  11.936  0.2036 -0.3875 -1.2473
10290TIP3    H252286   1.256   5.617  11.810  1.0340  2.6099  0.1079
10291TIP3   OH252287   1.230   2.119   6.394  0.2198  0.0520  0.2579
10291TIP3    H152288   1.273   2.201   6.371 -0.7003  0.3972 -0.2902
10291TIP3    H252289   1.159   2.145   6.453 -0.5362 -0.2400 -0.4940
10292TIP3   OH252290   6.645   1.194   2.984  0.0774  0.2898 -0.2945
10292TIP3    H152291   6.635   1.213   3.078 -0.1161  0.9192 -0.4370
10292TIP3    H252292   6.557   1.202   2.949  0.2220  0.4997 -0.6111
10293TIP3   OH252293   0.270   6.479   0.892  0.0104  1.0172 -0.4061
10293TIP3    H152294   0.236   6.475   0.982  0.2548  0.4642 -0.3327
10293TIP3    H252295   0.337   6.548   0.895  1.0395  0.0255  0.2046
10294TIP3   OH252296   0.816   5.007   0.679 -0.5945 -0.3698 -0.3084
10294TIP3    H152297   0.777   4.974   0.760 -0.2562 -1.4750 -0.5660
10294TIP3    H252298   0.741   5.029   0.624 -0.8350  1.6735  0.7663
10295TIP3   OH252299   5.241   4.799  11.693  0.3458  0.0989  0.2097
10295TIP3    H152300   5.244   4.862  11.621 -0.2341 -0.0426  0.0538
10295TIP3    H252301   5.159   4.752  11.680  0.5742 -0.4064  0.5642
10296TIP3   OH252302   5.916   2.919   5.098  0.1267 -0.1216  0.1825
10296TIP3    H152303   5.965   2.960   5.169  0.0321  2.1509 -0.9357
10296TIP3    H252304   5.979   2.863   5.054  2.0485  3.0652 -1.4947
10297TIP3   OH252305   3.599   1.799   4.668 -0.2981 -0.1597 -0.4617
10297TIP3    H152306   3.583   1.738   4.740  0.6153 -1.0467 -0.9892
10297TIP3    H252307   3.649   1.871   4.709  0.7802 -0.9648 -0.3181
10298TIP3   OH252308   4.113   6.509  13.137  0.0678  0.6338  0.0271
10298TIP3    H152309   4.204   6.499  13.163 -0.3156  2.0087  2.1816
10298TIP3    H252310   4.066   6.520  13.220 -1.5615  3.4623 -1.1241
10299TIP3   OH252311   2.788   4.842  11.659 -0.7268 -0.3039  0.1319
10299TIP3    H152312   2.746   4.756  11.669 -1.2621 -0.0017  0.5651
10299TIP3    H252313   2.793   4.855  11.564 -1.0735 -0.6053  0.0677
10300TIP3   OH252314   4.834   3.698   4.705 -0.0274  0.2360  0.5539
10300TIP3    H152315   4.788   3.614   4.703  0.5093 -0.0784  1.1547
10300TIP3    H252316   4.807   3.737   4.789 -2.3958  1.8967 -0.8484
10301TIP3   OH252317   0.233   2.946  10.242  0.0756  0.0408 -0.2269
10301TIP3    H152318   0.301   2.934  10.308  1.6840 -1.1333 -1.9844
10301TIP3    H252319   0.240   2.869  10.187 -1.5126  0.7610 -1.4947
10302TIP3   OH252320   4.620   3.249   1.005  0.4297 -0.2086  0.0194
10302TIP3    H152321   4.587   3.196   0.932  0.4276 -3.1160  1.9717
10302TIP3    H252322   4.652   3.185   1.069 -0.2913  2.1043  2.9358
10303TIP3   OH252323   2.070   1.775  16.695 -0.1045 -0.5965 -0.0664
10303TIP3    H152324   2.165   1.767  16.700  0.0573  0.9785 -0.2038
10303TIP3    H252325   2.053   1.804  16.605 -0.9002 -2.7548 -0.6857
10304TIP3   OH252326   3.867   4.005   4.199  0.4001  0.1823  0.0915
10304TIP3    H152327   3.906   3.968   4.119 -0.9628  0.4935 -0.7470
10304TIP3    H252328   3.933   4.067   4.231  0.1366  1.6409 -1.9962
10305TIP3   OH252329   4.221   5.683  13.107  0.5048 -0.1867  0.6959
10305TIP3    H152330   4.263   5.613  13.057  2.7549  0.4606  1.5883
10305TIP3    H252331   4.166   5.636  13.171 -0.3104 -1.0441 -0.5919
10306TIP3   OH252332   4.619   5.711   0.446 -0.1868  0.0863  0.5656
10306TIP3    H152333   4.658   5.781   0.499  0.2233 -0.3578  0.8581
10306TIP3    H252334   4.673   5.634   0.464 -0.4470 -0.2329  0.0078
10307TIP3   OH252335   3.697   3.147   2.597  0.5370  0.0473  0.1209
10307TIP3    H152336   3.658   3.082   2.538  0.8380 -1.9277  1.9979
10307TIP3    H252337   3.623   3.183   2.645  0.5307 -0.1885  0.2916
10308TIP3   OH252338   5.893   3.068  14.241 -0.5090 -0.1406 -0.4733
10308TIP3    H152339   5.855   3.147  14.205 -0.9970 -0.3079 -0.3287
10308TIP3    H252340   5.855   3.060  14.329  0.1620 -0.0914 -0.1704
10309TIP3   OH252341   3.175   3.504   6.547 -0.5894  0.3160 -0.0473
10309TIP3    H152342   3.163   3.446   6.622  1.2407 -1.0135 -0.7204
10309TIP3    H252343   3.091   3.500   6.501 -0.5949 -1.7150  0.0203
10310TIP3   OH252344   4.287   3.753  11.340  0.3636 -0.3836  0.3906
10310TIP3    H152345   4.286   3.812  11.415 -0.0700 -0.4341  0.4289
10310TIP3    H252346   4.236   3.677  11.368 -0.7280  0.0578 -0.3068
10311TIP3   OH252347   1.137   4.817   3.275  0.0445 -0.4167  0.0334
10311TIP3    H152348   1.128   4.777   3.189  0.9149 -1.8497  0.5593
10311TIP3    H252349   1.157   4.909   3.257 -1.3836 -0.3257 -1.2388
10312TIP3   OH252350   2.744   1.204   3.102 -0.0857 -0.3186 -0.7238
10312TIP3    H152351   2.838   1.213   3.085  0.3379  2.8698  2.2260
10312TIP3    H252352   2.738   1.205   3.198 -3.2304  1.5495 -0.8328
10313TIP3   OH252353   2.220   6.751  12.165  0.2062  0.5328 -0.2512
10313TIP3    H152354   2.291   6.716  12.218  0.2033 -0.1777 -0.6958
10313TIP3    H252355   2.243   6.843  12.151  0.5549  0.5508  0.3889
10314TIP3   OH252356   4.196   0.813  13.247 -0.0735 -0.1368  0.1866
10314TIP3    H152357   4.134   0.858  13.304 -2.0805 -1.5652 -0.7184
10314TIP3    H252358   4.223   0.879  13.184  0.6619  0.9516  1.5936
10315TIP3   OH252359   1.428   1.327   5.294  0.5170 -0.0513 -0.0194
10315TIP3    H152360   1.491   1.256   5.309 -0.3084 -0.8639 -0.2888
10315TIP3    H252361   1.468   1.381   5.226  0.7104 -0.8332 -0.5370
10316TIP3   OH252362   4.925   3.515  14.322 -0.1352  0.0597 -0.2874
10316TIP3    H152363   4.937   3.609  14.309  1.3416  0.5091  3.2011
10316TIP3    H252364   4.832   3.501  14.305 -0.0986  1.8007 -2.3570
10317TIP3   OH252365   4.362   1.092  17.056 -0.2090 -0.5678  0.1792
10317TIP3    H152366   4.457   1.081  17.048 -0.1183  0.8505 -1.0494
10317TIP3    H252367   4.352   1.163  17.120 -0.2763  1.3639 -1.8448
10318TIP3   OH252368   0.996   6.770  15.278  0.2064 -0.2732  0.2862
10318TIP3    H152369   0.951   6.794  15.198  0.6425  0.9042  0.3717
10318TIP3    H252370   1.051   6.696  15.253 -1.5824 -1.6019  0.1443
10319TIP3   OH252371   6.437   0.971   2.936  0.7388  0.2423  0.1180
10319TIP3    H152372   6.349   0.935   2.945  0.0040  1.9351 -0.0060
10319TIP3    H252373   6.469   0.935   2.853  0.0232 -0.0777 -0.0265
10320TIP3   OH252374   6.464   2.406  16.514 -0.5087 -0.1188  0.1772
10320TIP3    H152375   6.500   2.427  16.428 -2.7944  0.0442 -0.8123
10320TIP3    H252376   6.398   2.340  16.496 -0.2796 -0.8845  1.9822
10321TIP3   OH252377   4.695   0.050   5.749  0.2549  0.5722 -0.1936
10321TIP3    H152378   4.617   0.013   5.708  1.1177  0.4995 -1.8555
10321TIP3    H252379   4.668   0.138   5.776 -1.0560 -0.2711  1.4453
10322TIP3   OH252380   6.743   1.015   5.812 -0.6563 -0.1152 -0.0440
10322TIP3    H152381   6.725   1.097   5.767  0.4372  2.1557  3.2865
10322TIP3    H252382   6.783   0.959   5.745  0.6431  2.8522 -1.9542
10323TIP3   OH252383   2.418   0.363  11.244  1.2846 -0.2411 -0.5947
10323TIP3    H152384   2.501   0.350  11.197  0.5234 -2.0001 -1.5519
10323TIP3    H252385   2.355   0.310  11.196 -0.6282  1.6848 -0.3887
10324TIP3   OH252386   6.242   0.801   2.232 -0.0691 -0.6324  0.2014
10324TIP3    H152387   6.173   0.865   2.247  0.9967  0.7112 -0.4560
10324TIP3    H252388   6.273   0.818   2.143  0.1700 -2.1442 -0.0360
10325TIP3   OH252389   5.189   0.829  11.140  0.1751  0.2999 -0.0735
10325TIP3    H152390   5.240   0.905  11.111  0.8595 -0.6085 -1.3841
10325TIP3    H252391   5.251   0.777  11.191  1.3703 -1.8443 -3.3663
10326TIP3   OH252392   1.440   4.287  15.708  0.3824 -0.8249 -0.6310
10326TIP3    H152393   1.489   4.204  15.705  1.9735  0.0122  0.4102
10326TIP3    H252394   1.445   4.314  15.800  0.2245  0.6156 -1.0262
10327TIP3   OH252395   1.803   3.956   2.016  0.0381  0.8625 -0.0023
10327TIP3    H152396   1.823   3.863   2.006  1.0928  1.1092 -0.3608
10327TIP3    H252397   1.713   3.958   2.047  0.2621 -0.3106  0.8034
10328TIP3   OH252398   6.120   2.630   4.456  0.0417  0.1999 -0.2350
10328TIP3    H152399   6.210   2.646   4.486 -0.6008 -0.2775  2.1229
10328TIP3    H252400   6.105   2.698   4.390  2.0290  0.4632 -0.4902
10329TIP3   OH252401   3.647   3.230  16.017  0.9635  0.0869 -0.1224
10329TIP3    H152402   3.559   3.258  16.042  1.0914 -0.1548  0.6099
10329TIP3    H252403   3.640   3.135  16.007  1.4539 -0.1209  1.3052
10330TIP3   OH252404   0.826   2.142   4.263 -0.4225  0.3923  0.5924
10330TIP3    H152405   0.836   2.196   4.184 -2.9580  1.0209  0.6145
10330TIP3    H252406   0.778   2.198   4.324  0.7236 -0.4038  2.3004
10331TIP3   OH252407   1.454   0.349  12.866 -0.1468  0.3199 -0.5338
10331TIP3    H152408   1.447   0.284  12.797  1.2724 -0.5107  0.0503
10331TIP3    H252409   1.525   0.407  12.837  0.4808 -0.0542  0.2022
10332TIP3   OH252410   3.159   3.537  16.874  0.0155  0.2968  0.1644
10332TIP3    H152411   3.146   3.559  16.966 -0.8589  0.8492 -0.0819
10332TIP3    H252412   3.124   3.612  16.825 -0.4793 -0.4235 -0.6290
10333TIP3   OH252413   0.843   4.372   0.191  0.3539  0.0205 -0.2988
10333TIP3    H152414   0.773   4.411   0.138  1.1107 -0.8045 -1.9853
10333TIP3    H252415   0.917   4.432   0.182  0.0644  0.5740  0.9653
10334TIP3   OH252416   1.532   2.029   0.069 -0.2602  0.0062  0.3079
10334TIP3    H152417   1.532   2.047  -0.025 -0.3058 -0.5154  0.2089
10334TIP3    H252418   1.510   1.936   0.077  0.6937 -0.1908  0.7920
10335TIP3   OH252419   4.129   5.818  14.842  0.0458 -0.5970 -0.0025
10335TIP3    H152420   4.047   5.829  14.891  0.8954  0.8384  1.2065
10335TIP3    H252421   4.193   5.792  14.908  0.8887 -0.2037 -0.6413
10336TIP3   OH252422   3.887   6.569   2.651  0.3391  0.0159 -0.2489
10336TIP3    H152423   3.948   6.620   2.705  0.2679 -1.3080  1.1484
10336TIP3    H252424   3.943   6.514   2.596  0.4026  0.0193 -0.1873
10337TIP3   OH252425   3.295   2.513   1.669  0.0460  0.7341  0.0054
10337TIP3    H152426   3.390   2.513   1.674  0.1689  0.8317 -1.8860
10337TIP3    H252427   3.274   2.588   1.613 -1.1437  0.5808  0.2194
10338TIP3   OH252428   2.986   1.372  12.207  0.2213 -0.2900  0.1619
10338TIP3    H152429   3.049   1.300  12.204  0.7074  0.1486 -0.4675
10338TIP3    H252430   3.039   1.451  12.217 -0.2588  0.0392  0.1641
10339TIP3   OH252431   5.428   2.248   6.335  0.6310 -0.4187 -0.0696
10339TIP3    H152432   5.402   2.185   6.402 -0.2948  1.0781  1.0308
10339TIP3    H252433   5.403   2.333   6.370  0.6866  0.4775 -2.0533
10340TIP3   OH252434   5.235   4.577  15.595  0.0412  0.0410  0.6103
10340TIP3    H152435   5.326   4.550  15.606 -0.5732 -1.9685  1.1522
10340TIP3    H252436   5.226   4.594  15.502  0.3285 -2.5126  0.0357
10341TIP3   OH252437   3.254   0.996  15.728 -0.2814 -0.0179 -0.0916
10341TIP3    H152438   3.322   1.013  15.793 -0.5315  0.2529  0.1001
10341TIP3    H252439   3.275   0.910  15.693 -0.2660 -0.2537  0.4953
10342TIP3   OH252440   4.854   6.686  14.000  0.0892  0.0538  0.0825
10342TIP3    H152441   4.901   6.615  14.045  1.4206  1.7907  1.6138
10342TIP3    H252442   4.843   6.753  14.068 -1.2300  1.2705 -1.2720
10343TIP3   OH252443   1.910   0.107  11.347 -0.6235 -0.2478  0.0769
10343TIP3    H152444   2.005   0.101  11.338 -0.8140 -1.3571 -1.5869
10343TIP3    H252445   1.888   0.036  11.408 -0.5821 -1.5764 -1.3991
10344TIP3   OH252446   5.423   3.584  15.700 -0.6051 -0.5476  0.2401
10344TIP3    H152447   5.435   3.511  15.761 -2.9640 -1.2111  0.0172
10344TIP3    H252448   5.364   3.550  15.633  1.1668  0.4546 -1.9639
10345TIP3   OH252449   2.886   3.941   0.641  0.4578  0.2436 -0.7164
10345TIP3    H152450   2.807   3.903   0.603  0.7850 -0.9291 -0.2760
10345TIP3    H252451   2.854   3.991   0.717  0.2780 -2.2100  0.9532
10346TIP3   OH252452   2.111   3.192  13.947  0.3885  0.5368  0.2865
10346TIP3    H152453   2.168   3.119  13.923  0.9224  0.8644  0.5207
10346TIP3    H252454   2.039   3.151  13.994 -0.7173 -0.1218 -1.8586
10347TIP3   OH252455   5.597   3.912  15.365  0.5274  0.0496  0.5355
10347TIP3    H152456   5.524   3.972  15.377  0.3447  0.2456 -1.3436
10347TIP3    H252457   5.575   3.861  15.287  2.6166  0.4997 -0.4175
10348TIP3   OH252458   0.142   2.911   2.894  0.5343  0.7688 -0.4709
10348TIP3    H152459   0.109   2.913   2.804  0.5555 -1.3833 -0.5901
10348TIP3    H252460   0.235   2.931   2.886  0.8603 -0.8746 -1.1582
10349TIP3   OH252461   5.825   2.939   4.599 -0.0614 -0.1209 -0.1988
10349TIP3    H152462   5.783   2.940   4.685 -0.4584  2.2187 -0.3571
10349TIP3    H252463   5.919   2.941   4.619 -0.1534  1.8483  0.2569
10350TIP3   OH252464   1.594   2.515   5.231 -0.0376 -0.3620  0.3905
10350TIP3    H152465   1.543   2.463   5.170 -1.5056  0.9222  0.4695
10350TIP3    H252466   1.556   2.496   5.317 -1.4713  1.7288  0.2911
10351TIP3   OH252467   0.270   1.903  14.185  0.3070  0.5261  0.4467
10351TIP3    H152468   0.255   1.810  14.170 -0.7513  0.6918  0.4196
10351TIP3    H252469   0.272   1.941  14.097  1.3285  0.4585  0.4251
10352TIP3   OH252470   2.725   1.644  14.119  0.2540 -0.1590 -0.2195
10352TIP3    H152471   2.715   1.729  14.162 -0.8512 -0.9550  1.1410
10352TIP3    H252472   2.792   1.598  14.171  0.4160 -0.3579 -0.5982
10353TIP3   OH252473   5.239   0.489   2.746 -0.2907 -0.5122 -0.4887
10353TIP3    H152474   5.306   0.474   2.813 -0.1363  0.8760 -0.3102
10353TIP3    H252475   5.161   0.512   2.796 -0.4064 -0.3129 -0.7634
10354TIP3   OH252476   6.744   1.494  14.267  0.0438 -0.1805 -0.1520
10354TIP3    H152477   6.777   1.508  14.356 -0.7615 -2.5352  0.5907
10354TIP3    H252478   6.653   1.522  14.270 -0.5849 -2.1473  0.3948
10355TIP3   OH252479   4.053   5.574   5.264  0.0528 -0.4781 -0.0031
10355TIP3    H152480   4.130   5.519   5.281  0.8827 -0.5609 -3.3372
10355TIP3    H252481   3.987   5.513   5.231  0.0443  0.1262 -1.1517
10356TIP3   OH252482   1.563   2.010   4.894  0.7270 -0.4508  0.5217
10356TIP3    H152483   1.507   1.932   4.893 -0.0889  0.0953  1.6515
10356TIP3    H252484   1.620   1.999   4.817 -0.6560 -1.2113 -0.4534
10357TIP3   OH252485   0.046   3.478   5.838 -0.3332  0.2100 -0.1138
10357TIP3    H152486   0.054   3.396   5.790  3.0007 -1.5060  2.8677
10357TIP3    H252487  -0.018   3.461   5.907  0.1299  0.1397  0.3142
10358TIP3   OH252488   5.792   3.751  14.983  0.6903  0.3268  0.2422
10358TIP3    H152489   5.759   3.713  14.901  0.0310  1.2989  0.0376
10358TIP3    H252490   5.856   3.688  15.014 -0.4378 -1.0049 -0.0206
10359TIP3   OH252491   2.501   2.825   2.344 -0.0933 -0.6809 -0.5002
10359TIP3    H152492   2.579   2.831   2.289 -0.5006  0.5518 -0.9756
10359TIP3    H252493   2.515   2.746   2.397  1.6900 -0.2213 -0.2221
10360TIP3   OH252494   2.304   3.801  13.302 -0.3093  0.1711  0.2236
10360TIP3    H152495   2.220   3.760  13.283 -0.7536  1.4142 -0.6491
10360TIP3    H252496   2.346   3.742  13.365 -1.2040 -1.2223 -0.4308
10361TIP3   OH252497   6.489   6.153   6.035 -0.3135  0.2688  0.3645
10361TIP3    H152498   6.517   6.084   6.096 -1.0171 -1.5355 -1.2568
10361TIP3    H252499   6.512   6.235   6.080  2.5481 -0.9902  1.4566
10362TIP3   OH252500   1.460   5.598   2.627  0.5037 -0.0658  0.0664
10362TIP3    H152501   1.389   5.624   2.569 -0.2094 -0.6234  0.6767
10362TIP3    H252502   1.446   5.505   2.644 -2.1425  0.8632  4.8161
10363TIP3   OH252503   0.529   0.065  11.722 -0.5789  0.1466 -0.1174
10363TIP3    H152504   0.591   0.104  11.660  0.2395  1.8268  1.6490
10363TIP3    H252505   0.463   0.133  11.736 -0.9042 -0.3093  0.6500
10364TIP3   OH252506   0.900   0.881  14.252  0.2591  0.7261  0.3087
10364TIP3    H152507   0.892   0.836  14.336 -2.3205  2.7680  1.3103
10364TIP3    H252508   0.946   0.962  14.272 -0.3565  1.2217 -0.2196
10365TIP3   OH252509   6.571   0.017  10.469 -0.1628  0.4758 -0.4332
10365TIP3    H152510   6.547   0.105  10.498  0.1521 -0.3826  2.8463
10365TIP3    H252511   6.499  -0.039  10.499  0.1618 -0.5403 -1.4769
10366TIP3   OH252512   5.775   4.373   6.052 -0.8899 -0.0104  0.0590
10366TIP3    H152513   5.771   4.303   6.117  0.2296  1.1869  1.4802
10366TIP3    H252514   5.859   4.359   6.008 -0.1480  1.0229  1.0892
10367TIP3   OH252515   0.242   5.350  10.833  0.1635 -0.5818 -0.7888
10367TIP3    H152516   0.275   5.295  10.762  0.4347 -1.0641 -0.2950
10367TIP3    H252517   0.156   5.379  10.803  0.0761 -1.1656 -1.1134
10368TIP3   OH252518   6.704   1.419   0.152 -0.5150 -0.5474 -0.5055
10368TIP3    H152519   6.708   1.334   0.107 -0.4516 -0.9917  0.3235
10368TIP3    H252520   6.639   1.469   0.103 -1.5022 -1.5351 -0.2305
10369TIP3   OH252521   6.312   0.009  14.565 -0.4461  0.0296 -0.0202
10369TIP3    H152522   6.375  -0.056  14.534 -0.3219 -0.4043  1.0876
10369TIP3    H252523   6.232  -0.041  14.581 -0.6624  0.3343 -0.1571
10370TIP3   OH252524   2.223   4.574   2.565 -0.0748  0.1792  0.1778
10370TIP3    H152525   2.284   4.646   2.551  2.6140 -1.6956  1.3695
10370TIP3    H252526   2.173   4.599   2.642  0.5729  0.9234  0.3672
10371TIP3   OH252527   2.976   5.136   5.743  0.2680 -0.4091  0.2293
10371TIP3    H152528   2.888   5.116   5.776 -0.0130 -0.2424 -0.4097
10371TIP3    H252529   2.967   5.220   5.698  0.4179 -1.0820 -1.1191
10372TIP3   OH252530   5.892   5.659  16.774  0.3645  0.0580  0.0116
10372TIP3    H152531   5.824   5.677  16.839  0.6214 -0.6374  0.4830
10372TIP3    H252532   5.872   5.719  16.702 -0.2786  0.4189  0.4756
10373TIP3   OH252533   2.754   4.074   6.575 -0.6583 -0.5309  0.0814
10373TIP3    H152534   2.737   3.986   6.607 -2.1229 -0.0184  0.8296
10373TIP3    H252535   2.709   4.079   6.491 -1.4537 -0.2202  0.5044
10374TIP3   OH252536   5.566   5.916  11.149 -0.1265 -0.0057  0.2065
10374TIP3    H152537   5.662   5.916  11.153 -0.1233  0.0433  0.1206
10374TIP3    H252538   5.546   5.867  11.069 -0.1497  1.1024 -0.4772
10375TIP3   OH252539   0.910   5.054   2.872  0.5719  1.0578 -0.4552
10375TIP3    H152540   0.904   5.147   2.854 -0.9408  1.1855  0.5100
10375TIP3    H252541   1.003   5.038   2.890  0.6832  2.5944  0.4502
10376TIP3   OH252542   3.097   5.021  17.091 -0.2759 -0.0948 -0.7256
10376TIP3    H152543   3.128   4.935  17.066 -0.1369  0.2621 -1.8610
10376TIP3    H252544   3.001   5.014  17.087 -0.4163 -1.0291  2.2073
10377TIP3   OH252545   6.255   4.852   2.297 -0.2563  0.0476  0.0066
10377TIP3    H152546   6.184   4.907   2.264  1.4000  1.2291 -1.7717
10377TIP3    H252547   6.324   4.913   2.321  0.4906 -1.1114  0.9462
10378TIP3   OH252548   3.707   6.701   4.141  0.6761 -0.2546  0.4418
10378TIP3    H152549   3.673   6.717   4.053 -0.6908 -0.2881  0.9290
10378TIP3    H252550   3.628   6.696   4.196  1.5235  1.0454  1.8748
10379TIP3   OH252551   5.349   6.647   3.403  0.0015 -0.1187 -0.2929
10379TIP3    H152552   5.273   6.697   3.434  0.1260  1.7952 -2.7996
10379TIP3    H252553   5.333   6.558   3.435 -1.2499  1.0161  2.6441
10380TIP3   OH252554   5.330   5.403  10.729 -0.3138  0.0648 -0.4309
10380TIP3    H152555   5.296   5.377  10.814  1.0161  0.0405  0.1158
10380TIP3    H252556   5.425   5.399  10.739 -0.1338  0.1998 -1.8741
10381TIP3   OH252557   2.923   5.828  12.474  0.4634 -0.6737 -0.1900
10381TIP3    H152558   2.896   5.919  12.461  0.6796 -0.4753  0.6873
10381TIP3    H252559   2.959   5.802  12.389 -1.4701 -0.6136 -1.0735
10382TIP3   OH252560   1.155   4.264  16.502 -0.0096  0.4136  0.2076
10382TIP3    H152561   1.134   4.299  16.588  1.2293  2.2567 -0.1903
10382TIP3    H252562   1.130   4.333  16.441  0.8177 -0.1169 -0.7697
10383TIP3   OH252563   5.239   3.151  11.024  0.0666  0.0980 -0.2048
10383TIP3    H152564   5.221   3.245  11.025  4.1221  1.0725 -0.4455
10383TIP3    H252565   5.221   3.125  10.933 -2.1549  0.3229  0.1350
10384TIP3   OH252566   3.455   4.939  13.705 -0.2086  0.1746 -0.4055
10384TIP3    H152567   3.425   4.998  13.637  0.2434  3.3809  1.9625
10384TIP3    H252568   3.378   4.887  13.729 -1.1659  1.2119 -1.1820
10385TIP3   OH252569   1.647   5.334  14.643  0.2437 -0.4081 -0.1210
10385TIP3    H152570   1.611   5.413  14.683  0.4462  0.5209 -1.6851
10385TIP3    H252571   1.626   5.343  14.549  0.3646 -2.1638 -0.3480
10386TIP3   OH252572   4.797   3.004  14.873 -0.2345 -0.0064 -0.0371
10386TIP3    H152573   4.745   3.041  14.945  0.5954  1.9736 -0.4090
10386TIP3    H252574   4.882   2.985  14.913 -0.0275  0.3512 -0.3039
10387TIP3   OH252575   4.800   0.458   6.141  0.0779  0.3494 -0.6336
10387TIP3    H152576   4.822   0.380   6.191 -1.3118  0.2762 -0.0889
10387TIP3    H252577   4.851   0.451   6.061  1.1923 -0.2990  0.1154
10388TIP3   OH252578   3.345   1.911   4.921  0.5743 -0.5447  0.0254
10388TIP3    H152579   3.387   1.866   4.994  1.6342 -0.4265 -0.4746
10388TIP3    H252580   3.408   1.903   4.849  1.6140  3.0257  0.3039
10389TIP3   OH252581   6.730   0.757  11.550  0.3711 -0.2203  0.3989
10389TIP3    H152582   6.820   0.727  11.552  1.1467  1.6893 -1.4714
10389TIP3    H252583   6.717   0.798  11.636  1.9178  1.0566  0.0734
10390TIP3   OH252584   5.555   3.206  10.599  0.3576 -0.3951 -0.2786
10390TIP3    H152585   5.553   3.113  10.577 -0.3649 -0.6440  0.7722
10390TIP3    H252586   5.464   3.229  10.617  0.0257  1.2715 -3.4073
10391TIP3   OH252587   6.262   6.395  12.541 -0.0881 -0.2024  0.1112
10391TIP3    H152588   6.286   6.376  12.450  0.3824  3.1902 -0.6064
10391TIP3    H252589   6.307   6.476  12.561 -1.5047  0.0252  2.8694
10392TIP3   OH252590   0.553   1.779  14.672  0.5532  0.4204  0.4020
10392TIP3    H152591   0.508   1.863  14.667 -0.0780  0.0053 -1.7074
10392TIP3    H252592   0.483   1.714  14.669  1.1602 -0.2074 -0.9141
10393TIP3   OH252593   2.963   3.378  10.540  0.1657 -0.3789  0.9091
10393TIP3    H152594   2.965   3.447  10.473  1.5692 -0.9668  0.3175
10393TIP3    H252595   2.991   3.421  10.620 -1.2422  0.2620  1.1006
10394TIP3   OH252596   1.860   4.836  13.106  0.0002 -0.5482 -0.1304
10394TIP3    H152597   1.790   4.784  13.147 -2.4338  1.8814 -0.9364
10394TIP3    H252598   1.910   4.871  13.180 -1.9063  0.5560  0.7160
10395TIP3   OH252599   1.887   5.991  14.155  0.0472  0.3876 -0.0879
10395TIP3    H152600   1.943   6.029  14.223 -0.7135 -1.3237  1.6147
10395TIP3    H252601   1.941   5.922  14.116  0.7565  1.8750 -1.8242
10396TIP3   OH252602   3.433   5.526  12.474 -0.0493 -0.1448  0.0955
10396TIP3    H152603   3.495   5.454  12.479 -1.3578 -1.3037  0.4796
10396TIP3    H252604   3.419   5.551  12.565 -0.7237 -0.4421  0.0839
10397TIP3   OH252605   4.530   6.523  14.555 -0.5028  0.4334  0.0300
10397TIP3    H152606   4.507   6.430  14.550 -0.3780  0.3911  0.2220
10397TIP3    H252607   4.448   6.566  14.578 -0.4477  0.3099  0.4680
10398TIP3   OH252608   0.949   5.362  12.294  0.4366  0.1445 -0.3447
10398TIP3    H152609   0.917   5.410  12.218 -2.4156 -0.9662  0.0212
10398TIP3    H252610   1.007   5.295  12.258 -0.6810 -0.2175 -1.5520
10399TIP3   OH252611   5.592   2.672   0.692 -0.2533 -0.0856 -0.4749
10399TIP3    H152612   5.574   2.593   0.744 -0.3077 -1.2013 -2.1334
10399TIP3    H252613   5.526   2.670   0.622  0.3187  0.9552 -1.0554
10400TIP3   OH252614   0.288   6.517  15.556  0.3969 -0.0268  0.5735
10400TIP3    H152615   0.235   6.439  15.573 -0.3445  0.3589  0.0809
10400TIP3    H252616   0.337   6.495  15.476  2.0524 -0.9110  1.7829
10401TIP3   OH252617   0.282   3.128  11.951 -0.6394 -0.2147  0.4617
10401TIP3    H152618   0.304   3.059  11.888 -1.6414  0.8952 -1.1505
10401TIP3    H252619   0.320   3.097  12.034  1.0027 -1.5483 -0.7285
10402TIP3   OH252620   4.848   1.268  13.041 -0.0500 -0.1341 -0.2482
10402TIP3    H152621   4.918   1.205  13.057 -0.7741 -0.4273  2.0978
10402TIP3    H252622   4.885   1.353  13.067  0.6091  0.3456 -2.5232
10403TIP3   OH252623   0.017   4.663   3.480  0.0140  0.3857 -0.5005
10403TIP3    H152624  -0.057   4.615   3.519  1.4898 -1.1792  0.5046
10403TIP3    H252625  -0.003   4.755   3.499 -2.6348  0.2388 -2.0199
10404TIP3   OH252626   0.298   0.143   4.654 -0.1065  0.4652  0.5470
10404TIP3    H152627   0.227   0.204   4.635  1.0269  1.6036 -0.2739
10404TIP3    H252628   0.330   0.169   4.740 -1.9353 -1.3655  1.8597
10405TIP3   OH252629   2.524   2.051  15.283 -0.0563  0.3987 -0.1171
10405TIP3    H152630   2.570   1.977  15.243  3.1892  1.7876  0.7325
10405TIP3    H252631   2.519   2.116  15.213  0.9085  0.8965  0.2641
10406TIP3   OH252632   3.897   2.227   4.480 -0.1141  0.0811 -0.6014
10406TIP3    H152633   3.897   2.138   4.514 -0.6928 -0.1423 -1.1642
10406TIP3    H252634   3.967   2.271   4.528 -0.6451 -0.3204  0.5746
10407TIP3   OH252635   4.790   1.827   1.723  0.0353  0.3003 -0.0045
10407TIP3    H152636   4.710   1.802   1.677  0.6158 -0.1755 -0.7954
10407TIP3    H252637   4.848   1.860   1.654  0.0320  1.9919  0.7365
10408TIP3   OH252638   2.607   1.401  13.255  0.4193  0.4326  0.2762
10408TIP3    H152639   2.682   1.388  13.313 -0.4095 -0.2395  1.2184
10408TIP3    H252640   2.599   1.496  13.246  1.7105  0.5128 -0.2945
10409TIP3   OH252641   0.032   4.903   0.965  0.1081 -0.3407 -0.0971
10409TIP3    H152642   0.127   4.893   0.971  0.3919  1.0029 -1.5497
10409TIP3    H252643   0.015   4.908   0.870 -1.3939 -0.5135  0.1449
10410TIP3   OH252644   4.237   4.887   3.926 -0.6993 -0.4523  0.0101
10410TIP3    H152645   4.267   4.822   3.862 -0.1919 -0.6125  0.4025
10410TIP3    H252646   4.298   4.960   3.916 -2.5119  0.9157 -1.9173
10411TIP3   OH252647   3.684   2.639  12.968 -0.3137  0.9760  0.3796
10411TIP3    H152648   3.718   2.716  13.014  2.2058 -1.7132  3.4702
10411TIP3    H252649   3.750   2.619  12.902  1.3493 -0.8753  2.4760
10412TIP3   OH252650   1.100   4.411  13.122 -0.2431 -0.1096 -0.8192
10412TIP3    H152651   1.033   4.355  13.161  0.8341 -1.9023 -1.3678
10412TIP3    H252652   1.071   4.500  13.138 -1.7207 -0.8234  0.7146
10413TIP3   OH252653   1.032   2.380  14.977  0.4330  0.0517  0.5889
10413TIP3    H152654   0.971   2.343  14.914 -0.5742  2.2878  0.1531
10413TIP3    H252655   1.053   2.307  15.036  0.4444 -1.7641 -1.5467
10414TIP3   OH252656   4.763   2.285   6.233 -0.9827 -0.2817 -0.3884
10414TIP3    H152657   4.739   2.292   6.140 -0.7178  0.2008 -0.4246
10414TIP3    H252658   4.854   2.256   6.231 -0.8540  0.1042 -0.2896
10415TIP3   OH252659   5.482   3.928  13.349  0.0331  0.2057  0.3627
10415TIP3    H152660   5.411   3.931  13.414 -0.8014  3.4352 -0.5273
10415TIP3    H252661   5.561   3.947  13.399 -0.5054  1.9601  0.6110
10416TIP3   OH252662   4.201   4.291   2.093  0.4636 -0.3905 -0.1687
10416TIP3    H152663   4.113   4.252   2.093  0.3897 -0.2592  0.8079
10416TIP3    H252664   4.185   4.383   2.112  0.8151 -0.3831  0.0890
10417TIP3   OH252665   1.996   1.614   4.075  0.5300  0.7147  0.3043
10417TIP3    H152666   2.048   1.692   4.093 -0.8220  1.8062 -0.2743
10417TIP3    H252667   1.975   1.620   3.982  1.2209 -0.8832  0.0148
10418TIP3   OH252668   2.131   6.403  15.356  0.9357 -0.4079  0.2207
10418TIP3    H152669   2.219   6.370  15.338  1.6424  0.8947  1.0715
10418TIP3    H252670   2.106   6.451  15.277  1.6060  0.4416  0.5185
10419TIP3   OH252671   4.984   5.547   0.741 -0.0727  0.3053  0.0216
10419TIP3    H152672   4.937   5.577   0.664  1.9011 -0.2557 -1.5030
10419TIP3    H252673   4.977   5.451   0.738 -0.9393  0.3183  1.2055
10420TIP3   OH252674   3.480   6.122   4.566 -0.7931  0.3518 -0.2334
10420TIP3    H152675   3.573   6.143   4.571 -0.2532 -2.0904  1.1779
10420TIP3    H252676   3.446   6.183   4.500  2.0383  0.4494 -1.7757
10421TIP3   OH252677   1.168   1.975  14.122  0.2184 -0.1334  0.3661
10421TIP3    H152678   1.107   1.955  14.193 -0.4005  0.5012  0.0299
10421TIP3    H252679   1.179   1.893  14.075  0.6117 -0.5527  1.1755
10422TIP3   OH252680   3.119   4.377   5.276 -0.4746 -0.1293 -0.1004
10422TIP3    H152681   3.041   4.365   5.223 -1.4563 -0.4434  1.3730
10422TIP3    H252682   3.096   4.343   5.362  0.8018  1.0651  0.7678
10423TIP3   OH252683   4.223   5.592   5.545 -0.0310  0.1632 -0.1203
10423TIP3    H152684   4.252   5.556   5.461  1.4549 -0.5644  0.6569
10423TIP3    H252685   4.130   5.570   5.550 -0.3126  0.8028 -1.8502
10424TIP3   OH252686   4.214   6.742  13.294  0.9368  0.0739  0.2487
10424TIP3    H152687   4.291   6.798  13.285  1.7383 -1.2054 -1.6485
10424TIP3    H252688   4.217   6.685  13.217 -0.5582 -1.6607  1.3742
10425TIP3   OH252689   2.949   1.108  14.326  0.0708 -0.6321  0.6626
10425TIP3    H152690   3.035   1.141  14.349  0.9407 -1.1703 -1.5317
10425TIP3    H252691   2.959   1.013  14.327 -1.6917 -0.9505  4.3703
10426TIP3   OH252692   6.659   6.201  14.945  0.2440 -0.0114 -0.3521
10426TIP3    H152693   6.614   6.182  14.863  3.5047 -0.8881 -2.0894
10426TIP3    H252694   6.696   6.118  14.973 -0.4760  0.3488  1.8802
10427TIP3   OH252695   0.565   3.481   1.500 -0.0729  0.4748  0.4741
10427TIP3    H152696   0.642   3.436   1.465 -0.8632 -1.2469  0.8179
10427TIP3    H252697   0.601   3.554   1.550  1.1826  1.3900 -1.6394
10428TIP3   OH252698   0.529   1.360  13.109 -0.5556 -0.6364  0.0399
10428TIP3    H152699   0.496   1.407  13.185 -0.1454  0.4821 -0.4578
10428TIP3    H252700   0.529   1.425  13.038 -2.9123 -2.1181 -1.4907
10429TIP3   OH252701   3.358   3.774  13.860  0.1527 -0.2310  0.1876
10429TIP3    H152702   3.442   3.732  13.878 -0.8187 -1.9225  1.0737
10429TIP3    H252703   3.309   3.765  13.942 -1.5880 -1.0408 -0.8829
10430TIP3   OH252704   2.006   1.743   3.498 -0.5722  0.1235 -0.0205
10430TIP3    H152705   1.926   1.744   3.445 -0.5760 -1.6553 -0.0965
10430TIP3    H252706   2.077   1.731   3.434 -0.4259 -0.2701  0.2098
10431TIP3   OH252707   6.366   1.200   1.797  0.4573 -0.2742 -0.0857
10431TIP3    H152708   6.272   1.205   1.816  0.5995 -2.8045  1.9729
10431TIP3    H252709   6.373   1.216   1.703 -2.4621 -3.0262 -0.9640
10432TIP3   OH252710   4.070   1.850   2.017  0.7123 -0.1357 -0.1886
10432TIP3    H152711   4.098   1.846   1.926  0.6469 -3.1506 -0.1882
10432TIP3    H252712   3.985   1.805   2.018 -0.8375  2.6049  0.9171
10433TIP3   OH252713   5.597   5.532  15.637 -0.1345 -0.5297  0.4784
10433TIP3    H152714   5.569   5.591  15.707 -1.8037 -1.4074  0.5898
10433TIP3    H252715   5.573   5.444  15.668  0.7888 -1.1218 -0.4036
10434TIP3   OH252716   5.403   3.592   0.551  0.2510 -0.1801 -0.2562
10434TIP3    H152717   5.391   3.604   0.645  1.0994  2.2834 -0.4094
10434TIP3    H252718   5.425   3.679   0.518 -0.6172 -0.8576 -2.8409
10435TIP3   OH252719   1.245   5.248   5.516 -0.1783  0.0700  0.1839
10435TIP3    H152720   1.260   5.156   5.538 -2.8470 -0.5283 -0.0451
10435TIP3    H252721   1.177   5.275   5.578  0.2420  1.7680 -0.0560
10436TIP3   OH252722   2.651   1.112  12.880  0.2859 -0.3423 -0.3595
10436TIP3    H152723   2.687   1.031  12.843  2.0974  0.2367  0.0897
10436TIP3    H252724   2.702   1.182  12.840 -0.7320  0.5639 -0.1237
10437TIP3   OH252725   3.363   0.039  15.696 -0.2034  0.3736  0.2674
10437TIP3    H152726   3.420  -0.014  15.752  1.1550  0.9678 -0.5190
10437TIP3    H252727   3.311   0.091  15.758  2.0561  1.8599  1.0278
10438TIP3   OH252728   3.724   6.459  11.668  0.0692  0.0756 -0.3539
10438TIP3    H152729   3.773   6.377  11.672  0.1014  0.0574 -1.0219
10438TIP3    H252730   3.692   6.473  11.757  1.0363 -0.0661  0.0237
10439TIP3   OH252731   4.630   4.565   2.717  0.2290 -0.0679 -0.4084
10439TIP3    H152732   4.697   4.551   2.650 -0.1360  0.5564 -0.9122
10439TIP3    H252733   4.553   4.519   2.683 -0.9660  2.8867 -2.0515
10440TIP3   OH252734   2.988   0.411  13.054 -0.4162  0.0238 -0.2708
10440TIP3    H152735   2.933   0.450  12.985  2.0971  2.1892 -1.2379
10440TIP3    H252736   3.055   0.362  13.006 -0.8355 -1.7070  0.8417
10441TIP3   OH252737   2.739   3.960   3.979  0.4025  0.0372  0.2693
10441TIP3    H152738   2.808   4.000   4.032  1.2038 -1.3144  0.2708
10441TIP3    H252739   2.739   3.868   4.005  0.8056 -0.6616 -2.0291
10442TIP3   OH252740   1.453   2.356  12.283  0.5919 -0.3835 -0.3944
10442TIP3    H152741   1.435   2.439  12.329  0.9506 -1.1025  1.1077
10442TIP3    H252742   1.382   2.298  12.311  2.0516 -1.5368  1.1456
10443TIP3   OH252743   6.530   1.537  16.909 -0.2473 -0.5845  0.1382
10443TIP3    H152744   6.455   1.585  16.872  0.5488  0.1357 -0.5855
10443TIP3    H252745   6.490   1.468  16.961 -1.4711  1.4973  2.1427
10444TIP3   OH252746   3.917   3.150  16.000  0.0800  0.3853 -0.3601
10444TIP3    H152747   3.841   3.201  15.973 -0.4348  0.1490  0.6025
10444TIP3    H252748   3.884   3.092  16.068  0.6988 -1.0788 -1.2445
10445TIP3   OH252749   6.474   0.451  17.171  0.1600  0.4183  0.3565
10445TIP3    H152750   6.432   0.524  17.126 -0.6886 -0.2637  0.0290
10445TIP3    H252751   6.467   0.474  17.264  3.9802  2.9896  0.2526
10446TIP3   OH252752   6.646   5.768   5.629  0.0650 -1.1793 -0.2283
10446TIP3    H152753   6.561   5.726   5.613 -0.4311  0.0676 -0.9326
10446TIP3    H252754   6.630   5.861   5.614  1.8167 -1.0399 -1.4447
10447TIP3   OH252755   4.300   2.490  14.197 -0.5960 -0.4195 -0.0120
10447TIP3    H152756   4.394   2.479  14.214 -0.2628  0.2701 -1.2382
10447TIP3    H252757   4.276   2.413  14.146 -0.0688  0.5988 -1.8969
10448TIP3   OH252758   5.248   4.624   2.365 -0.6308 -0.0989 -0.3779
10448TIP3    H152759   5.205   4.568   2.430  0.0776 -0.1296  0.0683
10448TIP3    H252760   5.314   4.568   2.325 -1.1637 -0.1317 -1.2522
10449TIP3   OH252761   2.807   2.380  11.866 -0.2599  0.4264  0.0524
10449TIP3    H152762   2.751   2.324  11.919  0.4994  1.6839  2.3242
10449TIP3    H252763   2.815   2.334  11.782 -1.4103 -1.7411  1.0562
10450TIP3   OH252764   0.237   0.238   5.012  0.2170  0.1725 -0.5565
10450TIP3    H152765   0.332   0.244   5.019  0.4010  1.3749 -2.9876
10450TIP3    H252766   0.204   0.304   5.073  0.9561 -0.0487  0.0827
10451TIP3   OH252767   1.547   0.458   5.484 -0.2135  0.3837  0.4114
10451TIP3    H152768   1.619   0.517   5.505 -0.6256  0.8368  0.5696
10451TIP3    H252769   1.577   0.410   5.407 -0.4488  1.8183 -0.5942
10452TIP3   OH252770   4.342   3.276  17.087  0.2140  0.2552 -0.0125
10452TIP3    H152771   4.419   3.260  17.033 -0.6522 -1.8971 -0.7294
10452TIP3    H252772   4.330   3.194  17.135 -0.9551  0.9730  0.9705
10453TIP3   OH252773   1.550   6.551   1.467  0.1330 -0.3531  0.3351
10453TIP3    H152774   1.570   6.502   1.547  0.7888 -0.3398  0.1794
10453TIP3    H252775   1.584   6.638   1.482 -1.7767  0.3460  0.9486
10454TIP3   OH252776   4.427   0.528   5.582 -0.8098  0.7596 -0.2036
10454TIP3    H152777   4.482   0.593   5.624  0.1855 -0.6509  0.7684
10454TIP3    H252778   4.346   0.575   5.559  0.2365  2.5197 -0.4055
10455TIP3   OH252779   3.149   1.519  15.862 -0.3901 -0.7775 -0.3769
10455TIP3    H152780   3.082   1.583  15.836  0.1046  0.2924  0.8672
10455TIP3    H252781   3.208   1.514  15.786 -1.7577 -1.6386 -1.4378
10456TIP3   OH252782   0.064   1.062  15.521 -0.0012  0.1507  0.1942
10456TIP3    H152783   0.029   1.125  15.458  1.4914 -0.0344 -0.8732
10456TIP3    H252784   0.049   1.102  15.606 -0.8867  1.0093 -0.3469
10457TIP3   OH252785   1.554   1.233  12.899 -0.8220 -0.2993 -0.3089
10457TIP3    H152786   1.536   1.248  12.992  0.8089  0.4157 -0.0800
10457TIP3    H252787   1.562   1.321  12.862  2.3770 -0.4743 -0.2859
10458TIP3   OH252788   4.401   0.405  16.140  0.2053 -0.2283 -0.0003
10458TIP3    H152789   4.384   0.363  16.224 -2.6259  0.6805  0.0096
10458TIP3    H252790   4.418   0.332  16.080  0.6211 -1.0013  1.0257
10459TIP3   OH252791   3.516   5.631  13.856  0.2140 -0.0304 -0.0755
10459TIP3    H152792   3.488   5.577  13.782  0.7977 -1.7689  0.8956
10459TIP3    H252793   3.564   5.704  13.817 -1.1646  0.1720 -1.4750
10460TIP3   OH252794   1.679   3.652  17.121  0.3802  0.5632 -0.0266
10460TIP3    H152795   1.585   3.668  17.133  0.2146 -0.0058 -0.5166
10460TIP3    H252796   1.718   3.670  17.206 -0.4992 -1.6116  0.8994
10461TIP3   OH252797   2.298   6.628   0.783 -0.0741  0.1133  0.3374
10461TIP3    H152798   2.240   6.704   0.788 -1.0797 -0.6961  1.6943
10461TIP3    H252799   2.280   6.590   0.697  1.4416  2.1237 -0.9533
10462TIP3   OH252800   5.799   0.286   2.405 -0.1945  0.3748  0.8318
10462TIP3    H152801   5.770   0.260   2.318 -0.1321  0.9983  0.6221
10462TIP3    H252802   5.718   0.306   2.452 -0.1514  2.2232  0.2126
10463TIP3   OH252803   0.756   0.894   2.552 -0.4395  0.3490  0.3912
10463TIP3    H152804   0.712   0.977   2.537 -1.6776 -0.6210 -1.7542
10463TIP3    H252805   0.841   0.903   2.509 -0.9132  0.2403 -0.5883
10464TIP3   OH252806   2.598   5.726   4.038  0.2349 -0.2133 -0.1074
10464TIP3    H152807   2.505   5.702   4.043 -0.3908  1.9372 -0.0981
10464TIP3    H252808   2.610   5.753   3.947  0.0973  2.0650  0.4944
10465TIP3   OH252809   0.317   6.191  14.384 -0.0133 -0.3224  0.4271
10465TIP3    H152810   0.233   6.193  14.430 -0.0129 -0.0349  0.4151
10465TIP3    H252811   0.383   6.201  14.453  0.0205 -0.7115  0.4555
10466TIP3   OH252812   1.968   5.453   1.953 -0.2392 -0.1260  0.1981
10466TIP3    H152813   2.049   5.403   1.960 -1.5993 -2.4764  0.1244
10466TIP3    H252814   1.917   5.426   2.029 -1.3673  0.5274 -0.3016
10467TIP3   OH252815   0.484   4.608   2.557 -0.2349  0.4093  0.3831
10467TIP3    H152816   0.546   4.576   2.622 -0.6688 -0.4840  0.3752
10467TIP3    H252817   0.400   4.611   2.604 -0.6776 -0.8614 -0.3030
10468TIP3   OH252818   1.309   1.477   4.956  0.2685 -0.1148  0.1731
10468TIP3    H152819   1.235   1.489   5.016  0.1100  0.4083 -0.1280
10468TIP3    H252820   1.271   1.483   4.869  0.5478 -0.6064  0.0115
10469TIP3   OH252821   1.209   3.065  11.596 -0.2010  1.0104  0.3186
10469TIP3    H152822   1.184   3.007  11.524  1.4409 -0.6180  0.9731
10469TIP3    H252823   1.259   3.135  11.554  0.3375  0.3304 -0.1932
10470TIP3   OH252824   0.285   2.256  11.751 -0.0384 -0.5361  0.2920
10470TIP3    H152825   0.378   2.270  11.773  0.0608  0.6784 -0.7569
10470TIP3    H252826   0.287   2.230  11.659 -0.6646 -2.0401  0.6770
10471TIP3   OH252827   2.986   1.420   4.878  0.0571 -0.3018  0.0129
10471TIP3    H152828   3.039   1.471   4.818 -0.4017 -0.2255 -0.3287
10471TIP3    H252829   3.031   1.335   4.884  0.9558  0.2118  0.7806
10472TIP3   OH252830   6.573   1.978   1.012  0.0715  0.0974  0.3887
10472TIP3    H152831   6.596   1.932   1.092 -0.9287 -0.1098  0.5673
10472TIP3    H252832   6.634   1.944   0.946 -1.0381 -2.0029  0.3613
10473TIP3   OH252833   2.022   6.282   2.320 -0.1339  0.1962  0.4587
10473TIP3    H152834   2.044   6.328   2.239 -0.1465  0.1969  0.4554
10473TIP3    H252835   2.002   6.352   2.383 -0.7061  0.1778  0.2967
10474TIP3   OH252836   0.210   0.927  14.994  0.6282 -0.3238  1.0165
10474TIP3    H152837   0.302   0.951  15.005  0.7492 -0.3808  0.1951
10474TIP3    H252838   0.203   0.900  14.903 -0.2607 -0.0735  1.0009
10475TIP3   OH252839   4.353   5.978  11.322 -0.3871 -0.2855  0.0855
10475TIP3    H152840   4.319   5.933  11.244  1.4401 -1.0375 -0.3280
10475TIP3    H252841   4.280   5.977  11.384 -2.0090  0.5893 -1.6810
10476TIP3   OH252842   4.810   5.498   0.477  0.0390  0.2153  0.1761
10476TIP3    H152843   4.855   5.415   0.494 -0.6248  0.0133  1.0439
10476TIP3    H252844   4.855   5.535   0.401  2.3579  0.5305  1.6140
10477TIP3   OH252845   3.151   5.067   0.618 -0.0873  0.3415 -0.9469
10477TIP3    H152846   3.195   5.152   0.626 -1.4120  1.0508 -1.0094
10477TIP3    H252847   3.058   5.087   0.622 -0.4271 -1.3264  1.2027
10478TIP3   OH252848   0.323   1.583  14.809  0.4595  0.2367 -0.7138
10478TIP3    H152849   0.271   1.539  14.742  0.3356 -0.4178 -0.2062
10478TIP3    H252850   0.369   1.512  14.854 -0.6700  0.4625  0.9159
10479TIP3   OH252851   3.706   5.014  14.684  0.4285 -0.0721  0.0004
10479TIP3    H152852   3.706   4.995  14.591  4.8942 -1.0040 -0.0110
10479TIP3    H252853   3.705   5.110  14.689 -0.5633 -0.0171 -0.9228
10480TIP3   OH252854   1.181   3.488  14.241 -0.1170  0.2506 -0.6768
10480TIP3    H152855   1.255   3.534  14.280 -0.7864  0.7510  0.0054
10480TIP3    H252856   1.107   3.507  14.298 -1.0222  0.6355 -1.9418
10481TIP3   OH252857   5.948   2.937   2.676  0.6276  0.1925 -0.3713
10481TIP3    H152858   6.014   2.901   2.617  0.8854 -0.2023  0.1481
10481TIP3    H252859   5.965   3.031   2.677  0.5270  0.2265 -1.0301
10482TIP3   OH252860   5.270   0.735  13.325 -0.5695  0.9516 -0.1202
10482TIP3    H152861   5.183   0.759  13.357  0.0912  2.1883  0.8619
10482TIP3    H252862   5.321   0.719  13.405 -0.4413 -2.0607 -0.6910
10483TIP3   OH252863   3.933   6.606   1.804 -0.3567  0.2299  0.1239
10483TIP3    H152864   4.015   6.634   1.762 -0.0216 -0.7949  0.0616
10483TIP3    H252865   3.871   6.676   1.784  0.4620  0.9578  0.0485
10484TIP3   OH252866   6.376   0.844   3.212 -0.2090  0.0972 -0.2645
10484TIP3    H152867   6.304   0.880   3.161 -0.5745  0.1922  0.3018
10484TIP3    H252868   6.454   0.862   3.161 -0.7558 -1.8612 -1.9294
10485TIP3   OH252869   4.286   4.467  15.178  0.0100  0.2494  0.6642
10485TIP3    H152870   4.352   4.408  15.140  0.0634  0.5327  0.3114
10485TIP3    H252871   4.335   4.547  15.196 -0.9435  1.9666 -3.2284
10486TIP3   OH252872   0.068   3.737  15.034  0.1208  0.0633 -0.1158
10486TIP3    H152873   0.019   3.693  15.103  1.1586  0.6289  1.0200
10486TIP3    H252874   0.157   3.743  15.068  0.5878  0.6442 -1.3775
10487TIP3   OH252875   2.973   0.010   2.979  0.0541 -0.1881 -0.1704
10487TIP3    H152876   3.067  -0.004   2.966  0.2863  1.0418 -0.0055
10487TIP3    H252877   2.959   0.100   2.950 -0.9327 -0.1082  0.5167
10488TIP3   OH252878   4.528   6.282   3.577 -0.2537  0.2397 -0.0163
10488TIP3    H152879   4.597   6.313   3.519 -0.4957 -2.1175 -1.7193
10488TIP3    H252880   4.448   6.325   3.544 -0.2927 -0.6175 -1.0918
10489TIP3   OH252881   5.248   5.694  12.116 -0.3908  0.0621  0.6417
10489TIP3    H152882   5.198   5.758  12.166 -0.4010 -0.9556  1.9787
10489TIP3    H252883   5.182   5.641  12.072 -0.3868  0.7980 -0.2828
10490TIP3   OH252884   5.991   4.692  12.174  0.7192  0.6280 -0.1893
10490TIP3    H152885   6.000   4.779  12.213 -0.1728  1.1850 -1.1700
10490TIP3    H252886   6.018   4.704  12.083  2.9211 -0.6795  0.2059
10491TIP3   OH252887   4.422   5.672  17.140 -0.4315  0.1019 -0.8623
10491TIP3    H152888   4.500   5.726  17.150 -0.9221  0.6311  0.2672
10491TIP3    H252889   4.448   5.604  17.078  0.9040  0.2955 -0.5517
10492TIP3   OH252890   3.395   5.498   1.416 -0.3349  0.2407 -0.0302
10492TIP3    H152891   3.340   5.425   1.445  0.5744 -0.2384  0.5355
10492TIP3    H252892   3.485   5.466   1.424  0.0424  0.9861 -0.9942
10493TIP3   OH252893   0.564   6.163   1.320 -0.2501  0.1834 -0.1157
10493TIP3    H152894   0.530   6.172   1.231 -2.1038 -0.2933  0.4834
10493TIP3    H252895   0.485   6.153   1.374  0.8584 -0.2068  1.4924
10494TIP3   OH252896   3.898   4.896   3.003  0.5765  0.7244  0.2312
10494TIP3    H152897   3.940   4.825   2.955 -1.1952  0.4592 -0.9909
10494TIP3    H252898   3.898   4.867   3.094  0.0831 -0.7615 -0.2189
10495TIP3   OH252899   6.521   0.332   0.538  0.0740 -0.0657 -0.4896
10495TIP3    H152900   6.456   0.266   0.561  0.2693  0.3027  1.2452
10495TIP3    H252901   6.591   0.283   0.495  0.4128 -1.0744  1.1378
10496TIP3   OH252902   3.851   5.622   0.910  0.7042  0.4899  0.6025
10496TIP3    H152903   3.933   5.599   0.955  0.5016  0.6881  1.0720
10496TIP3    H252904   3.793   5.652   0.979 -0.6686 -2.0511  0.6444
10497TIP3   OH252905   6.529   0.070   0.694 -0.3143  0.2917 -0.2743
10497TIP3    H152906   6.443   0.080   0.654 -0.1765 -0.0878 -0.6685
10497TIP3    H252907   6.591   0.076   0.621  0.2309  3.5195  0.2895
10498TIP3   OH252908   3.245   3.174  10.423 -0.3717  0.3616 -0.2116
10498TIP3    H152909   3.166   3.205  10.380 -1.0541  0.2093  0.9120
10498TIP3    H252910   3.275   3.248  10.476 -0.7812 -0.1673  0.7709
10499TIP3   OH252911   1.411   0.348  16.722 -0.2365  0.3890 -0.4077
10499TIP3    H152912   1.395   0.257  16.745 -0.6264  0.7344  0.7601
10499TIP3    H252913   1.419   0.393  16.806  4.1492  0.7750 -0.7952
10500TIP3   OH252914   5.780   6.492   5.683  0.0290 -0.1874  0.6099
10500TIP3    H152915   5.866   6.532   5.669  0.5055 -1.5719 -0.6235
10500TIP3    H252916   5.733   6.507   5.602  0.4216 -2.5203 -0.1197
10501TIP3   OH252917   6.424   6.393   6.240 -0.5123  0.1582 -1.0129
10501TIP3    H152918   6.359   6.420   6.304 -1.6272 -0.1346 -1.9910
10501TIP3    H252919   6.422   6.461   6.173  2.2605  1.6762  0.2694
10502TIP3   OH252920   4.224   2.723   1.547  0.1773 -0.7629 -0.0182
10502TIP3    H152921   4.187   2.806   1.515 -0.3130 -1.1006 -0.3398
10502TIP3    H252922   4.275   2.748   1.624  1.3673  0.0634 -1.0439
10503TIP3   OH252923   5.509   1.288  15.875  0.5228  0.4426  0.0313
10503TIP3    H152924   5.485   1.363  15.928 -2.5362 -0.4638  0.1252
10503TIP3    H252925   5.443   1.285  15.806  0.1607 -2.4466  0.3808
10504TIP3   OH252926   5.670   5.556   0.832  0.5064  0.2731 -0.1137
10504TIP3    H152927   5.606   5.498   0.873 -0.6429  0.4277 -1.5951
10504TIP3    H252928   5.632   5.644   0.839  1.5222  0.6610  0.7747
10505TIP3   OH252929   5.589   5.045  14.730 -0.4006 -0.2958  0.1039
10505TIP3    H152930   5.626   5.132  14.711  1.6279 -0.9379  0.7782
10505TIP3    H252931   5.592   5.040  14.826  0.0319 -1.3124  0.0419
10506TIP3   OH252932   6.702   2.601   0.904 -0.1692  0.1253 -0.2123
10506TIP3    H152933   6.733   2.674   0.849  0.8258  0.3209  0.5896
10506TIP3    H252934   6.620   2.633   0.941  1.5492  1.9935  2.2840
10507TIP3   OH252935   6.304   3.934  14.174 -0.0783 -0.1933  0.0502
10507TIP3    H152936   6.269   3.845  14.181 -0.7772  0.2093  2.8305
10507TIP3    H252937   6.399   3.922  14.172 -0.1863 -1.0240 -1.1114
10508TIP3   OH252938   2.583   3.021   0.711  0.2042 -0.0940 -0.4276
10508TIP3    H152939   2.545   2.980   0.633 -1.6931 -1.6928  1.2290
10508TIP3    H252940   2.510   3.067   0.752  1.5693  2.2705 -0.4624
10509TIP3   OH252941   1.751   5.188  16.482  0.4111  0.2006 -0.6480
10509TIP3    H152942   1.672   5.219  16.525  0.6926  1.3799 -0.9294
10509TIP3    H252943   1.724   5.170  16.391  0.5998  1.3094 -0.9410
10510TIP3   OH252944   1.763   1.304  12.062  0.4438  0.4022 -0.1087
10510TIP3    H152945   1.745   1.258  12.144  2.8829  1.1738  0.9605
10510TIP3    H252946   1.677   1.327  12.028 -0.6508  0.3493  2.4002
10511TIP3   OH252947   3.727   0.659   1.248 -0.1380 -0.6547  0.0828
10511TIP3    H152948   3.634   0.645   1.235 -0.7215  1.2185  1.7927
10511TIP3    H252949   3.742   0.750   1.222  1.6038 -1.3872 -1.8232
10512TIP3   OH252950   1.001   2.893   5.441 -0.2534 -0.1483 -0.1830
10512TIP3    H152951   1.075   2.953   5.432  0.1481 -0.7052 -0.7119
10512TIP3    H252952   0.959   2.918   5.523  1.1623 -0.5209  0.6901
10513TIP3   OH252953   1.683   6.056   5.176  0.1165  0.1385 -0.5243
10513TIP3    H152954   1.725   6.083   5.094  3.1579 -2.4265 -0.0450
10513TIP3    H252955   1.711   6.121   5.240  4.4548 -1.7975 -0.0776
10514TIP3   OH252956   5.519   5.792  16.483  0.6198 -0.3866 -0.3892
10514TIP3    H152957   5.514   5.734  16.407  2.3748 -1.3511  0.1973
10514TIP3    H252958   5.573   5.746  16.546  0.7023  1.1877  0.7606
10515TIP3   OH252959   6.552   3.900  12.618  1.3574 -0.3465  0.1797
10515TIP3    H152960   6.506   3.924  12.538  2.1462 -0.0244 -0.1914
10515TIP3    H252961   6.538   3.805  12.626  3.0336 -0.8039 -1.5368
10516TIP3   OH252962   4.005   0.963  11.731  0.4307  0.5815 -0.3037
10516TIP3    H152963   3.994   1.040  11.676  0.5624 -0.1219 -1.3650
10516TIP3    H252964   4.024   0.997  11.818  2.3381  1.7824 -1.1115
10517TIP3   OH252965   0.194   5.211  11.792 -0.4467  0.2379 -0.2983
10517TIP3    H152966   0.106   5.231  11.760 -0.7411 -1.1354 -0.4193
10517TIP3    H252967   0.186   5.125  11.834  1.0683 -0.4590 -1.3250
10518TIP3   OH252968   4.075   1.674   1.149 -0.1576 -0.2186 -0.0671
10518TIP3    H152969   4.031   1.687   1.065 -1.3477  0.2283  0.6073
10518TIP3    H252970   4.007   1.641   1.208  1.2926 -3.5000  0.0030
10519TIP3   OH252971   5.931   2.703  15.401 -0.2822 -0.2238  0.1979
10519TIP3    H152972   5.934   2.776  15.464  1.8637  0.8229 -0.9822
10519TIP3    H252973   5.954   2.626  15.453  0.7002  0.4995  0.8874
10520TIP3   OH252974   1.949   3.079  13.546 -0.6480 -0.0455  0.1373
10520TIP3    H152975   1.858   3.076  13.575 -0.2936 -0.3361  1.2660
10520TIP3    H252976   1.989   3.147  13.600  0.7695 -2.6696  2.6328
10521TIP3   OH252977   6.266   0.758   5.185 -0.3724 -0.2275  0.3463
10521TIP3    H152978   6.349   0.751   5.231 -0.3146 -1.1686  0.1088
10521TIP3    H252979   6.290   0.763   5.092 -0.5792 -0.6856  0.2644
10522TIP3   OH252980   0.578   5.076   5.044 -0.3607  0.0474 -0.3161
10522TIP3    H152981   0.570   5.061   4.950 -0.5346 -0.2702 -0.2506
10522TIP3    H252982   0.660   5.125   5.053  1.7177 -3.1304 -0.3232
10523TIP3   OH252983   5.855   0.100  12.693 -0.0404  0.5519 -0.2773
10523TIP3    H152984   5.868   0.084  12.599 -0.4080  1.0244 -0.4140
10523TIP3    H252985   5.807   0.024  12.724  0.2699  0.2908 -0.4249
10524TIP3   OH252986   4.346   2.087  12.033  0.3209 -0.1983 -0.0799
10524TIP3    H152987   4.266   2.043  12.003 -0.0601 -0.9524  1.9035
10524TIP3    H252988   4.410   2.017  12.041  0.9457  0.2720 -0.7848
10525TIP3   OH252989   3.010   6.134   2.055  0.3144 -0.0252  0.0362
10525TIP3    H152990   3.082   6.077   2.028 -1.3414 -1.4917 -1.5545
10525TIP3    H252991   3.049   6.221   2.062  2.0794 -0.6364 -1.4476
10526TIP3   OH252992   6.516   2.753  15.556  0.2859 -0.1657 -0.4777
10526TIP3    H152993   6.434   2.774  15.512 -0.0119 -1.0433 -0.3542
10526TIP3    H252994   6.529   2.660  15.540  0.8635 -0.1997  0.1415
10527TIP3   OH252995   2.114   1.701   2.652  0.3805  0.1256 -0.4612
10527TIP3    H152996   2.195   1.659   2.624 -0.3327 -0.6144 -1.4668
10527TIP3    H252997   2.056   1.628   2.675 -0.9729  0.5047 -2.4767
10528TIP3   OH252998   2.041   0.754   4.398 -0.3769  0.1515  0.4790
10528TIP3    H152999   1.975   0.824   4.397 -1.3437 -0.7327 -0.1238
10528TIP3    H253000   2.039   0.719   4.309  0.3500 -0.4071  0.6822
10529TIP3   OH253001   5.576   6.172  14.081 -0.4813 -0.2087 -0.1995
10529TIP3    H153002   5.641   6.206  14.020  0.8603 -0.1202  1.2053
10529TIP3    H253003   5.532   6.102  14.033  1.9153 -1.5099 -0.6487
10530TIP3   OH253004   3.823   4.527  11.748  0.1776  0.1684  0.1069
10530TIP3    H153005   3.784   4.441  11.733  1.5235 -0.5462  0.4543
10530TIP3    H253006   3.892   4.510  11.812  1.0310  1.3435 -0.4685
10531TIP3   OH253007   2.188   0.825   1.494 -0.0632 -0.2000 -0.0634
10531TIP3    H153008   2.102   0.866   1.483  0.5472  1.1374 -0.0442
10531TIP3    H253009   2.227   0.872   1.568  0.9171 -0.3976 -0.4457
10532TIP3   OH253010   5.865   2.987   1.793 -0.1614  0.2549  0.1652
10532TIP3    H153011   5.808   2.955   1.724 -0.9407  1.0555  0.4152
10532TIP3    H253012   5.816   2.970   1.874 -0.2484  1.3314  0.3543
10533TIP3   OH253013   6.590   1.990  13.346  0.8800 -0.0112  0.1127
10533TIP3    H153014   6.502   1.958  13.366  1.5327 -0.4767  2.4881
10533TIP3    H253015   6.601   2.066  13.403  3.0401 -1.7079  2.1431
10534TIP3   OH253016   5.858   5.277   2.572 -0.0455  0.0454  0.1598
10534TIP3    H153017   5.948   5.285   2.604  0.6768  0.5863 -1.8266
10534TIP3    H253018   5.860   5.199   2.515 -1.5666 -1.5922  2.1973
10535TIP3   OH253019   6.459   3.884  11.245  0.6105 -0.6768  0.4244
10535TIP3    H153020   6.448   3.941  11.168  1.3188 -1.3692 -0.2050
10535TIP3    H253021   6.370   3.865  11.274  0.3391 -0.1944 -0.0698
10536TIP3   OH253022   3.039   1.007  10.800 -0.5274 -0.5799  0.6315
10536TIP3    H153023   3.112   0.948  10.817  1.2472  1.6828  1.3245
10536TIP3    H253024   3.067   1.059  10.725 -2.2081 -0.7953 -0.2026
10537TIP3   OH253025   5.537   3.124  12.603 -0.2583  0.0083 -0.3215
10537TIP3    H153026   5.597   3.199  12.599 -1.1394  0.6887 -1.6085
10537TIP3    H253027   5.569   3.065  12.535  1.3634 -1.5794  1.6878
10538TIP3   OH253028   3.541   2.976   2.820  0.0089  0.1540  0.2045
10538TIP3    H153029   3.631   2.963   2.792  0.0838  0.0375  0.4935
10538TIP3    H253030   3.538   2.939   2.908 -0.1224  0.8571  0.5085
10539TIP3   OH253031   1.948   5.259  14.044  0.3767 -0.0192  0.5123
10539TIP3    H153032   1.940   5.259  13.949 -1.0277  1.1472  0.6063
10539TIP3    H253033   1.901   5.337  14.073 -1.4419 -1.6764  2.3171
10540TIP3   OH253034   5.210   2.533  13.342 -0.3267  0.2378  0.5930
10540TIP3    H153035   5.232   2.595  13.412 -1.5566 -0.0073  1.2252
10540TIP3    H253036   5.140   2.576  13.293 -1.2430 -0.6612  1.0848
10541TIP3   OH253037   2.886   5.626  11.979  0.2754 -0.1005  0.1102
10541TIP3    H153038   2.896   5.646  12.072 -1.4412 -0.7975  0.4757
10541TIP3    H253039   2.917   5.536  11.970  1.0548  0.1869 -0.1255
10542TIP3   OH253040   2.850   1.803   4.840 -0.3636  0.0492  0.0858
10542TIP3    H153041   2.811   1.766   4.919  0.3527  1.0264  0.9294
10542TIP3    H253042   2.943   1.814   4.862 -0.1145  0.1711 -0.9638
10543TIP3   OH253043   1.766   3.516  15.404 -0.1537 -0.0029  0.2094
10543TIP3    H153044   1.844   3.479  15.362 -0.7356  0.2542 -1.1326
10543TIP3    H253045   1.769   3.481  15.493  2.0965  0.8990  0.5706
10544TIP3   OH253046   2.807   4.620  12.208 -0.0288 -0.0342 -0.0465
10544TIP3    H153047   2.834   4.697  12.257  1.6446 -2.2898  2.9153
10544TIP3    H253048   2.814   4.547  12.270 -2.8993 -2.4643 -2.2036
10545TIP3   OH253049   5.015   1.830   2.224  0.4854  0.3101 -0.1918
10545TIP3    H153050   5.094   1.820   2.278 -0.2894  0.5748  1.0458
10545TIP3    H253051   4.943   1.827   2.287 -0.4562  0.7906 -1.2140
10546TIP3   OH253052   0.148   3.797   2.520  0.6126 -0.0381 -0.0514
10546TIP3    H153053   0.092   3.729   2.559 -1.3752  0.6446 -1.5556
10546TIP3    H253054   0.211   3.748   2.467 -0.0147 -0.7597 -0.1534
10547TIP3   OH253055   3.673   0.418  16.313  0.7135 -1.1679 -0.1423
10547TIP3    H153056   3.623   0.499  16.297 -1.4947 -2.2622  0.8166
10547TIP3    H253057   3.764   0.447  16.321  0.1733  1.0316 -1.2226
10548TIP3   OH253058   0.032   4.399   5.577 -0.6599 -0.0861 -0.2010
10548TIP3    H153059   0.022   4.424   5.669  0.7904  0.0968 -0.0722
10548TIP3    H253060   0.019   4.304   5.576  0.3936 -0.2546  0.3850
10549TIP3   OH253061   3.172   0.624  15.864 -0.3961  0.0318 -0.0984
10549TIP3    H153062   3.171   0.529  15.871 -0.8037  0.0233 -0.2709
10549TIP3    H253063   3.187   0.654  15.954  1.1059 -0.2126 -0.2381
10550TIP3   OH253064   0.051   5.370  15.736 -0.3910  0.2922 -0.1669
10550TIP3    H153065   0.043   5.436  15.668  0.3004  0.0086 -0.5387
10550TIP3    H253066   0.096   5.297  15.694 -1.4689 -0.5761  0.1314
10551TIP3   OH253067   0.043   1.146  14.884 -0.3115  0.2520  0.8832
10551TIP3    H153068   0.114   1.091  14.916 -0.5619 -0.3700  0.3812
10551TIP3    H253069   0.086   1.210  14.826 -0.3806 -1.5096 -1.2295
10552TIP3   OH253070   4.215   4.549   0.095 -0.5781  0.1355  0.2905
10552TIP3    H153071   4.253   4.467   0.126 -0.7574 -0.0887 -0.0930
10552TIP3    H253072   4.290   4.598   0.061 -0.4187  0.2753  0.8309
10553TIP3   OH253073   4.795   1.146  14.370 -0.1790 -0.4766  0.1725
10553TIP3    H153074   4.785   1.199  14.449  0.6523 -1.1603  0.7635
10553TIP3    H253075   4.888   1.154  14.347  0.4137 -2.9914  1.2871
10554TIP3   OH253076   3.983   4.132   3.381  0.2682 -0.2452  0.4485
10554TIP3    H153077   3.970   4.222   3.350  0.1244 -0.4512 -0.1166
10554TIP3    H253078   3.904   4.086   3.353 -0.0564 -0.3510  1.5167
10555TIP3   OH253079   6.412   5.109   1.125  0.1471  0.5436  0.1876
10555TIP3    H153080   6.423   5.014   1.113 -1.1706  0.0610  2.2822
10555TIP3    H253081   6.500   5.145   1.110  0.5259 -0.8778 -1.3987
10556TIP3   OH253082   2.219   6.184   5.169 -0.1789 -0.0918 -0.0629
10556TIP3    H153083   2.310   6.173   5.196 -0.1887  1.3520  0.6057
10556TIP3    H253084   2.214   6.272   5.134 -1.5231  0.1884  0.7540
10557TIP3   OH253085   5.513   5.061  12.415  0.2738  0.2782 -0.4206
10557TIP3    H153086   5.462   5.041  12.337 -0.6726 -0.7797  0.4482
10557TIP3    H253087   5.511   4.981  12.467 -0.2598  1.3602  1.3140
10558TIP3   OH253088   6.438   0.733  11.750  0.2459  0.1097 -0.2732
10558TIP3    H153089   6.453   0.805  11.689  3.5208 -0.3517 -0.1956
10558TIP3    H253090   6.507   0.741  11.815  0.1621 -2.5522  0.2748
10559TIP3   OH253091   3.997   5.946   5.510 -0.6278 -0.1154 -0.2722
10559TIP3    H153092   3.989   5.896   5.429  1.6503 -0.3792 -0.4101
10559TIP3    H253093   3.934   6.017   5.501 -0.4347 -0.1505 -2.2637
10560TIP3   OH253094   5.486   0.567  12.898  0.4564  0.8101 -0.6679
10560TIP3    H153095   5.483   0.642  12.957 -0.0449 -0.9455  1.6876
10560TIP3    H253096   5.579   0.542  12.896  0.2228 -0.5231  1.4152
10561TIP3   OH253097   6.678   6.196   0.744 -0.2603 -0.4310  0.3092
10561TIP3    H153098   6.629   6.233   0.817 -0.1251 -0.1110  0.2399
10561TIP3    H253099   6.754   6.254   0.734  0.2558 -1.0528  0.5682
10562TIP3   OH253100   0.745   4.312   6.234 -0.5915  0.4907 -0.8822
10562TIP3    H153101   0.819   4.371   6.248  0.6199 -0.1814 -3.8361
10562TIP3    H253102   0.668   4.369   6.242  0.4336  2.0051 -1.3578
10563TIP3   OH253103   1.745   5.163   2.559  0.4969  0.4574 -0.1755
10563TIP3    H153104   1.732   5.200   2.471  0.4520 -0.2027 -0.4532
10563TIP3    H253105   1.793   5.231   2.606  0.1516  0.9980 -0.5769
10564TIP3   OH253106   6.350   4.641  12.945  0.3867  0.1831 -0.4417
10564TIP3    H153107   6.399   4.559  12.956 -0.9048 -0.5015  0.5394
10564TIP3    H253108   6.414   4.710  12.964  1.2613 -0.6308 -0.3637
10565TIP3   OH253109   3.489   6.699   5.680 -0.1897  0.0403 -0.5554
10565TIP3    H153110   3.431   6.774   5.695 -0.4595  0.0899 -1.7297
10565TIP3    H253111   3.536   6.721   5.599  0.3854 -0.6612 -0.4208
10566TIP3   OH253112   2.647   6.053  11.995 -0.1297  0.6548 -0.3175
10566TIP3    H153113   2.590   6.089  11.927 -0.8238  1.6577  0.7456
10566TIP3    H253114   2.587   6.031  12.067  0.6481  0.2008  0.2085
10567TIP3   OH253115   2.538   1.570  16.007  0.3639 -0.1006 -0.1747
10567TIP3    H153116   2.604   1.572  15.938  0.6900  1.2388  0.1344
10567TIP3    H253117   2.478   1.500  15.982  2.6643 -2.3755  0.2840
10568TIP3   OH253118   6.497   2.481   1.447 -0.0389 -0.2436 -0.5257
10568TIP3    H153119   6.551   2.541   1.395 -1.0182  1.6831  0.5674
10568TIP3    H253120   6.470   2.533   1.523 -3.9907 -0.8067 -1.3058
10569TIP3   OH253121   0.943   6.115  14.018  0.1432 -0.3283  0.3022
10569TIP3    H153122   0.925   6.063  14.096  1.4080 -1.3244 -0.0265
10569TIP3    H253123   0.897   6.070  13.948  0.8196 -0.7443  0.1086
10570TIP3   OH253124   5.486   0.147  15.491  0.0312  0.0321  0.5294
10570TIP3    H153125   5.572   0.169  15.454  1.0791 -1.5661  1.8647
10570TIP3    H253126   5.476   0.054  15.474 -0.6714 -0.1622  1.8818
10571TIP3   OH253127   2.218   1.611  15.822 -0.3119 -0.3535  0.0696
10571TIP3    H153128   2.181   1.543  15.765 -2.1581 -1.1023  2.0249
10571TIP3    H253129   2.303   1.576  15.849  0.1465 -0.4276 -1.4070
10572TIP3   OH253130   2.354   1.239  15.557  0.2699  0.2506 -0.2609
10572TIP3    H153131   2.409   1.197  15.492 -0.2428 -1.3123  0.2788
10572TIP3    H253132   2.311   1.167  15.603 -3.9489  1.3063 -2.0680
10573TIP3   OH253133   3.756   1.062  16.706  1.0608  0.0095  0.2301
10573TIP3    H153134   3.753   1.144  16.656  0.6224 -0.2879 -0.2345
10573TIP3    H253135   3.827   1.012  16.666  0.0235 -0.6685 -0.7874
10574TIP3   OH253136   2.209   3.442   1.637  0.4814 -0.4256 -0.0925
10574TIP3    H153137   2.269   3.515   1.623  0.3611  0.4681  3.1687
10574TIP3    H253138   2.263   3.364   1.628  0.7965  0.0072 -2.7844
10575TIP3   OH253139   5.374   2.468  13.761  0.8671 -0.1558 -0.3206
10575TIP3    H153140   5.351   2.533  13.827  1.4268  0.9808 -1.1980
10575TIP3    H253141   5.446   2.418  13.800 -0.2247 -0.9258  0.7494
10576TIP3   OH253142   6.758   2.439  10.507  0.1647  0.7422 -0.4312
10576TIP3    H153143   6.754   2.533  10.490 -2.1083  0.8432  0.3454
10576TIP3    H253144   6.673   2.406  10.478 -0.2938 -0.5507  2.1506
10577TIP3   OH253145   3.859   2.571   5.482  0.3055 -0.1832 -0.4421
10577TIP3    H153146   3.817   2.598   5.400  0.3023 -1.3963 -0.8765
10577TIP3    H253147   3.925   2.638   5.499 -1.2949  1.3873 -0.1214
10578TIP3   OH253148   0.262   3.228   4.650 -0.2769  0.2557 -0.9491
10578TIP3    H153149   0.260   3.194   4.739  0.1210  1.4745 -0.4508
10578TIP3    H253150   0.208   3.168   4.599 -0.4843 -0.4640  0.1121
10579TIP3   OH253151   2.051   6.758   1.575 -0.1867  0.1021  0.6582
10579TIP3    H153152   2.022   6.768   1.666 -1.3756 -0.1034  0.3283
10579TIP3    H253153   2.093   6.841   1.554  1.0340 -0.2272  1.7067
10580TIP3   OH253154   0.903   2.674  10.163 -0.3755 -0.1960  0.1112
10580TIP3    H153155   0.928   2.588  10.127 -0.2118  0.3870 -1.2361
10580TIP3    H253156   0.916   2.665  10.257 -0.1009 -1.5690 -0.0349
10581TIP3   OH253157   0.797   2.209  13.967  0.4828  0.3038  0.3101
10581TIP3    H153158   0.821   2.139  13.906 -1.0289 -1.2165  1.3486
10581TIP3    H253159   0.715   2.178  14.007 -0.3298  2.7554  0.7119
10582TIP3   OH253160   4.946   3.850  14.028  0.1340  0.1642  0.8954
10582TIP3    H153161   4.888   3.925  14.044 -0.4055 -0.4110  1.7451
10582TIP3    H253162   4.934   3.831  13.935 -0.4255  0.5570  0.8784
10583TIP3   OH253163   6.226   0.649  16.776  0.2446 -0.0482  0.2230
10583TIP3    H153164   6.195   0.716  16.715  0.6172  0.2973  0.4074
10583TIP3    H253165   6.177   0.570  16.753  1.0759 -0.1883 -1.1448
10584TIP3   OH253166   5.622   5.454   3.936  0.0459 -0.0803 -0.2200
10584TIP3    H153167   5.624   5.428   4.028  0.3408 -1.4665 -0.5826
10584TIP3    H253168   5.544   5.508   3.928  1.2642  2.0236  1.2999
10585TIP3   OH253169   4.928   0.153  14.118 -0.4402 -0.6782 -0.7015
10585TIP3    H153170   4.997   0.163  14.184  1.3253 -0.1799 -2.5284
10585TIP3    H253171   4.848   0.179  14.163  0.9365  1.2936  0.7780
10586TIP3   OH253172   0.837   2.652  12.450  0.2802 -0.5576 -0.3861
10586TIP3    H153173   0.930   2.647  12.428  1.6327  1.8403  3.7535
10586TIP3    H253174   0.811   2.741  12.427 -0.0772 -0.2130  1.2031
10587TIP3   OH253175   0.749   1.121  15.382 -0.5774  0.1031 -0.0669
10587TIP3    H153176   0.796   1.121  15.465  0.9494  2.1267 -0.8511
10587TIP3    H253177   0.670   1.172  15.400 -0.9698 -0.6802  0.4803
10588TIP3   OH253178   3.643   2.850   4.846  0.7552  0.6716 -0.0776
10588TIP3    H153179   3.648   2.865   4.751 -3.2140  1.8411 -0.3155
10588TIP3    H253180   3.617   2.759   4.855 -0.8539  1.0768 -0.3159
10589TIP3   OH253181   4.169   1.849   6.171  0.3034 -0.1282  0.1761
10589TIP3    H153182   4.119   1.910   6.117 -0.7389 -1.0310  0.0957
10589TIP3    H253183   4.210   1.904   6.238 -0.7648  0.6314  0.2257
10590TIP3   OH253184   3.254   0.054   0.666 -0.6726 -0.7390  0.1318
10590TIP3    H153185   3.321   0.020   0.724 -0.9136 -0.9812  0.2721
10590TIP3    H253186   3.178   0.069   0.723 -1.2516 -1.9630 -0.2872
10591TIP3   OH253187   1.723   6.028   0.806 -0.2846 -0.2796 -0.0380
10591TIP3    H153188   1.756   5.938   0.800 -0.9574 -0.4975 -0.6869
10591TIP3    H253189   1.799   6.083   0.789 -0.0149 -0.7487 -0.3869
10592TIP3   OH253190   3.055   2.902  11.607 -0.1193  0.4901  0.0484
10592TIP3    H153191   2.999   2.833  11.643 -0.0730  0.2166 -0.3993
10592TIP3    H253192   3.103   2.936  11.683 -0.4854  0.3516  0.3455
10593TIP3   OH253193   6.788   4.716   5.792 -0.1547  0.0156  0.0776
10593TIP3    H153194   6.767   4.626   5.815 -1.5298  0.4991  0.8625
10593TIP3    H253195   6.709   4.766   5.815  0.9238  1.5701  0.6108
10594TIP3   OH253196   4.779   4.825  14.524  0.1892 -0.3136  0.2572
10594TIP3    H153197   4.711   4.765  14.492  0.1220  0.3930 -0.9944
10594TIP3    H253198   4.840   4.769  14.572  0.3851 -1.4913 -1.2752
10595TIP3   OH253199   1.596   2.109  11.762 -0.0178  0.1000  0.3747
10595TIP3    H153200   1.532   2.045  11.791  0.2417 -0.1630  0.3805
10595TIP3    H253201   1.661   2.112  11.832  0.6472 -0.5914 -0.1923
10596TIP3   OH253202   5.200   4.537  14.466 -0.1748 -0.3535 -0.2050
10596TIP3    H153203   5.247   4.453  14.467  0.9004  0.2418  0.0739
10596TIP3    H253204   5.109   4.512  14.450 -0.1442 -1.7088  1.4247
10597TIP3   OH253205   5.323   5.482  12.414 -0.0021  0.3069  0.4505
10597TIP3    H153206   5.340   5.416  12.482 -1.1944 -0.6725 -0.1586
10597TIP3    H253207   5.232   5.468  12.389  0.5226  0.3014 -1.6918
10598TIP3   OH253208   3.011   2.772   5.955  0.3386  0.4255 -0.5484
10598TIP3    H153209   2.916   2.767   5.939  0.3079 -0.7801 -0.1181
10598TIP3    H253210   3.021   2.844   6.016 -0.3118  0.5192 -0.5385
10599TIP3   OH253211   2.088   2.004   3.976 -0.0603  0.3733 -0.0904
10599TIP3    H153212   2.083   1.958   4.060  1.6945 -1.1290 -0.7418
10599TIP3    H253213   2.153   2.073   3.990  2.3992 -1.6064 -0.8410
10600TIP3   OH253214   2.678   2.115   1.102 -0.0750 -0.0916  0.4855
10600TIP3    H153215   2.692   2.195   1.153 -0.2042 -0.6821  1.4819
10600TIP3    H253216   2.754   2.061   1.121  0.3748  0.0732 -0.7654
10601TIP3   OH253217   3.514   5.192  13.856 -0.1041  0.1925 -0.2885
10601TIP3    H153218   3.596   5.215  13.813 -0.7726  1.6981 -0.8106
10601TIP3    H253219   3.513   5.096  13.855  0.3063  0.1375 -2.9347
10602TIP3   OH253220   5.812   5.645  13.704 -0.0525  0.0020 -0.0534
10602TIP3    H153221   5.769   5.725  13.734  1.6657  0.3919  1.5417
10602TIP3    H253222   5.802   5.646  13.608 -1.6710  1.1282  0.0973
10603TIP3   OH253223   3.997   0.763  11.544  0.3695  0.0955 -0.0927
10603TIP3    H153224   4.036   0.836  11.591  2.2508 -0.6917 -0.3688
10603TIP3    H253225   4.054   0.688  11.561 -0.8445 -1.0508 -0.7763
10604TIP3   OH253226   1.037   1.427  14.656 -0.2423  0.5730 -0.0107
10604TIP3    H153227   1.072   1.509  14.689  2.8168 -0.9874  1.0249
10604TIP3    H253228   1.029   1.440  14.562 -1.0273  2.4084  0.2837
10605TIP3   OH253229   2.974   2.307  16.612  0.6762 -0.0272 -0.4992
10605TIP3    H153230   2.950   2.369  16.681 -0.7462  0.9407 -1.7927
10605TIP3    H253231   2.928   2.226  16.635 -1.2449  0.8082 -1.1707
10606TIP3   OH253232   5.972   0.714   3.415  0.2597 -0.1665 -0.5683
10606TIP3    H153233   5.894   0.673   3.377  0.0641  0.3827 -0.7655
10606TIP3    H253234   6.011   0.645   3.469 -0.7221 -0.2583  0.0662
10607TIP3   OH253235   0.140   5.678   2.938  0.4235  0.2937  0.4810
10607TIP3    H153236   0.229   5.698   2.907  0.2689 -0.1187 -0.2546
10607TIP3    H253237   0.122   5.590   2.904 -0.3895  0.5066  0.3379
10608TIP3   OH253238   5.850   4.193   2.840 -0.2555  0.4196  0.3303
10608TIP3    H153239   5.855   4.279   2.799 -0.3835  0.5971  0.6855
10608TIP3    H253240   5.759   4.165   2.826  0.2484 -0.5007 -1.4690
10609TIP3   OH253241   6.475   2.245   6.230 -0.1078 -0.0993 -0.8595
10609TIP3    H153242   6.485   2.165   6.178 -0.2142 -1.5078  1.1589
10609TIP3    H253243   6.558   2.254   6.277 -0.4776  0.3570 -0.2758
10610TIP3   OH253244   2.014   1.834  16.431 -0.3650  0.4345  0.0114
10610TIP3    H153245   2.000   1.800  16.343  1.3445 -0.5735  0.0856
10610TIP3    H253246   2.047   1.923  16.418 -1.2416  0.7250 -0.3034
10611TIP3   OH253247   4.895   6.012  13.690  0.4206 -0.4577  0.1095
10611TIP3    H153248   4.904   6.102  13.659  0.5881 -0.3803  0.3783
10611TIP3    H253249   4.984   5.980  13.696  0.3068 -1.0848 -1.2548
10612TIP3   OH253250   5.418   0.449   1.321  0.4392  0.2022  0.4393
10612TIP3    H153251   5.372   0.411   1.396 -0.5001  0.8863  0.2398
10612TIP3    H253252   5.410   0.383   1.252  0.4545 -0.0264  0.6565
10613TIP3   OH253253   4.173   5.478  13.995 -0.2613  0.1842 -0.0055
10613TIP3    H153254   4.225   5.551  13.961 -0.9925 -0.2475 -2.2022
10613TIP3    H253255   4.235   5.426  14.046  0.4240  1.9313  1.0186
10614TIP3   OH253256   4.109   0.460  11.511 -0.5315 -0.2549  0.9300
10614TIP3    H153257   4.117   0.448  11.417 -2.9663  0.1869  0.6071
10614TIP3    H253258   4.109   0.371  11.547  0.4120 -0.4248  0.5422
10615TIP3   OH253259   2.244   2.253  15.529 -0.3708 -0.8911 -0.2571
10615TIP3    H153260   2.320   2.305  15.503 -1.9985  1.4371 -0.7302
10615TIP3    H253261   2.213   2.214  15.448 -0.0510 -1.3477 -0.1650
10616TIP3   OH253262   5.331   5.052  12.732  0.1673  0.0587 -0.5143
10616TIP3    H153263   5.417   5.012  12.719  0.4098  0.9323 -1.6521
10616TIP3    H253264   5.330   5.128  12.674 -1.0359  0.5852  0.1599
10617TIP3   OH253265   1.889   3.940   5.416  0.1598  0.5283  0.3855
10617TIP3    H153266   1.942   4.017   5.437  3.0407 -1.5319  1.3265
10617TIP3    H253267   1.912   3.876   5.484 -1.0036 -1.6609 -1.1732
10618TIP3   OH253268   2.927   5.903  13.735 -0.2648  0.1475  0.0266
10618TIP3    H153269   2.841   5.944  13.739  0.2623  1.2102  1.0203
10618TIP3    H253270   2.979   5.950  13.800  0.8240 -1.0540  0.0659
10619TIP3   OH253271   4.933   0.669   3.251 -0.1795 -0.4080  0.0281
10619TIP3    H153272   4.994   0.689   3.322  1.4619 -0.4452 -1.3137
10619TIP3    H253273   4.963   0.585   3.216 -0.6224 -0.1394 -1.0388
10620TIP3   OH253274   0.870   5.704  14.929 -0.2227 -0.2767 -0.3063
10620TIP3    H153275   0.794   5.761  14.941 -0.1829 -0.2177 -0.3366
10620TIP3    H253276   0.945   5.758  14.952 -0.0072  0.3064 -2.1411
10621TIP3   OH253277   0.500   3.956   0.030  0.0046 -0.1243 -0.6335
10621TIP3    H153278   0.415   3.941  -0.012  0.2779 -0.2007 -1.1708
10621TIP3    H253279   0.497   4.048   0.057 -0.0756  0.0067 -1.0719
10622TIP3   OH253280   0.433   2.930  16.408  0.4846 -0.3006 -0.6044
10622TIP3    H153281   0.387   3.012  16.427  0.1735 -0.8495  1.2700
10622TIP3    H253282   0.438   2.886  16.493  0.4223 -2.3449 -1.6042
10623TIP3   OH253283   4.549   2.926  15.863 -0.7037 -0.0357 -0.2291
10623TIP3    H153284   4.632   2.903  15.905 -0.5519  0.8441 -0.0300
10623TIP3    H253285   4.513   2.995  15.917 -0.6697  0.8904 -1.3493
10624TIP3   OH253286   5.357   3.508  12.420 -0.0072  0.2398  0.2524
10624TIP3    H153287   5.376   3.451  12.494  0.3945 -1.7742 -1.3259
10624TIP3    H253288   5.273   3.477  12.386  1.2299 -0.9823 -1.9442
10625TIP3   OH253289   2.570   5.045  15.828  0.7062  0.2804 -0.3815
10625TIP3    H153290   2.527   5.128  15.811 -0.4896 -0.2402 -0.0485
10625TIP3    H253291   2.646   5.067  15.881 -0.3848  1.0470  0.9233
10626TIP3   OH253292   5.685   2.626  13.576  0.2452 -0.4100  0.2102
10626TIP3    H153293   5.651   2.713  13.598 -0.2259 -0.9437  1.7243
10626TIP3    H253294   5.737   2.640  13.497 -0.3291  1.1306  0.0721
10627TIP3   OH253295   3.359   3.789   1.689  0.1990 -0.4586  0.1932
10627TIP3    H153296   3.377   3.883   1.683  2.3669 -0.7753  0.9590
10627TIP3    H253297   3.340   3.763   1.599 -1.9774  0.9334  0.1673
10628TIP3   OH253298   6.555   2.642  11.783  0.1927  0.0977  0.2655
10628TIP3    H153299   6.522   2.700  11.715 -0.5507 -1.6661 -0.9411
10628TIP3    H253300   6.642   2.677  11.804  0.4660  0.6670 -1.6394
10629TIP3   OH253301   0.706   0.813  15.884 -0.2130  0.0295 -0.3830
10629TIP3    H153302   0.730   0.727  15.852  1.0480  0.1142  0.2626
10629TIP3    H253303   0.789   0.855  15.907 -0.8680  1.0081  0.3331
10630TIP3   OH253304   2.874   0.934   4.290 -0.8441  0.3320  0.1324
10630TIP3    H153305   2.816   1.010   4.297 -0.6704  0.4447  0.3595
10630TIP3    H253306   2.857   0.900   4.202 -2.2464 -0.4432  0.6735
10631TIP3   OH253307   5.901   2.328  16.565 -0.4942  0.0193 -0.2618
10631TIP3    H153308   5.875   2.240  16.538 -0.9716 -0.1539  0.7045
10631TIP3    H253309   5.847   2.345  16.643  0.4204  0.7087  0.2286
10632TIP3   OH253310   2.828   1.128   4.807  0.0111 -0.5044 -0.0269
10632TIP3    H153311   2.866   1.059   4.862  1.4607  0.0850 -0.2336
10632TIP3    H253312   2.879   1.124   4.725 -1.4497 -0.7114 -0.9548
10633TIP3   OH253313   0.906   0.769  14.494  0.3245 -0.0433  0.1249
10633TIP3    H153314   0.815   0.799  14.504  0.5957  0.7497  0.2934
10633TIP3    H253315   0.947   0.785  14.579  0.6629 -0.2515  0.0039
10634TIP3   OH253316   2.478   2.619  17.049  0.0587  0.2200 -0.2752
10634TIP3    H153317   2.470   2.569  17.130  2.5861 -0.2013 -0.2209
10634TIP3    H253318   2.501   2.707  17.077  0.4589  0.1940 -0.5163
10635TIP3   OH253319   4.014   3.037   5.101 -0.0130 -0.0554 -0.0324
10635TIP3    H153320   3.968   3.084   5.170  0.8672 -0.0466  0.5535
10635TIP3    H253321   4.046   3.105   5.042 -0.4175 -0.0417 -0.2433
10636TIP3   OH253322   0.264   5.769  13.711 -0.1980  0.4078 -0.0511
10636TIP3    H153323   0.259   5.803  13.800 -1.2304 -1.5649  0.7072
10636TIP3    H253324   0.326   5.696  13.717 -1.1628 -0.4943 -0.6533
10637TIP3   OH253325   5.382   6.767  11.276  0.1591 -0.3924  0.4435
10637TIP3    H153326   5.303   6.795  11.229 -0.3587 -1.7844  0.4116
10637TIP3    H253327   5.455   6.795  11.221 -0.4076 -1.1892 -0.7570
10638TIP3   OH253328   4.662   0.455  10.678  0.0871 -0.1039 -0.5320
10638TIP3    H153329   4.627   0.500  10.601 -0.7163  1.6205  0.7583
10638TIP3    H253330   4.711   0.523  10.724 -1.1651 -0.5104  1.5022
10639TIP3   OH253331   5.421   3.514   5.076 -0.3677  0.2010 -0.8012
10639TIP3    H153332   5.494   3.556   5.121 -0.3170  0.1430 -0.8291
10639TIP3    H253333   5.458   3.433   5.041 -0.4166  0.2286 -0.9162
10640TIP3   OH253334   5.739   4.132   4.378  0.0170  0.3234 -0.2882
10640TIP3    H153335   5.762   4.087   4.459 -2.4687  1.4211  1.1460
10640TIP3    H253336   5.819   4.130   4.325  1.1584 -2.0762  1.3852
10641TIP3   OH253337   1.232   5.511  13.674 -0.5046 -0.0699  0.8645
10641TIP3    H153338   1.143   5.512  13.640 -0.3561 -1.2870  0.3881
10641TIP3    H253339   1.287   5.499  13.598 -0.0164 -0.5304  1.2824
10642TIP3   OH253340   5.023   2.643  16.191  0.1282  0.4975 -0.0164
10642TIP3    H153341   5.010   2.559  16.146  0.1297  0.8180 -0.6116
10642TIP3    H253342   5.117   2.661  16.181 -0.0799  1.1255 -0.8658
10643TIP3   OH253343   4.796   2.098  14.559  0.3133  0.0562 -0.3141
10643TIP3    H153344   4.779   2.012  14.598  0.0377 -0.3643 -1.3487
10643TIP3    H253345   4.819   2.080  14.468 -1.6327  1.1979 -1.0920
10644TIP3   OH253346   4.385   6.101  12.856  0.0996 -0.6118 -0.0818
10644TIP3    H153347   4.364   6.152  12.778  1.4100  2.0194  1.1677
10644TIP3    H253348   4.316   6.123  12.918  0.7546 -0.1964  0.5166
10645TIP3   OH253349   5.430   2.710  17.001  0.3383 -0.2785  0.1326
10645TIP3    H153350   5.378   2.738  17.077  0.3412  0.6034 -0.1859
10645TIP3    H253351   5.402   2.767  16.930  0.7740 -0.7030 -0.3871
10646TIP3   OH253352   0.486   5.544   0.782  0.3110  0.2096  0.1331
10646TIP3    H153353   0.499   5.559   0.876 -0.0463  2.7515 -0.1704
10646TIP3    H253354   0.398   5.577   0.764 -0.0743 -1.2897 -0.9316
10647TIP3   OH253355   5.448   1.809   3.121 -0.8267 -0.2479  0.9175
10647TIP3    H153356   5.498   1.889   3.111 -0.5218 -0.5054  0.3092
10647TIP3    H253357   5.463   1.781   3.211  1.1354 -0.9701  0.4180
10648TIP3   OH253358   0.761   4.986  13.184  0.0462  0.4456  0.0256
10648TIP3    H153359   0.831   5.007  13.122  0.0468  0.1089 -0.0898
10648TIP3    H253360   0.798   5.008  13.269  0.0951  0.7815 -0.0825
10649TIP3   OH253361   2.180   0.645  11.636 -0.1796 -0.1679 -0.3712
10649TIP3    H153362   2.167   0.610  11.548 -2.1069  1.6043 -0.8690
10649TIP3    H253363   2.103   0.616  11.685  0.4929 -0.4761  0.5375
10650TIP3   OH253364   5.202   2.512  11.421 -0.2985  0.1600  0.6042
10650TIP3    H153365   5.114   2.485  11.395  0.0126  0.9076 -1.4861
10650TIP3    H253366   5.248   2.430  11.440 -0.6211 -0.5287 -1.3030
10651TIP3   OH253367   2.387   4.079  12.271  0.5520 -0.7895 -0.6026
10651TIP3    H153368   2.423   4.036  12.193  2.1415  1.4618 -1.1983
10651TIP3    H253369   2.460   4.081  12.333  0.4551  0.7599 -0.5005
10652TIP3   OH253370   1.418   3.036  14.567  0.0402  0.0037 -0.1311
10652TIP3    H153371   1.400   2.975  14.638  0.8501 -1.1736 -0.9030
10652TIP3    H253372   1.510   3.022  14.545  0.3113  1.6673 -0.2097
10653TIP3   OH253373   0.541   2.799  11.285  0.1752 -0.6895 -0.2248
10653TIP3    H153374   0.503   2.744  11.354  0.9424 -0.6031  0.2776
10653TIP3    H253375   0.466   2.844  11.246 -0.3405 -1.2562  0.0933
10654TIP3   OH253376   4.530   4.687  14.006  0.1203  0.8319 -0.0083
10654TIP3    H153377   4.459   4.724  13.952  1.5255  1.0832 -1.7606
10654TIP3    H253378   4.588   4.761  14.022  0.9670  0.2283 -0.2352
10655TIP3   OH253379   4.545   5.320   0.942  0.0783 -0.2144  0.5529
10655TIP3    H153380   4.467   5.280   0.981  0.8773 -0.8712  1.5180
10655TIP3    H253381   4.515   5.353   0.858 -1.2167 -0.5638  0.8530
10656TIP3   OH253382   4.243   0.630   2.581  0.6488 -0.4997  0.7785
10656TIP3    H153383   4.296   0.709   2.570  0.9052 -0.6597  0.8574
10656TIP3    H253384   4.161   0.662   2.619  0.2110 -0.0888 -0.4472
10657TIP3   OH253385   6.125   3.016  14.364 -0.3126  0.0583 -0.2571
10657TIP3    H153386   6.121   3.110  14.350 -0.4996  0.3511  1.5570
10657TIP3    H253387   6.047   2.982  14.320 -2.7848  1.3258  2.7275
10658TIP3   OH253388   1.875   1.074   1.257  0.0951  0.8265 -0.2393
10658TIP3    H153389   1.834   0.999   1.213 -0.0047  0.5684  0.2874
10658TIP3    H253390   1.969   1.065   1.238  0.2521 -0.1773  0.9099
10659TIP3   OH253391   1.465   5.716   2.269 -0.0766  0.4322 -0.2082
10659TIP3    H153392   1.471   5.810   2.285  1.3311  0.3601 -0.1614
10659TIP3    H253393   1.540   5.697   2.212 -0.3832 -0.6487 -0.2698
10660TIP3   OH253394   0.160   1.188  14.373  0.2815 -0.1656 -0.5700
10660TIP3    H153395   0.140   1.228  14.457 -2.3633 -0.9369 -0.7605
10660TIP3    H253396   0.239   1.234  14.343  2.5550 -1.1896  3.1389
10661TIP3   OH253397   3.801   3.098   4.389 -0.3178 -0.3866 -0.3770
10661TIP3    H153398   3.769   3.030   4.448  0.8659  0.7576  1.7088
10661TIP3    H253399   3.768   3.180   4.426  0.4210  0.3654 -1.3317
10662TIP3   OH253400   2.803   6.435  13.459 -0.0141  0.1928  0.0706
10662TIP3    H153401   2.863   6.361  13.462  0.8417  0.7209 -1.9573
10662TIP3    H253402   2.806   6.464  13.368 -1.4145  1.8416  0.4944
10663TIP3   OH253403   5.360   2.059   5.547  0.1146 -0.8243 -0.1252
10663TIP3    H153404   5.284   2.027   5.498 -0.8927 -0.1311  0.9221
10663TIP3    H253405   5.375   2.148   5.515  1.5640 -1.5115 -1.5018
10664TIP3   OH253406   4.128   6.365  14.271 -0.3131 -0.7871  0.0437
10664TIP3    H153407   4.087   6.334  14.351 -3.0192  1.1550 -0.4842
10664TIP3    H253408   4.155   6.454  14.290 -1.4186 -0.1347 -1.2960
10665TIP3   OH253409   1.328   6.736   1.351 -0.3158  0.3958 -0.3187
10665TIP3    H153410   1.315   6.721   1.258  0.4988  0.8245 -0.5125
10665TIP3    H253411   1.378   6.660   1.381 -1.7902 -0.4601  0.0916
10666TIP3   OH253412   1.271   3.308   6.268  0.6977  0.5083  0.1176
10666TIP3    H153413   1.332   3.244   6.305  1.1440  1.5221  1.2093
10666TIP3    H253414   1.250   3.366   6.342 -0.4689  1.0236 -0.6007
10667TIP3   OH253415   4.596   2.292  13.265  0.4839  0.1070  0.5197
10667TIP3    H153416   4.524   2.355  13.263  0.1359 -0.2824  0.6614
10667TIP3    H253417   4.619   2.285  13.357 -0.4599 -1.0691  0.6851
10668TIP3   OH253418   2.035   5.538  12.786 -0.0224  0.3168  0.0862
10668TIP3    H153419   2.015   5.632  12.784 -0.3675  0.2420 -0.0511
10668TIP3    H253420   2.108   5.528  12.725 -0.1406  0.4645 -0.0824
10669TIP3   OH253421   5.665   1.229  12.193  0.1300 -0.0170 -0.0664
10669TIP3    H153422   5.722   1.169  12.241 -1.6587 -1.8158 -0.0399
10669TIP3    H253423   5.699   1.228  12.103  1.1221  0.2753  0.2882
10670TIP3   OH253424   5.529   1.913  13.717 -0.1000 -0.2642 -0.2851
10670TIP3    H153425   5.587   1.906  13.641 -1.4538  0.3189 -1.4182
10670TIP3    H253426   5.447   1.872  13.689 -1.1149  1.2533  0.3303
10671TIP3   OH253427   4.959   3.974   0.174  0.9347  0.5046 -0.0284
10671TIP3    H153428   5.027   4.001   0.235 -0.6546 -1.3741  2.7895
10671TIP3    H253429   4.900   3.920   0.226  1.0453 -3.9642 -3.8883
10672TIP3   OH253430   1.110   6.515   1.107 -0.2024  0.3563  0.5179
10672TIP3    H153431   1.166   6.587   1.079 -2.0682  1.2638 -1.1032
10672TIP3    H253432   1.032   6.558   1.141 -1.7625 -0.8481 -1.3568
10673TIP3   OH253433   3.321   1.076   4.741 -0.1479  0.4081  0.1776
10673TIP3    H153434   3.391   1.012   4.756  1.7152  2.2890 -0.0132
10673TIP3    H253435   3.242   1.023   4.735  1.2650 -1.8668  0.1165
10674TIP3   OH253436   2.936   1.692  12.727 -0.4278  0.5097 -0.1493
10674TIP3    H153437   2.941   1.782  12.758  1.0432  0.2232  0.5367
10674TIP3    H253438   2.929   1.640  12.807  1.9583 -0.1518 -0.2979
10675TIP3   OH253439   2.911   5.145  10.839  0.0353  0.0368 -0.0989
10675TIP3    H153440   2.952   5.179  10.759 -0.9455  1.0199 -0.2024
10675TIP3    H253441   2.870   5.063  10.813 -0.1405  0.2726 -0.5651
10676TIP3   OH253442   1.446   0.267   0.262 -0.2487  0.2367  0.4066
10676TIP3    H153443   1.453   0.298   0.352  0.6611 -1.0555  0.8199
10676TIP3    H253444   1.478   0.177   0.265 -1.2882 -0.2233 -1.0096
10677TIP3   OH253445   4.383   5.898   3.312  0.6235 -0.1035 -0.0624
10677TIP3    H153446   4.446   5.947   3.366  0.6559 -0.8000  0.5469
10677TIP3    H253447   4.333   5.846   3.375 -1.1773  1.0840 -0.4210
10678TIP3   OH253448   2.047   3.661   1.009  0.8139 -0.4176  0.0306
10678TIP3    H153449   2.125   3.711   0.987  0.8690 -0.7706 -0.5972
10678TIP3    H253450   2.047   3.658   1.105  1.2332  0.1069  0.0509
10679TIP3   OH253451   6.322   0.586   2.611  0.1118  0.3320  0.0748
10679TIP3    H153452   6.366   0.566   2.694 -1.3333  1.1204  1.0878
10679TIP3    H253453   6.320   0.502   2.565  0.9848 -0.1190  0.8282
10680TIP3   OH253454   4.225   5.201  14.901  0.0689 -0.3181  0.5548
10680TIP3    H153455   4.228   5.276  14.841  1.5277  0.4913  1.5773
10680TIP3    H253456   4.134   5.170  14.896 -0.4314  1.1692 -0.3193
10681TIP3   OH253457   4.999   3.714   3.744 -0.0498  0.3794 -0.1779
10681TIP3    H153458   4.970   3.731   3.834  2.0267  0.6348  0.5109
10681TIP3    H253459   4.981   3.796   3.698 -1.2619  0.2011 -0.0481
10682TIP3   OH253460   3.847   1.392   5.120 -0.2557 -0.1788  0.1850
10682TIP3    H153461   3.753   1.385   5.133 -0.0693  1.5585  3.9784
10682TIP3    H253462   3.882   1.307   5.148 -0.5893 -0.0823  0.9047
10683TIP3   OH253463   6.362   2.091  15.033 -0.1940 -0.6527 -0.3971
10683TIP3    H153464   6.331   2.049  15.113 -1.0477  0.3595 -0.1637
10683TIP3    H253465   6.454   2.111  15.050  0.3818 -2.8598 -0.7273
10684TIP3   OH253466   6.652   4.461  15.615 -0.0038 -0.1016  0.3204
10684TIP3    H153467   6.674   4.374  15.648 -0.0136  0.0097  0.6186
10684TIP3    H253468   6.581   4.491  15.671 -0.5786 -0.2476 -0.3125
10685TIP3   OH253469   1.349   0.684  15.697  0.5930 -0.4937 -0.8392
10685TIP3    H153470   1.358   0.682  15.601 -1.1516  2.8075 -1.2110
10685TIP3    H253471   1.438   0.672  15.729  1.4485 -0.2727 -2.9444
10686TIP3   OH253472   4.412   4.136   5.561 -0.2408  0.2898 -0.0771
10686TIP3    H153473   4.343   4.132   5.627  0.7013  2.3682  1.1230
10686TIP3    H253474   4.480   4.077   5.594 -0.3713  0.2121  0.0531
10687TIP3   OH253475   3.712   5.032   3.344 -0.5279 -0.1225  0.1487
10687TIP3    H153476   3.771   5.107   3.335 -0.5354 -0.2080 -0.6452
10687TIP3    H253477   3.625   5.067   3.324 -0.4595 -0.4538 -0.7452
10688TIP3   OH253478   2.383   1.137  11.690  0.0108  0.4110  0.1660
10688TIP3    H153479   2.432   1.144  11.608 -0.7082  0.5398 -0.2586
10688TIP3    H253480   2.418   1.058  11.732 -0.7619 -0.6056 -1.0508
10689TIP3   OH253481   4.318   3.507   4.037  0.3621  0.2024  0.1172
10689TIP3    H153482   4.386   3.552   3.985 -1.2115  0.7517 -1.5801
10689TIP3    H253483   4.252   3.575   4.052  0.0894 -0.3695  1.5884
10690TIP3   OH253484   1.091   0.091   0.810  0.3861 -0.1494 -0.3191
10690TIP3    H153485   1.038   0.094   0.889  0.8155  1.1733 -0.0465
10690TIP3    H253486   1.031   0.114   0.739  0.2586 -0.2004 -0.2283
10691TIP3   OH253487   6.093   5.048   4.708 -0.1441 -0.9693  0.3890
10691TIP3    H153488   6.119   5.116   4.646 -1.0107 -2.7487 -2.0838
10691TIP3    H253489   6.025   5.090   4.762 -2.1688 -0.3515 -2.4183
10692TIP3   OH253490   6.470   4.703   5.616 -0.0772  0.8216 -0.1147
10692TIP3    H153491   6.423   4.760   5.677 -0.8837  2.3850 -2.0856
10692TIP3    H253492   6.465   4.616   5.656 -2.6735  1.3479  0.9184
10693TIP3   OH253493   4.745   0.423  16.389  0.0451  0.1172  0.3733
10693TIP3    H153494   4.800   0.347  16.408  1.8138  1.0026 -0.9654
10693TIP3    H253495   4.786   0.495  16.437  0.6411  0.9738 -1.3253
10694TIP3   OH253496   5.697   4.018  13.489 -0.5764 -0.5925 -0.4006
10694TIP3    H153497   5.749   4.041  13.566 -0.0891 -0.7417 -0.6775
10694TIP3    H253498   5.690   4.100  13.439 -0.7527 -0.5333 -0.2778
10695TIP3   OH253499   5.753   3.852  12.778 -1.0041 -0.5635 -0.7872
10695TIP3    H153500   5.658   3.864  12.773 -0.9504  0.0434 -0.4479
10695TIP3    H253501   5.782   3.917  12.841 -0.2902 -0.3556 -1.3175
10696TIP3   OH253502   5.964   4.954   3.292 -0.3451 -0.0871 -0.3525
10696TIP3    H153503   6.011   4.886   3.340 -1.1852 -0.3290  0.1562
10696TIP3    H253504   6.028   5.024   3.279  0.3440 -0.7032 -0.3001
10697TIP3   OH253505   2.292   4.161  11.334  0.9164  0.4830 -0.3527
10697TIP3    H153506   2.300   4.250  11.368  0.0742  1.1148 -1.7082
10697TIP3    H253507   2.223   4.167  11.267  0.4096 -1.3209 -0.0457
10698TIP3   OH253508   4.018   1.493   0.106 -0.0530 -0.3996  0.0346
10698TIP3    H153509   4.039   1.569   0.051  1.2668 -0.7280  0.0607
10698TIP3    H253510   4.045   1.417   0.054 -0.8980 -0.8376  0.2171
10699TIP3   OH253511   5.324   3.358   4.438  0.8534  0.2804 -0.2811
10699TIP3    H153512   5.281   3.428   4.388 -0.7010 -0.6010 -0.2289
10699TIP3    H253513   5.389   3.323   4.378  1.9600  2.0147 -0.1679
10700TIP3   OH253514   4.555   2.894   4.783 -0.0987  0.1252  0.4921
10700TIP3    H153515   4.634   2.947   4.775  0.8358 -1.2233  0.4009
10700TIP3    H253516   4.580   2.820   4.838 -0.9671 -0.9102 -0.4257
10701TIP3   OH253517   4.463   6.336   5.822  0.1448 -0.1208 -0.0684
10701TIP3    H153518   4.493   6.426   5.814 -0.4174  0.0037 -0.8694
10701TIP3    H253519   4.437   6.311   5.733 -2.4285 -0.0965  0.6025
10702TIP3   OH253520   0.634   6.150  16.238  0.2837  0.0689  0.8462
10702TIP3    H153521   0.570   6.080  16.233  0.4124 -0.0997  1.4827
10702TIP3    H253522   0.628   6.194  16.153 -0.4917 -0.0994  0.8061
10703TIP3   OH253523   0.519   2.689  13.766  0.3855  0.3852  0.3502
10703TIP3    H153524   0.559   2.605  13.791  1.8431  1.6330  2.5385
10703TIP3    H253525   0.432   2.686  13.807 -0.2558 -0.6786 -0.9932
10704TIP3   OH253526   2.582   6.147  12.548 -0.2021  0.3347  0.2911
10704TIP3    H153527   2.522   6.205  12.595 -1.0867 -0.0798 -0.2967
10704TIP3    H253528   2.530   6.070  12.528  1.1812 -1.0252  1.7194
10705TIP3   OH253529   5.251   2.497  16.823  0.5410 -0.4426 -1.1643
10705TIP3    H153530   5.163   2.461  16.819  0.4777 -0.3648 -0.5488
10705TIP3    H253531   5.241   2.583  16.863  1.2224 -1.7321  2.1546
10706TIP3   OH253532   5.295   4.016   4.704  0.1719 -0.0409 -1.1516
10706TIP3    H153533   5.328   4.002   4.615 -1.7574 -2.0312 -1.6520
10706TIP3    H253534   5.335   3.946   4.756 -0.9313 -0.6679 -1.1222
10707TIP3   OH253535   5.521   6.052   1.837 -0.7329  0.4753  0.3331
10707TIP3    H153536   5.438   6.090   1.867 -0.0352  2.6804 -0.3339
10707TIP3    H253537   5.534   6.089   1.750 -0.3329 -1.9796 -0.7363
10708TIP3   OH253538   1.947   1.102  13.507  0.2198 -0.6737 -0.0189
10708TIP3    H153539   1.940   1.059  13.422  0.2511  1.0242 -0.9349
10708TIP3    H253540   2.041   1.113  13.521  0.3078 -2.5362  1.1207
10709TIP3   OH253541   0.513   2.869   3.328  0.2700  0.4433 -0.6052
10709TIP3    H153542   0.533   2.815   3.251 -0.8645 -1.7045  0.4962
10709TIP3    H253543   0.448   2.931   3.298 -0.7180 -0.8603 -1.2690
10710TIP3   OH253544   2.986   5.091  12.096 -0.6154 -0.8172 -0.3964
10710TIP3    H153545   3.046   5.093  12.021  2.3102  2.1433  1.7480
10710TIP3    H253546   2.949   5.179  12.099 -0.3571 -0.7302  1.7716
10711TIP3   OH253547   2.050   4.925   4.622 -0.1832 -0.3664  0.5186
10711TIP3    H153548   2.050   4.829   4.627 -3.4266 -0.4310  1.8422
10711TIP3    H253549   1.980   4.945   4.560  0.7173  1.1870 -0.0494
10712TIP3   OH253550   5.866   1.624  15.485 -0.1089 -0.5112 -0.0224
10712TIP3    H153551   5.802   1.670  15.539  1.5528 -0.7815  2.3299
10712TIP3    H253552   5.814   1.579  15.418 -2.2329  0.2440  1.0604
10713TIP3   OH253553   2.506   3.749  15.319 -0.4172  0.4719  0.1467
10713TIP3    H153554   2.543   3.712  15.400  0.6004  0.7464 -0.1736
10713TIP3    H253555   2.527   3.684  15.252 -0.2638  0.7634 -0.0888
10714TIP3   OH253556   5.950   4.189  16.630  0.7361 -0.4119 -0.0441
10714TIP3    H153557   5.909   4.244  16.697  0.8853 -1.1919  0.7017
10714TIP3    H253558   6.007   4.249  16.582 -1.9503  0.9726 -1.8108
10715TIP3   OH253559   0.122   2.795  14.479 -0.0912  0.3561  0.3033
10715TIP3    H153560   0.091   2.724  14.422  1.1695 -0.7079  0.8685
10715TIP3    H253561   0.086   2.875  14.441  0.6395 -0.3199 -1.9506
10716TIP3   OH253562   0.048   2.281   1.031 -0.3088  0.0157 -0.3515
10716TIP3    H153563   0.113   2.266   0.963  1.0420  0.7552  0.7182
10716TIP3    H253564  -0.034   2.293   0.984  0.3346 -0.8132 -1.7548
10717TIP3   OH253565   2.685   1.237   1.082 -0.0134  0.2033  0.0443
10717TIP3    H153566   2.594   1.207   1.083  0.2504 -0.6145  0.3836
10717TIP3    H253567   2.733   1.166   1.039  0.2670  1.2664 -1.4739
10718TIP3   OH253568   2.670   3.771  12.551 -0.4276 -0.4151  0.3287
10718TIP3    H153569   2.597   3.719  12.585  0.1129 -2.5500 -1.5115
10718TIP3    H253570   2.735   3.707  12.525  0.2295  1.1451 -2.2543
10719TIP3   OH253571   1.128   3.040  14.012  0.1974 -0.2326  0.0324
10719TIP3    H153572   1.173   3.086  13.941 -0.8384 -0.2459 -0.6544
10719TIP3    H253573   1.038   3.074  14.009 -0.2776 -1.4234  0.2789
10720TIP3   OH253574   2.079   5.148  16.642 -0.1774  0.5085  0.3446
10720TIP3    H153575   2.050   5.155  16.551 -0.7380 -0.8191  0.3901
10720TIP3    H253576   2.004   5.178  16.693 -0.0784  0.6945  0.3815
10721TIP3   OH253577   4.806   1.598   3.088 -0.1688 -0.0365  0.5328
10721TIP3    H153578   4.759   1.599   3.005 -0.6246 -0.8393  0.7644
10721TIP3    H253579   4.753   1.654   3.145  1.0009  1.8180 -0.1397
10722TIP3   OH253580   2.431   6.099  15.707  0.0149 -0.5207 -0.3635
10722TIP3    H153581   2.500   6.049  15.663  0.3651 -1.3916  1.1346
10722TIP3    H253582   2.423   6.059  15.793 -0.5348  1.2566  0.4551
10723TIP3   OH253583   3.184   6.155  15.088  0.3269  0.2769  0.0742
10723TIP3    H153584   3.149   6.144  15.000  0.0924 -1.0947  0.3149
10723TIP3    H253585   3.148   6.239  15.118 -1.0817 -0.1091 -0.4602
10724TIP3   OH253586   5.569   4.146   2.874  0.7492  0.3708  0.4101
10724TIP3    H153587   5.538   4.204   2.804  1.0014  0.4538  0.3659
10724TIP3    H253588   5.575   4.202   2.951  3.7975  1.1727 -0.2661
10725TIP3   OH253589   6.293   5.686   5.791 -0.2578  0.0531  0.1672
10725TIP3    H153590   6.365   5.634   5.827 -0.4801 -0.9769 -0.8150
10725TIP3    H253591   6.309   5.686   5.697 -1.7670 -0.5532 -0.1116
10726TIP3   OH253592   1.946   3.365  10.773 -0.5368  0.2259  0.0594
10726TIP3    H153593   2.035   3.381  10.743 -0.7299  0.4033 -0.4322
10726TIP3    H253594   1.954   3.353  10.868  0.3540 -2.2623 -0.2550
10727TIP3   OH253595   3.296   4.713  14.426 -0.0782 -0.6944 -0.3477
10727TIP3    H153596   3.305   4.666  14.509 -0.3011  1.2159  0.8276
10727TIP3    H253597   3.211   4.756  14.432  0.8665  1.3052 -0.5456
10728TIP3   OH253598   0.180   4.894  12.540 -0.5219 -0.1574  0.3786
10728TIP3    H153599   0.196   4.926  12.451  0.5460  0.0759  0.6494
10728TIP3    H253600   0.086   4.874  12.541 -0.1181 -2.7881 -1.6554
10729TIP3   OH253601   2.010   1.051  11.671  0.4933  0.4276  0.0687
10729TIP3    H153602   1.958   1.081  11.746  0.1057  1.2695 -0.5142
10729TIP3    H253603   2.040   1.132  11.630 -1.8804  0.1574 -2.4961
10730TIP3   OH253604   5.696   5.468   2.155  0.0318  0.2518  0.2431
10730TIP3    H153605   5.715   5.534   2.222 -0.8878 -0.4296  1.1952
10730TIP3    H253606   5.601   5.470   2.145  0.1922  0.7137 -1.4468
10731TIP3   OH253607   3.084   0.207   4.131  0.0178  0.1727 -0.1552
10731TIP3    H153608   3.099   0.293   4.093  0.3596 -0.3490 -1.2387
10731TIP3    H253609   3.050   0.154   4.059  2.6295 -1.4223 -0.3467
10732TIP3   OH253610   1.986   4.754   0.171  0.2894  0.2580  0.3613
10732TIP3    H153611   1.950   4.703   0.243  0.4795 -0.0141  0.2614
10732TIP3    H253612   1.917   4.752   0.104  1.0150 -1.4149 -0.3837
10733TIP3   OH253613   4.922   1.790   2.642 -0.2671 -0.0328  0.0101
10733TIP3    H153614   4.995   1.728   2.648  0.4313  0.9287  2.4652
10733TIP3    H253615   4.860   1.747   2.583  1.3170 -1.8568 -0.4570
10734TIP3   OH253616   4.203   6.426  10.252  0.0193  0.3085 -0.0107
10734TIP3    H153617   4.218   6.340  10.292  2.9781  1.6298  2.0942
10734TIP3    H253618   4.253   6.424  10.171  0.4861  0.1993  0.2764
10735TIP3   OH253619   0.047   3.204   5.721  0.5492 -0.5079  0.0476
10735TIP3    H153620  -0.015   3.161   5.663  1.2458  0.5297 -1.5602
10735TIP3    H253621   0.127   3.152   5.712  0.2088 -1.2990  1.3890
10736TIP3   OH253622   3.184   4.612   2.172 -0.1787 -0.3116 -0.7161
10736TIP3    H153623   3.219   4.603   2.261 -0.4138 -2.9369 -0.8151
10736TIP3    H253624   3.237   4.552   2.120 -1.3261 -0.2727 -1.9687
10737TIP3   OH253625   5.264   6.515   5.798  0.5031 -0.3092 -0.0210
10737TIP3    H153626   5.269   6.592   5.741  0.8327 -1.4249 -1.5742
10737TIP3    H253627   5.339   6.462   5.772 -1.0036 -2.2297 -0.6462
10738TIP3   OH253628   3.848   3.760  12.629 -0.2051  0.7586  0.0900
10738TIP3    H153629   3.851   3.756  12.534  1.0034  0.8950  0.1139
10738TIP3    H253630   3.778   3.698  12.653 -0.5979  0.8086 -0.8739
10739TIP3   OH253631   1.033   1.375   5.420 -0.2386  0.1860 -0.5610
10739TIP3    H153632   1.088   1.453   5.422  0.5035 -0.3048  1.9984
10739TIP3    H253633   1.091   1.304   5.392 -0.2759  0.1491 -0.5462
10740TIP3   OH253634   4.806   3.452   0.533 -0.6519  0.3997 -0.0020
10740TIP3    H153635   4.888   3.483   0.571  0.0712 -0.3467 -0.9174
10740TIP3    H253636   4.819   3.358   0.521 -2.1713 -0.0165  1.1452
10741TIP3   OH253637   4.742   4.303  15.319 -0.6852  0.3905  0.1920
10741TIP3    H153638   4.760   4.397  15.311 -2.3119  0.5864 -2.1805
10741TIP3    H253639   4.823   4.260  15.293  0.0748  1.0941  1.3070
10742TIP3   OH253640   3.930   1.779   0.918 -0.3224  0.2554 -0.4028
10742TIP3    H153641   3.998   1.843   0.938  0.5032 -0.6552 -0.2495
10742TIP3    H253642   3.860   1.831   0.878  0.2069  1.2930 -0.0265
10743TIP3   OH253643   2.890   5.647  14.046 -0.2976  0.5559  0.0347
10743TIP3    H153644   2.950   5.711  14.085 -0.2828 -0.5966  2.0246
10743TIP3    H253645   2.947   5.585  14.000  0.1360 -0.6567  2.0952
10744TIP3   OH253646   1.310   2.005  12.639 -0.2123  0.5137 -0.0750
10744TIP3    H153647   1.257   2.081  12.618 -1.1023 -0.7344 -2.8379
10744TIP3    H253648   1.260   1.958  12.706 -0.9917  1.0060 -0.3082
10745TIP3   OH253649   6.758   0.660  14.875  0.8153  0.2956  0.6158
10745TIP3    H153650   6.784   0.584  14.822 -0.6133 -0.8224  1.4270
10745TIP3    H253651   6.796   0.735  14.829  0.1269 -0.6536 -1.6917
10746TIP3   OH253652   0.493   4.894  15.263 -0.4616 -0.1906  0.1880
10746TIP3    H153653   0.410   4.909  15.307 -0.4698 -0.6262  0.3270
10746TIP3    H253654   0.524   4.981  15.239  0.3207  0.2002  2.4436
10747TIP3   OH253655   6.134   4.429  15.003 -0.0368  0.4711  0.3122
10747TIP3    H153656   6.175   4.514  15.015 -2.3526  1.6866  0.1314
10747TIP3    H253657   6.139   4.412  14.909  1.2949 -0.1278  0.4536
10748TIP3   OH253658   1.375   2.566  16.750  0.5883  0.1838 -0.4317
10748TIP3    H153659   1.415   2.482  16.774  2.4314  0.7447 -1.3689
10748TIP3    H253660   1.442   2.631  16.770 -0.6950  1.4296 -0.0395
10749TIP3   OH253661   1.732   6.034   4.586 -1.3800 -0.1518  0.1171
10749TIP3    H153662   1.809   6.067   4.632 -1.7921 -0.0833  0.7694
10749TIP3    H253663   1.671   6.010   4.655 -2.3228  0.6928 -0.3831
10750TIP3   OH253664   5.062   2.329  14.483  0.1203  0.1411 -0.9507
10750TIP3    H153665   5.067   2.250  14.537  0.2989 -0.5535 -1.9558
10750TIP3    H253666   5.150   2.340  14.448  0.3139  1.2825 -0.1599
10751TIP3   OH253667   5.574   6.176  11.608  0.1894  0.9153 -0.0502
10751TIP3    H153668   5.555   6.115  11.538  0.6203  0.0020  0.6140
10751TIP3    H253669   5.606   6.255  11.563  0.0093  0.5213 -0.8870
10752TIP3   OH253670   0.788   6.780  13.169 -0.0278 -0.2100 -0.0342
10752TIP3    H153671   0.735   6.784  13.248 -0.6295 -1.8122 -0.3119
10752TIP3    H253672   0.877   6.797  13.199 -0.4793  1.0368  0.6729
10753TIP3   OH253673   1.167   0.154  12.589  0.1059  0.0595  0.1626
10753TIP3    H153674   1.180   0.148  12.495  1.2645  0.9450  0.2414
10753TIP3    H253675   1.241   0.107  12.627 -2.0215 -3.1779  0.6933
10754TIP3   OH253676   5.337   2.378  14.396 -0.0212 -0.0427  0.6950
10754TIP3    H153677   5.378   2.450  14.348  0.8005 -0.2354  1.0971
10754TIP3    H253678   5.362   2.300  14.346  1.9613 -0.3945  2.1127
10755TIP3   OH253679   1.358   2.545   1.998  0.7139 -0.2064  0.1513
10755TIP3    H153680   1.383   2.593   1.919 -0.1643 -0.2862 -0.1890
10755TIP3    H253681   1.441   2.524   2.041  1.4702 -2.7799 -2.2687
10756TIP3   OH253682   0.251   2.383  11.461 -0.2575  0.0517  0.0688
10756TIP3    H153683   0.215   2.378  11.550 -1.5921 -2.2598 -0.5433
10756TIP3    H253684   0.281   2.295  11.442  1.1104  0.7806 -1.3822
10757TIP3   OH253685   4.984   3.922  12.409 -0.3767  0.4118  0.4950
10757TIP3    H153686   5.039   3.985  12.457 -0.9219  0.7525  0.6833
10757TIP3    H253687   4.895   3.947  12.432 -0.6513 -2.5960  3.5054
10758TIP3   OH253688   6.375   1.290  16.303  0.2231  0.3793 -0.1149
10758TIP3    H153689   6.446   1.344  16.268  0.8172  0.1506  0.7129
10758TIP3    H253690   6.363   1.320  16.393 -0.0822 -0.2217  0.0519
10759TIP3   OH253691   5.846   2.949   1.062 -0.2561  0.1746  0.4755
10759TIP3    H153692   5.796   3.018   1.104 -1.1192  0.6327 -1.2123
10759TIP3    H253693   5.910   2.995   1.008  1.6738 -0.4010  2.1302
10760TIP3   OH253694   5.475   1.708  13.984  0.1173  0.0058  0.5074
10760TIP3    H153695   5.477   1.792  13.940 -0.9913 -0.3853 -0.3471
10760TIP3    H253696   5.409   1.719  14.053 -0.6190 -0.3729 -0.1144
10761TIP3   OH253697   5.589   3.364   1.759  0.1779  0.5347 -0.7027
10761TIP3    H153698   5.575   3.441   1.705  2.0417  1.8054  0.5250
10761TIP3    H253699   5.680   3.369   1.787  0.2108 -1.8219 -0.1066
10762TIP3   OH253700   6.765   3.944  16.417  0.0087 -0.2177 -0.2417
10762TIP3    H153701   6.790   3.966  16.507  0.6229 -0.4108 -0.3528
10762TIP3    H253702   6.849   3.938  16.370 -0.2816 -0.4683 -0.7419
10763TIP3   OH253703   0.857   5.217   5.408  0.1040 -0.4319 -0.2704
10763TIP3    H153704   0.918   5.259   5.348  0.6419  1.2229  1.3705
10763TIP3    H253705   0.803   5.288   5.443 -0.9242 -1.4932  0.4091
10764TIP3   OH253706   6.272   4.191   0.666 -0.4318 -0.2083 -0.2776
10764TIP3    H153707   6.323   4.186   0.585  2.1008 -1.1626  1.2394
10764TIP3    H253708   6.204   4.124   0.656  0.1557 -0.6541 -1.4459
10765TIP3   OH253709   6.490   3.618   0.655  0.3460 -0.4231 -0.3124
10765TIP3    H153710   6.527   3.682   0.716 -0.3896 -0.7920  0.5400
10765TIP3    H253711   6.435   3.670   0.597  1.1710 -0.0483 -0.7824
10766TIP3   OH253712   1.868   4.722   5.744  0.6533 -0.4506 -0.2831
10766TIP3    H153713   1.833   4.805   5.776 -1.7804 -0.7227 -1.9706
10766TIP3    H253714   1.922   4.746   5.669  0.6537 -0.3363 -0.2458
10767TIP3   OH253715   0.724   2.724   1.839 -0.5104  0.5273 -0.3066
10767TIP3    H153716   0.722   2.642   1.789  1.2359  0.4921 -0.3788
10767TIP3    H253717   0.752   2.698   1.927  1.1586  1.1264 -0.6195
10768TIP3   OH253718   1.532   0.648  11.511 -0.0722  0.1862  0.1743
10768TIP3    H153719   1.467   0.650  11.582 -1.8376  1.0493 -1.3993
10768TIP3    H253720   1.548   0.554  11.497 -0.1423 -0.0114  1.3119
10769TIP3   OH253721   0.018   5.875   6.532 -0.6446 -0.3252  0.1161
10769TIP3    H153722  -0.026   5.793   6.554 -0.9946 -0.5592 -1.3485
10769TIP3    H253723   0.104   5.868   6.573 -1.7639 -0.0427  2.6750
10770TIP3   OH253724   6.276   1.694   0.245  0.2833 -0.1175 -0.4712
10770TIP3    H153725   6.371   1.689   0.255  0.5254  2.3675 -0.8932
10770TIP3    H253726   6.263   1.731   0.158 -1.0038  0.8365  0.0951
10771TIP3   OH253727   2.350   4.737  13.238 -0.4100  0.5600  0.4629
10771TIP3    H153728   2.320   4.799  13.305  0.8559 -0.0428  1.6430
10771TIP3    H253729   2.442   4.761  13.223  0.0832 -0.9363  0.8901
10772TIP3   OH253730   0.202   2.717  13.043 -0.0361 -0.0724 -0.1693
10772TIP3    H153731   0.150   2.641  13.018 -0.9706  0.2782  0.6485
10772TIP3    H253732   0.173   2.738  13.132  0.0436  1.3583 -0.4519
10773TIP3   OH253733   6.645   6.484  14.927  0.2476 -0.4078  0.0336
10773TIP3    H153734   6.739   6.486  14.944  0.3490 -0.8927 -0.4334
10773TIP3    H253735   6.624   6.391  14.919  0.1566 -0.2664 -2.0582
10774TIP3   OH253736   6.679   4.745   1.805 -0.6852 -0.2553  0.4536
10774TIP3    H153737   6.622   4.799   1.751  1.8473  1.9602 -0.2161
10774TIP3    H253738   6.653   4.765   1.895 -0.4319  1.4287  0.1892
10775TIP3   OH253739   3.581   3.672  12.398 -0.1846  0.4019 -0.1832
10775TIP3    H153740   3.659   3.704  12.352 -0.5978 -0.7995 -1.8283
10775TIP3    H253741   3.534   3.752  12.424  1.4079  1.1380  0.5823
10776TIP3   OH253742   5.056   5.893   0.590  0.3736 -0.2491  0.2255
10776TIP3    H153743   5.069   5.885   0.496  0.1423 -2.0558  0.2942
10776TIP3    H253744   5.068   5.986   0.609 -2.0500  0.6514 -1.9458
10777TIP3   OH253745   6.083   6.409   0.185  0.2749 -0.3067  0.3466
10777TIP3    H153746   6.129   6.402   0.269  1.0199  0.2831  0.0039
10777TIP3    H253747   6.025   6.333   0.183 -0.5807  0.2506  1.8777
10778TIP3   OH253748   6.684   6.229   2.548 -0.5563  0.2259 -0.0056
10778TIP3    H153749   6.714   6.176   2.622  0.5614 -0.4360 -0.8993
10778TIP3    H253750   6.747   6.301   2.543  0.4079 -0.6623 -1.3279
10779TIP3   OH253751   5.522   4.657   3.317 -0.3442 -0.1426  0.0923
10779TIP3    H153752   5.601   4.709   3.304 -0.5391  0.3743  0.9007
10779TIP3    H253753   5.459   4.718   3.354 -1.1009 -0.5760 -0.4653
10780TIP3   OH253754   6.412   4.169  16.777 -0.1104  0.1802  0.3402
10780TIP3    H153755   6.348   4.141  16.842 -0.0189  0.3283  0.4944
10780TIP3    H253756   6.372   4.245  16.734 -2.3717 -2.6794 -3.1599
10781TIP3   OH253757   3.235   0.239  14.577  0.2863 -0.3923 -0.0131
10781TIP3    H153758   3.248   0.285  14.660 -0.2694 -0.5577  0.1702
10781TIP3    H253759   3.169   0.291  14.531 -0.5317 -1.1267  0.3014
10782TIP3   OH253760   6.541   3.249  13.412  0.5267 -0.2096 -0.1031
10782TIP3    H153761   6.523   3.256  13.505  1.2334 -0.4138  0.0591
10782TIP3    H253762   6.455   3.248  13.370  0.2133  0.1264  0.5262
10783TIP3   OH253763   2.939   0.877  15.056 -0.2105  0.0402 -0.2472
10783TIP3    H153764   2.894   0.821  15.118  1.2771 -2.1496 -1.0175
10783TIP3    H253765   2.874   0.894  14.987 -1.0624  0.3529  0.6153
10784TIP3   OH253766   3.764   4.128  13.181  0.1337 -0.0586 -0.2356
10784TIP3    H153767   3.858   4.139  13.173 -0.0275  0.7643 -1.0381
10784TIP3    H253768   3.754   4.061  13.249  1.3147 -0.8803 -0.8267
10785TIP3   OH253769   0.387   5.884   5.462 -0.3699 -0.4759  0.5221
10785TIP3    H153770   0.473   5.864   5.425 -0.4467 -0.8946  0.5564
10785TIP3    H253771   0.334   5.910   5.386 -0.4102 -0.9250  0.3882
10786TIP3   OH253772   4.085   4.299   4.037 -0.0455  0.0027  0.2632
10786TIP3    H153773   4.139   4.367   3.997 -0.5457  0.5926  0.5897
10786TIP3    H253774   4.007   4.345   4.069 -1.1653 -0.9556 -0.9563
10787TIP3   OH253775   1.474   2.332   4.088 -0.3836 -0.7734  0.3241
10787TIP3    H153776   1.538   2.402   4.094 -0.2840 -0.9002  0.7644
10787TIP3    H253777   1.480   2.301   3.998 -2.3276  1.5809 -0.7429
10788TIP3   OH253778   0.133   3.555   2.239 -0.6277  0.1804 -0.4750
10788TIP3    H153779   0.177   3.478   2.276 -0.2367  0.5603 -0.1498
10788TIP3    H253780   0.066   3.577   2.303 -0.5329  0.3004 -0.4172
10789TIP3   OH253781   3.129   2.697   3.348  0.0061 -0.0950 -0.1376
10789TIP3    H153782   3.192   2.631   3.316  1.3478  1.9770 -2.0956
10789TIP3    H253783   3.183   2.773   3.370 -1.5785  0.7299  1.1165
10790TIP3   OH253784   1.052   0.510  15.689 -0.3813  1.0036 -0.1033
10790TIP3    H153785   1.041   0.424  15.729 -0.6434  1.6366  1.2513
10790TIP3    H253786   1.147   0.519  15.679 -0.4003 -1.2606 -4.5583
10791TIP3   OH253787   5.032   2.168  15.917  0.3874 -1.0305  0.3671
10791TIP3    H153788   5.091   2.226  15.965 -1.2045  1.1337 -0.1594
10791TIP3    H253789   5.028   2.205  15.829 -1.0910 -1.6085  0.1619
10792TIP3   OH253790   1.014   5.290  12.827 -0.9938  0.3275  0.2908
10792TIP3    H153791   0.960   5.211  12.837 -0.6499  0.1955  1.1234
10792TIP3    H253792   1.023   5.325  12.915 -1.2764  1.4038 -0.0994
10793TIP3   OH253793   1.084   5.852  14.471 -0.0726  0.4041  0.0859
10793TIP3    H153794   1.075   5.779  14.410 -0.9211  0.4607  0.1371
10793TIP3    H253795   1.100   5.811  14.556  1.9575  0.3334 -0.2686
10794TIP3   OH253796   4.551   5.501  12.202 -0.1758 -0.2972 -0.3428
10794TIP3    H153797   4.500   5.560  12.148 -0.3227  0.3884  0.5274
10794TIP3    H253798   4.529   5.525  12.292  1.4946 -0.1332  0.0602
10795TIP3   OH253799   1.251   0.865   5.482  0.4257 -0.2416  0.5213
10795TIP3    H153800   1.300   0.940   5.516  1.2445 -0.6707  0.3110
10795TIP3    H253801   1.175   0.858   5.540  1.0306 -0.0523  1.3557
10796TIP3   OH253802   0.379   1.777  11.353  0.0975  0.3381  0.1348
10796TIP3    H153803   0.393   1.748  11.263  1.8270  1.6469 -0.0661
10796TIP3    H253804   0.410   1.704  11.407  1.6881  0.6087 -0.3623
10797TIP3   OH253805   4.058   4.228   0.469  0.0095  0.1027 -0.2430
10797TIP3    H153806   4.061   4.219   0.564  1.1537 -0.4335 -0.3131
10797TIP3    H253807   3.970   4.198   0.445 -1.2455  2.5769  0.8368
10798TIP3   OH253808   0.526   0.497   2.839 -0.5936 -0.0677  0.1947
10798TIP3    H153809   0.617   0.526   2.831 -1.0178  1.3388  0.0569
10798TIP3    H253810   0.524   0.441   2.916  0.4692 -0.4788 -0.0708
10799TIP3   OH253811   3.418   0.992  15.281 -0.1772 -0.1726  0.3658
10799TIP3    H153812   3.448   1.024  15.196 -0.2131 -0.6347  0.1743
10799TIP3    H253813   3.354   0.924  15.260  0.4691 -0.9149  0.7549
10800TIP3   OH253814   4.563   6.680  12.094 -0.4294 -0.2144 -0.7171
10800TIP3    H153815   4.513   6.754  12.059  2.0292  0.8829 -2.1697
10800TIP3    H253816   4.529   6.604  12.046 -1.6204  0.2501 -0.6521
10801TIP3   OH253817   1.419   0.444   3.241 -0.4838 -0.0926 -0.5248
10801TIP3    H153818   1.433   0.522   3.186  2.4818 -1.1060 -1.4295
10801TIP3    H253819   1.383   0.379   3.181 -0.9923 -0.0494 -0.2713
10802TIP3   OH253820   5.885   0.783   4.609  0.1662 -0.3028 -0.5572
10802TIP3    H153821   5.845   0.844   4.546 -1.2012  1.5889  1.9672
10802TIP3    H253822   5.950   0.836   4.655  0.4923 -1.3641  0.2326
10803TIP3   OH253823   1.688   3.472  10.752 -0.1015  0.1636 -0.2922
10803TIP3    H153824   1.755   3.422  10.705 -0.2085  0.0974 -0.3728
10803TIP3    H253825   1.726   3.559  10.760 -0.0696  0.1672 -0.4738
10804TIP3   OH253826   4.009   2.321  11.765 -0.3016 -0.2063  0.0017
10804TIP3    H153827   3.955   2.396  11.790  0.3105 -0.2686  1.6278
10804TIP3    H253828   4.096   2.358  11.750  0.1803 -0.6436  1.5137
10805TIP3   OH253829   2.138   4.363  15.414  0.4441 -0.1464 -0.1317
10805TIP3    H153830   2.202   4.354  15.343 -0.1511 -3.0008 -0.4018
10805TIP3    H253831   2.077   4.291  15.401 -1.0903  0.6895  1.9065
10806TIP3   OH253832   3.906   2.037   6.140 -0.2727 -0.2285 -0.0002
10806TIP3    H153833   3.889   1.950   6.105  1.0118 -0.2335 -0.6587
10806TIP3    H253834   3.835   2.091   6.106 -0.2929 -0.7185 -0.7555
10807TIP3   OH253835   5.584   0.008  16.699  0.2190  0.1330  0.5404
10807TIP3    H153836   5.553   0.054  16.622  2.6788  1.9901  0.5490
10807TIP3    H253837   5.673  -0.020  16.677  0.4120 -0.6785  2.1563
10808TIP3   OH253838   4.249   4.163  14.722 -0.0905  0.1332  0.0978
10808TIP3    H153839   4.327   4.182  14.773 -0.2308 -1.6916  1.0915
10808TIP3    H253840   4.263   4.208  14.639  1.6568  0.4877  0.5411
10809TIP3   OH253841   4.092   1.323  17.107  0.0597 -0.4504 -0.4600
10809TIP3    H153842   4.046   1.258  17.053 -2.3504  0.3117  0.5334
10809TIP3    H253843   4.113   1.394  17.046  1.7444 -1.6250 -1.3245
10810TIP3   OH253844   1.646   2.916   1.916  0.0251 -0.2329  0.2203
10810TIP3    H153845   1.703   2.978   1.870  0.5526  0.3544  1.6301
10810TIP3    H253846   1.588   2.883   1.848 -0.1409  1.6557 -0.6201
10811TIP3   OH253847   0.817   0.093  15.106 -0.1775  0.0207  0.0548
10811TIP3    H153848   0.776   0.179  15.105 -0.9966 -0.3667 -0.1762
10811TIP3    H253849   0.785   0.050  15.027 -0.8896 -0.9997  0.8718
10812TIP3   OH253850   4.130   0.317   6.440 -0.3680 -0.4284  0.4758
10812TIP3    H153851   4.079   0.398   6.439 -2.6352 -1.7343  1.5019
10812TIP3    H253852   4.065   0.249   6.459  1.5750 -2.4040  0.3798
10813TIP3   OH253853   1.870   5.786   0.148  0.6000  0.6532  0.2919
10813TIP3    H153854   1.803   5.842   0.109  0.5753  0.2094 -0.3113
10813TIP3    H253855   1.831   5.699   0.148 -0.7082  1.0297  4.1909
10814TIP3   OH253856   2.604   6.711  15.875 -0.0416  0.6015 -0.5551
10814TIP3    H153857   2.551   6.733  15.798  0.6009  1.8037 -0.6841
10814TIP3    H253858   2.541   6.703  15.946 -0.6461 -0.5396 -1.1931
10815TIP3   OH253859   4.338   0.532  15.791  0.5255  0.1544 -0.0753
10815TIP3    H153860   4.418   0.504  15.746  0.3039 -0.2730 -0.2155
10815TIP3    H253861   4.279   0.560  15.720 -0.1437 -1.3303 -0.1525
10816TIP3   OH253862   3.867   5.878   1.317  0.9882  0.1670  0.1129
10816TIP3    H153863   3.939   5.854   1.259 -0.0978  0.1164 -1.2653
10816TIP3    H253864   3.817   5.943   1.268 -0.0138  0.0664  0.9628
10817TIP3   OH253865   6.621   4.954   3.708 -0.1010 -0.3605  0.2628
10817TIP3    H153866   6.590   4.962   3.618  0.7953 -0.4046 -0.0692
10817TIP3    H253867   6.635   4.860   3.720  1.0686 -0.2517 -0.0354
10818TIP3   OH253868   6.791   5.402  16.314  0.0144  0.2335  1.0966
10818TIP3    H153869   6.805   5.470  16.249 -1.6849  1.1129  1.5884
10818TIP3    H253870   6.874   5.395  16.361  1.6091 -1.0432 -1.6336
10819TIP3   OH253871   4.042   2.655  11.318 -0.0075 -0.4374 -0.2881
10819TIP3    H153872   4.058   2.606  11.399  0.5258 -3.9209 -2.3110
10819TIP3    H253873   3.952   2.688  11.327 -0.5038 -2.0469  1.1350
10820TIP3   OH253874   3.835   3.366  17.058  0.5470  0.0755 -0.0961
10820TIP3    H153875   3.778   3.433  17.019  0.1973  0.8128  1.6149
10820TIP3    H253876   3.923   3.401  17.049  0.4338  0.4207  0.1355
10821TIP3   OH253877   0.251   5.729  11.505  0.2671  0.0561 -0.2335
10821TIP3    H153878   0.328   5.672  11.513  0.2392  0.2476  2.1948
10821TIP3    H253879   0.287   5.816  11.493  0.3577 -0.1438 -1.5035
10822TIP3   OH253880   2.260   1.446   2.924 -0.5454  0.0399 -0.5638
10822TIP3    H153881   2.303   1.488   2.849 -1.8535 -2.0864 -2.6862
10822TIP3    H253882   2.321   1.376   2.949 -1.1212 -0.7264 -1.2381
10823TIP3   OH253883   1.448   4.427  12.097  0.2030  0.2631 -0.1841
10823TIP3    H153884   1.382   4.362  12.120  1.2841 -0.3131  1.5192
10823TIP3    H253885   1.436   4.497  12.162  0.4649  0.7268 -0.6304
10824TIP3   OH253886   0.569   6.571   2.542  0.3266 -0.4246 -0.3344
10824TIP3    H153887   0.602   6.483   2.524  0.8888 -0.0035 -1.4483
10824TIP3    H253888   0.632   6.629   2.500 -0.1352  0.5050  0.2418
10825TIP3   OH253889   1.290   3.774  14.045  0.7947 -0.0639  1.0139
10825TIP3    H153890   1.361   3.778  14.109 -0.0653 -1.1931  2.0801
10825TIP3    H253891   1.240   3.695  14.068 -0.3741  0.2847 -0.1647
10826TIP3   OH253892   0.659   1.671   6.386 -0.4238  0.0838 -0.4084
10826TIP3    H153893   0.671   1.760   6.419  0.8227  0.0858 -0.8228
10826TIP3    H253894   0.693   1.674   6.296  0.0952 -0.9297 -0.2558
10827TIP3   OH253895   2.892   3.120  15.073  0.0474 -0.0549 -0.7030
10827TIP3    H153896   2.808   3.165  15.080 -0.4842 -0.9884 -0.9669
10827TIP3    H253897   2.957   3.190  15.079 -0.7075  0.5685  0.6457
10828TIP3   OH253898   5.412   4.162   2.475  0.0244  0.2499 -0.5901
10828TIP3    H153899   5.319   4.185   2.467  0.0207  0.5383  0.1492
10828TIP3    H253900   5.424   4.148   2.569  0.9482  1.1442 -0.5709
10829TIP3   OH253901   5.350   5.564  17.007 -0.0088  0.0774 -0.2663
10829TIP3    H153902   5.441   5.538  16.997  0.1949  0.1259  1.2359
10829TIP3    H253903   5.352   5.658  17.019  0.0664 -0.1992  2.5740
10830TIP3   OH253904   4.240   1.361   2.046 -0.0328  0.3429 -0.1811
10830TIP3    H153905   4.292   1.328   2.119  0.2720 -2.8467 -1.6332
10830TIP3    H253906   4.151   1.332   2.064  0.0158 -0.3329 -0.9339
10831TIP3   OH253907   2.792   6.516  16.284  0.1914 -0.5852  0.0967
10831TIP3    H153908   2.758   6.605  16.295 -1.5353 -1.0522 -0.9523
10831TIP3    H253909   2.849   6.502  16.359 -0.5073  0.9609  0.9593
10832TIP3   OH253910   0.108   0.679  14.467  0.0946  0.1911 -0.8239
10832TIP3    H153911   0.129   0.668  14.375  0.4241  0.4390 -0.7799
10832TIP3    H253912   0.074   0.768  14.474 -0.0964  0.1107 -0.7380
10833TIP3   OH253913   6.174   5.672   0.900 -0.6235 -0.0408  0.3094
10833TIP3    H153914   6.182   5.601   0.964  0.2209 -0.4932 -0.2768
10833TIP3    H253915   6.102   5.645   0.844  0.1186 -0.7997 -0.3215
10834TIP3   OH253916   6.277   4.206  13.631  0.3820  0.4131  0.1444
10834TIP3    H153917   6.292   4.249  13.715 -0.0946  0.5357  0.1685
10834TIP3    H253918   6.196   4.246  13.598  0.2212 -0.0940 -0.0735
10835TIP3   OH253919   0.507   6.603  16.354 -0.2639 -0.6140  0.7969
10835TIP3    H153920   0.451   6.631  16.426  2.3052  0.8590  2.3796
10835TIP3    H253921   0.555   6.682  16.329  1.9219 -2.0056  0.3241
10836TIP3   OH253922   1.586   2.807   3.364  0.2186  1.1063  0.3183
10836TIP3    H153923   1.580   2.832   3.456  1.5466 -0.9210  1.0333
10836TIP3    H253924   1.543   2.721   3.360  1.7116  0.3516 -0.5540
10837TIP3   OH253925   4.343   2.973   6.001 -0.5827  0.3364  0.5750
10837TIP3    H153926   4.286   2.898   5.984 -1.4837  1.5879 -2.7689
10837TIP3    H253927   4.423   2.953   5.953 -1.0076  1.6144 -0.7504
10838TIP3   OH253928   0.339   5.914  14.203  0.3644  0.0050  0.4844
10838TIP3    H153929   0.333   5.999  14.247  2.0214  0.2354  0.3142
10838TIP3    H253930   0.395   5.861  14.260 -0.9157 -1.1173  0.7596
10839TIP3   OH253931   6.629   2.284   2.764 -0.1121  0.2778  0.4702
10839TIP3    H153932   6.633   2.221   2.837 -1.0784  0.7734  0.9672
10839TIP3    H253933   6.674   2.362   2.797 -0.8922  0.6423  0.6906
10840TIP3   OH253934   3.861   2.381   2.279 -0.0121  0.6730  0.2175
10840TIP3    H153935   3.802   2.449   2.248 -1.6078 -0.9221 -0.4301
10840TIP3    H253936   3.903   2.348   2.199 -0.1336  0.1265  0.3775
10841TIP3   OH253937   2.389   3.056  15.885  0.4250 -0.5363 -0.3311
10841TIP3    H153938   2.464   3.062  15.826 -0.4686 -0.3291 -1.4989
10841TIP3    H253939   2.352   2.969  15.869  1.3954 -1.3497  1.5207
10842TIP3   OH253940   5.015   4.761  13.213  0.2440  0.2135 -1.0715
10842TIP3    H153941   4.933   4.810  13.204 -0.2490 -0.5434 -0.7753
10842TIP3    H253942   5.081   4.828  13.230 -0.6917  0.6673  1.0259
10843TIP3   OH253943   2.438   5.595   4.478 -0.1069 -0.2817 -0.0163
10843TIP3    H153944   2.477   5.656   4.541 -1.5961  1.6958 -0.9083
10843TIP3    H253945   2.409   5.521   4.531  0.8332  0.2256  1.2605
10844TIP3   OH253946   4.241   3.792  15.070 -0.0012 -0.0759 -0.2055
10844TIP3    H153947   4.308   3.859  15.055  1.5146 -1.1659  1.3457
10844TIP3    H253948   4.228   3.791  15.165 -1.8648 -0.2556 -0.4262
10845TIP3   OH253949   3.139   6.438   3.008 -0.2639 -0.2649  0.2033
10845TIP3    H153950   3.131   6.349   2.975 -0.4620  0.1062 -0.7801
10845TIP3    H253951   3.115   6.494   2.935  1.0234  0.6346  0.4130
10846TIP3   OH253952   5.897   3.569  13.342 -0.3691 -0.6585  0.1203
10846TIP3    H153953   5.909   3.526  13.257 -0.5045 -2.4137  0.9559
10846TIP3    H253954   5.956   3.645  13.338  1.2612 -1.8920 -0.7634
10847TIP3   OH253955   2.339   6.351  14.230  0.0607  0.4263 -0.8617
10847TIP3    H153956   2.392   6.414  14.181  0.2943  0.1554 -0.9614
10847TIP3    H253957   2.260   6.339  14.177  0.5394 -0.2578 -1.4402
10848TIP3   OH253958   4.017   5.881   4.119 -0.0200 -0.2626 -0.3890
10848TIP3    H153959   4.002   5.959   4.172 -0.2940  0.8005 -1.9599
10848TIP3    H253960   4.094   5.903   4.066  1.9002 -2.2973  1.3405
10849TIP3   OH253961   4.718   1.949   0.039  0.1041  0.2979  0.1783
10849TIP3    H153962   4.674   2.024   0.080  1.3611  0.9386  0.3931
10849TIP3    H253963   4.809   1.976   0.030  0.8670 -1.6281  1.3709
10850TIP3   OH253964   2.763   6.145   5.307 -0.7158  0.5698 -0.2212
10850TIP3    H153965   2.800   6.233   5.302  1.6479 -0.2517  1.2447
10850TIP3    H253966   2.688   6.153   5.366  0.1745  1.4264  0.8314
10851TIP3   OH253967   2.408   2.295   3.798  0.0547 -0.3884 -0.6151
10851TIP3    H153968   2.455   2.262   3.722 -1.5217 -4.2532 -0.1696
10851TIP3    H253969   2.315   2.283   3.776 -0.4789 -0.1743  1.3170
10852TIP3   OH253970   4.791   1.305   4.277 -0.1368 -0.4352 -0.5018
10852TIP3    H153971   4.841   1.287   4.357 -0.3897 -0.4625 -0.3508
10852TIP3    H253972   4.702   1.324   4.308 -0.1829 -0.2302 -0.7593
10853TIP3   OH253973   4.447   6.058   5.225 -0.8496  0.3423 -0.1587
10853TIP3    H153974   4.412   6.089   5.309 -2.0290  0.7448 -0.7777
10853TIP3    H253975   4.406   5.972   5.212 -0.6809  0.2862 -0.3306
10854TIP3   OH253976   3.399   6.410  16.063  0.0507  0.2505  0.2268
10854TIP3    H153977   3.450   6.358  16.124  2.0035  2.2756  0.4634
10854TIP3    H253978   3.436   6.498  16.069  1.2168  0.4127 -4.6748
10855TIP3   OH253979   0.496   6.474  16.118  0.2854 -0.0148 -0.2993
10855TIP3    H153980   0.510   6.521  16.200 -3.6686  1.4481 -0.2671
10855TIP3    H253981   0.552   6.520  16.054 -0.8330  2.5833  0.4659
10856TIP3   OH253982   5.801   0.554   3.240 -0.1480  0.0270 -0.1973
10856TIP3    H153983   5.816   0.465   3.206 -0.1719 -0.8921  2.0056
10856TIP3    H253984   5.706   0.563   3.241 -0.1385  0.3259 -0.9314
10857TIP3   OH253985   5.680   5.800   4.882  0.1703 -0.2490 -0.5151
10857TIP3    H153986   5.597   5.847   4.876 -0.5086 -1.1144  1.2741
10857TIP3    H253987   5.682   5.746   4.803 -0.3997  0.6327 -1.1578
10858TIP3   OH253988   0.728   5.808   4.239  0.3461 -0.0701  0.8313
10858TIP3    H153989   0.732   5.796   4.334 -0.0802  1.0209  1.0102
10858TIP3    H253990   0.662   5.877   4.227  0.8271  0.2278 -0.2087
10859TIP3   OH253991   5.486   1.404   4.158 -0.3019 -0.6740 -0.5271
10859TIP3    H153992   5.462   1.343   4.089 -2.0522 -0.1664 -0.4256
10859TIP3    H253993   5.555   1.458   4.120 -1.1055 -0.5244 -1.8256
10860TIP3   OH253994   0.053   4.441   2.158 -0.4532 -0.4520  0.2766
10860TIP3    H153995   0.067   4.494   2.236 -1.1611  0.0819  0.0485
10860TIP3    H253996  -0.011   4.375   2.186 -1.2796  0.1999 -0.0481
10861TIP3   OH253997   1.935   1.807  14.499 -0.5516 -0.2149  0.5595
10861TIP3    H153998   1.914   1.855  14.579  2.0219 -0.1109  1.2836
10861TIP3    H253999   2.031   1.799  14.501 -0.5836 -2.0258 -1.4837
10862TIP3   OH254000   0.883   3.109   4.667  0.2931 -0.1773  0.2902
10862TIP3    H154001   0.924   3.110   4.754  1.6705 -1.7764 -0.2899
10862TIP3    H254002   0.792   3.086   4.684  0.5971 -0.6921  1.3068
10863TIP3   OH254003   2.467   4.960  12.444 -0.2339 -0.4640  0.7117
10863TIP3    H154004   2.516   4.889  12.485  2.2967  0.5191 -0.4298
10863TIP3    H254005   2.494   5.039  12.490 -1.3885  0.0412  0.5645
10864TIP3   OH254006   4.703   1.724  13.145  0.3078 -0.4123  0.0077
10864TIP3    H154007   4.607   1.722  13.138  0.1907  2.0843  0.1212
10864TIP3    H254008   4.734   1.723  13.054  0.2262 -1.6274 -0.0255
10865TIP3   OH254009   6.314   2.742  14.087 -0.1104 -0.3046  0.1583
10865TIP3    H154010   6.373   2.779  14.022 -1.5623  0.1741 -0.9496
10865TIP3    H254011   6.269   2.818  14.125 -1.0696 -0.7286 -0.0968
10866TIP3   OH254012   0.588   4.807   1.095  0.3729  0.6979  0.5123
10866TIP3    H154013   0.558   4.723   1.131 -1.3424  1.5164  1.0932
10866TIP3    H254014   0.571   4.800   1.001  0.8217  0.1742  0.4652
10867TIP3   OH254015   0.165   3.546   3.563  0.4953 -0.0874 -0.4256
10867TIP3    H154016   0.182   3.633   3.600  1.4961 -0.7543  0.7857
10867TIP3    H254017   0.075   3.526   3.587  0.6680  0.1047  0.4101
10868TIP3   OH254018   0.689   5.823  16.266  0.0823 -0.1578  0.0238
10868TIP3    H154019   0.692   5.757  16.336  0.2823 -0.6779 -0.4683
10868TIP3    H254020   0.596   5.838  16.251  0.0385  0.3904  0.7995
10869TIP3   OH254021   4.396   2.589   2.411  0.1910  0.3767  0.6766
10869TIP3    H154022   4.490   2.593   2.428  0.1936  0.9662  0.5477
10869TIP3    H254023   4.356   2.584   2.498  0.3101  0.8999  0.7637
10870TIP3   OH254024   3.809   6.697  12.787  0.6556 -0.0883  0.1829
10870TIP3    H154025   3.744   6.766  12.771 -1.3829 -2.6807 -4.2421
10870TIP3    H254026   3.891   6.735  12.757  0.3788  1.5945  1.3634
10871TIP3   OH254027   6.014   5.038  15.043  0.0248  0.5237 -0.0372
10871TIP3    H154028   5.937   5.082  15.080 -0.4025  0.2814 -0.6179
10871TIP3    H254029   6.073   5.109  15.020  0.5303  0.6613  1.5762
10872TIP3   OH254030   6.393   0.234  15.943 -0.0850  0.2355 -0.0270
10872TIP3    H154031   6.373   0.275  16.027  2.3098  0.1578  0.6681
10872TIP3    H254032   6.310   0.234  15.896 -1.0864  2.0467  1.5701
10873TIP3   OH254033   3.720   0.357  10.440 -0.8442  0.0837 -0.4996
10873TIP3    H154034   3.803   0.388  10.405 -0.9275 -0.9921 -1.7487
10873TIP3    H254035   3.718   0.263  10.418 -2.2460  0.0191 -0.2295
10874TIP3   OH254036   1.734   3.760   3.495 -0.7665  0.0050 -0.3512
10874TIP3    H154037   1.814   3.716   3.524 -0.5342  1.0049  0.6375
10874TIP3    H254038   1.699   3.705   3.425  0.2036 -1.0204 -0.0525
10875TIP3   OH254039   3.981   0.113   3.944 -0.0884  0.1709 -0.8212
10875TIP3    H154040   3.958   0.130   4.035  0.7548  1.4006 -0.8209
10875TIP3    H254041   4.077   0.108   3.943  0.0026  1.4667 -1.8245
10876TIP3   OH254042   4.809   1.852   5.260  0.1149  0.1900 -0.6792
10876TIP3    H154043   4.740   1.812   5.207  0.1683 -0.4296 -0.2925
10876TIP3    H254044   4.768   1.929   5.299 -0.4503 -0.3281 -0.2291
10877TIP3   OH254045   4.941   6.147  15.036 -0.6251 -0.6377  0.2231
10877TIP3    H154046   4.896   6.066  15.059  0.9416 -2.5617 -2.8407
10877TIP3    H254047   4.874   6.201  14.994 -1.1907 -1.3034  0.2622
10878TIP3   OH254048   1.435   0.421  17.014  0.3469  0.2448 -0.1999
10878TIP3    H154049   1.438   0.326  17.025 -0.1443  0.0829 -1.3217
10878TIP3    H254050   1.410   0.455  17.100 -0.8706 -0.7310 -0.1511
10879TIP3   OH254051   1.389   2.739   5.374 -0.0599 -0.8320  0.3842
10879TIP3    H154052   1.351   2.815   5.330  0.0273 -0.4110  1.0227
10879TIP3    H254053   1.362   2.665   5.320  0.0507 -0.3320 -0.3807
10880TIP3   OH254054   6.189   3.052   5.136  0.2535  0.4186 -0.6927
10880TIP3    H154055   6.252   3.045   5.064 -0.0573 -0.3426 -0.8982
10880TIP3    H254056   6.146   3.136   5.123  0.9657  0.7763 -0.7690
10881TIP3   OH254057   3.078   2.295  12.725  0.6856 -0.1261 -0.0616
10881TIP3    H154058   3.137   2.227  12.756  1.5761  0.6518  0.0113
10881TIP3    H254059   3.121   2.377  12.750 -1.4841  0.5039  1.9563
10882TIP3   OH254060   4.525   5.092   5.369 -0.0564 -0.3571  0.3637
10882TIP3    H154061   4.502   5.129   5.454  1.7282  2.0549 -0.0711
10882TIP3    H254062   4.613   5.056   5.382  1.1118  1.8440 -0.8154
10883TIP3   OH254063   5.025   0.094  12.352  0.1919  0.0469  0.1015
10883TIP3    H154064   4.947   0.069  12.402  0.8475  0.0099  1.1319
10883TIP3    H254065   5.094   0.035  12.383  0.8004  0.5228 -0.3093
10884TIP3   OH254066   3.498   0.918   4.428 -0.8013  0.0690 -0.0006
10884TIP3    H154067   3.480   0.895   4.519 -1.2139  1.4264  0.2939
10884TIP3    H254068   3.580   0.874   4.407  0.2846  1.1986  1.6398
10885TIP3   OH254069   5.955   2.965   3.062 -0.5283 -0.8572 -0.5486
10885TIP3    H154070   5.904   2.897   3.018 -1.9650  0.1682 -0.5148
10885TIP3    H254071   6.021   2.991   2.997 -1.8973 -0.1666 -1.7185
10886TIP3   OH254072   2.453   2.341   1.234 -0.4244  0.0629  0.0415
10886TIP3    H154073   2.368   2.334   1.190  0.4319 -0.9876 -1.5321
10886TIP3    H254074   2.484   2.429   1.212 -1.0244  0.4057  0.5216
10887TIP3   OH254075   4.027   5.065   5.106 -0.4679  0.3306 -0.1164
10887TIP3    H154076   4.120   5.042   5.104 -0.7620 -1.0974  0.9656
10887TIP3    H254077   3.990   5.021   5.029 -1.0142 -3.0899  1.9020
10888TIP3   OH254078   4.016   1.254  14.040  0.5708  0.5291 -0.3021
10888TIP3    H154079   4.041   1.307  13.964 -0.8527  1.1722 -0.3490
10888TIP3    H254080   4.056   1.299  14.114  2.0980 -0.1892 -0.6517
10889TIP3   OH254081   0.461   1.294   5.237 -0.4019  0.6228 -0.1997
10889TIP3    H154082   0.371   1.288   5.271 -0.5419 -1.0917 -0.7712
10889TIP3    H254083   0.450   1.299   5.142  0.1110  0.9721 -0.2462
10890TIP3   OH254084   0.003   1.372   0.435  0.6951 -0.3533 -0.3626
10890TIP3    H154085  -0.030   1.403   0.351  0.9514  0.0013 -0.3345
10890TIP3    H254086   0.063   1.301   0.412 -0.8868 -1.7637 -0.3606
10891TIP3   OH254087   0.038   3.934  16.799 -0.1814  0.2260 -0.3374
10891TIP3    H154088   0.048   3.873  16.873 -0.4036 -0.8615 -1.1774
10891TIP3    H254089  -0.049   3.914  16.764  0.5881 -0.4953 -1.9359
10892TIP3   OH254090   3.033   5.141   4.911  0.8292 -0.1497  0.3520
10892TIP3    H154091   3.121   5.131   4.874 -0.3811  1.2970 -3.4077
10892TIP3    H254092   2.977   5.088   4.855 -0.6957 -1.9499  3.3358
10893TIP3   OH254093   3.114   5.815   0.776 -0.0522  0.0071 -0.1171
10893TIP3    H154094   3.181   5.751   0.801 -2.6600 -3.0035 -0.1688
10893TIP3    H254095   3.103   5.803   0.682 -0.4242  0.7139 -0.1711
10894TIP3   OH254096   6.338   5.932   0.675  0.2223  0.0642 -0.5719
10894TIP3    H154097   6.265   5.936   0.737 -1.1209  0.2045 -2.0755
10894TIP3    H254098   6.416   5.936   0.729 -0.8869  0.3763  1.0842
10895TIP3   OH254099   6.715   6.294   4.637  0.5881  0.3465  0.5745
10895TIP3    H154100   6.653   6.337   4.578  0.3275  0.3535  0.8518
10895TIP3    H254101   6.793   6.349   4.635  1.4723 -0.8198 -1.5331
10896TIP3   OH254102   0.976   1.739  15.628  0.2359  0.0351  0.5776
10896TIP3    H154103   1.011   1.822  15.661  0.3462 -0.0912  0.7816
10896TIP3    H254104   0.881   1.753  15.625  0.3487  0.6515 -0.7303
10897TIP3   OH254105   2.915   3.205   2.622  0.1605  0.2110 -0.1060
10897TIP3    H154106   2.891   3.236   2.709  0.7191  1.3271 -0.3396
10897TIP3    H254107   2.876   3.117   2.617 -2.1572  1.1300  0.2797
10898TIP3   OH254108   1.212   2.240   0.441  0.0478  0.3286  0.4036
10898TIP3    H154109   1.214   2.183   0.364  0.2209  1.2850 -0.3205
10898TIP3    H254110   1.301   2.275   0.447  0.7588 -1.6159  2.5175
10899TIP3   OH254111   5.423   2.933   5.847  0.1421 -0.2895  0.3605
10899TIP3    H154112   5.508   2.888   5.847  0.6346  0.5924 -0.3567
10899TIP3    H254113   5.360   2.866   5.821  0.7408 -0.7515  0.0737
10900TIP3   OH254114   1.252   6.558  13.809 -0.2871 -0.6779  0.9114
10900TIP3    H154115   1.178   6.616  13.793  0.4741 -0.2095 -1.3579
10900TIP3    H254116   1.215   6.484  13.857 -1.8062  0.4437  1.5495
10901TIP3   OH254117   1.567   2.645   2.305 -0.0722 -0.4108  0.0093
10901TIP3    H154118   1.627   2.623   2.376 -0.6323 -0.1558  0.5760
10901TIP3    H254119   1.503   2.704   2.345 -0.9587 -1.0170 -0.4603
10902TIP3   OH254120   1.821   3.835  14.971 -0.4145  0.6088 -0.0243
10902TIP3    H154121   1.890   3.856  14.908  1.6699  1.2434  2.3259
10902TIP3    H254122   1.817   3.911  15.029 -1.5307 -0.3608  1.2497
10903TIP3   OH254123   5.468   3.621   6.327  0.3238  0.2386  0.7660
10903TIP3    H154124   5.533   3.635   6.396  0.8480  0.3930  0.2472
10903TIP3    H254125   5.445   3.529   6.333  1.0008  0.0549  0.6053
10904TIP3   OH254126   0.687   1.238  13.352 -0.3062  0.0604  0.0033
10904TIP3    H154127   0.707   1.155  13.394 -1.6120 -0.2959 -0.0340
10904TIP3    H254128   0.610   1.220  13.298 -1.7479  1.6852  1.3852
10905TIP3   OH254129   6.433   2.895   0.381 -0.5058  0.4016  0.1947
10905TIP3    H154130   6.445   2.801   0.375 -0.1011  0.5383 -2.3763
10905TIP3    H254131   6.349   2.906   0.427 -2.2426 -1.3653 -2.2741
10906TIP3   OH254132   5.207   6.737  14.604 -0.6242  0.7145  0.0773
10906TIP3    H154133   5.150   6.715  14.677  0.0950  0.0675  0.4542
10906TIP3    H254134   5.148   6.762  14.533 -1.3701  0.0908  0.4742
10907TIP3   OH254135   0.613   2.943   3.598 -0.9112  0.4373 -0.0870
10907TIP3    H154136   0.583   3.004   3.665  0.9606  0.7360  0.5328
10907TIP3    H254137   0.587   2.984   3.515 -0.5454  1.5981  0.3538
10908TIP3   OH254138   1.128   3.655   0.001 -0.0335  0.7755  0.3366
10908TIP3    H154139   1.108   3.621   0.088  2.3950  0.5508  0.8872
10908TIP3    H254140   1.123   3.579  -0.057  0.4267  0.4875  0.6700
10909TIP3   OH254141   5.432   2.668   5.778 -0.2556 -0.5777  0.2388
10909TIP3    H154142   5.446   2.581   5.815 -0.5591 -0.8900 -0.3779
10909TIP3    H254143   5.337   2.681   5.780 -0.1215  0.5661  2.1757
10910TIP3   OH254144   5.184   4.098   4.313 -0.0244  0.1919 -0.6566
10910TIP3    H154145   5.247   4.037   4.350  2.2801  1.3543 -2.4716
10910TIP3    H254146   5.129   4.045   4.256 -2.0730 -1.1735  2.3143
10911TIP3   OH254147   2.839   6.693   0.258  0.1610  0.1783  0.1136
10911TIP3    H154148   2.839   6.641   0.339  0.5056 -0.0505 -0.0273
10911TIP3    H254149   2.748   6.693   0.230  0.4351 -2.4030 -1.1526
10912TIP3   OH254150   4.106   2.973  15.061  0.6952 -0.4173  0.0823
10912TIP3    H154151   4.025   2.938  15.099 -2.1101  4.8816 -0.0310
10912TIP3    H254152   4.099   2.955  14.968 -0.5466  0.2039  0.0385
10913TIP3   OH254153   1.402   4.121   5.193 -0.3032 -0.0229  0.2488
10913TIP3    H154154   1.464   4.112   5.265 -0.2633 -3.3836 -0.0297
10913TIP3    H254155   1.427   4.201   5.149  1.5759  0.5507  2.2149
10914TIP3   OH254156   5.366   5.409  11.402  0.1871  1.0836  0.2936
10914TIP3    H154157   5.310   5.395  11.478  0.4756  1.9848  0.6808
10914TIP3    H254158   5.369   5.504  11.391  1.3530  1.0326  0.0640
10915TIP3   OH254159   5.865   3.276  11.537 -0.2294  0.3307 -0.2756
10915TIP3    H154160   5.815   3.197  11.517 -0.4152  0.4560 -0.3111
10915TIP3    H254161   5.927   3.284  11.465 -0.6170  0.5501 -0.5920
10916TIP3   OH254162   5.294   3.169   3.830  0.0109 -0.3311 -0.2804
10916TIP3    H154163   5.306   3.159   3.736  1.2846  4.8925 -0.9236
10916TIP3    H254164   5.201   3.190   3.840 -0.1902 -1.1733 -0.2445
10917TIP3   OH254165   2.990   5.597   3.565 -0.4583  0.4927  0.8382
10917TIP3    H154166   2.908   5.564   3.530 -1.1478  2.4757  0.4803
10917TIP3    H254167   3.028   5.649   3.494  0.9169 -0.0543  1.1406
10918TIP3   OH254168   1.025   4.640  14.694 -0.8054  0.5406  0.4622
10918TIP3    H154169   0.945   4.617  14.647 -0.4688  1.0446 -0.3843
10918TIP3    H254170   1.013   4.732  14.717 -0.9958  0.2810  1.4483
10919TIP3   OH254171   2.717   3.459  13.175  0.0935  0.2756 -0.7337
10919TIP3    H154172   2.742   3.518  13.104 -1.5636  2.0958  0.1037
10919TIP3    H254173   2.801   3.429  13.213  0.9705  0.9292 -2.0939
10920TIP3   OH254174   6.675   0.421  11.507 -0.3620 -0.2530  0.5267
10920TIP3    H154175   6.598   0.365  11.520  1.2883 -2.9829 -0.6767
10920TIP3    H254176   6.749   0.368  11.538  1.2269  1.7041  0.2880
10921TIP3   OH254177   6.362   1.881  13.408 -0.5273  0.4392  0.2748
10921TIP3    H154178   6.376   1.790  13.435  2.2390  0.7368  0.1252
10921TIP3    H254179   6.301   1.875  13.334  2.1305 -1.7071 -1.9515
10922TIP3   OH254180   1.809   6.017   5.511 -0.4876  0.0653  0.3138
10922TIP3    H154181   1.719   6.035   5.537 -1.0620 -0.0551 -1.4079
10922TIP3    H254182   1.808   5.925   5.483  0.1225  0.1185  0.0982
10923TIP3   OH254183   6.668   0.602   5.725 -0.0390  0.3381 -0.0535
10923TIP3    H154184   6.603   0.537   5.751  0.2148 -0.0199 -0.3035
10923TIP3    H254185   6.753   0.560   5.743  0.1275  0.5759 -0.2723
10924TIP3   OH254186   5.775   1.401  15.100  0.3602 -0.2353 -0.2692
10924TIP3    H154187   5.732   1.464  15.041  0.2684 -1.0840 -1.1313
10924TIP3    H254188   5.744   1.426  15.187 -0.2363  0.4694 -0.6613
10925TIP3   OH254189   5.803   6.244   6.826 -0.0706 -0.4205  0.4999
10925TIP3    H154190   5.760   6.184   6.765  2.1111 -2.3871  0.7227
10925TIP3    H254191   5.831   6.318   6.772 -1.3190 -0.3884 -0.1333
10926TIP3   OH254192   2.704   2.741   4.143 -0.7097  0.1275  0.3803
10926TIP3    H154193   2.770   2.801   4.109  0.3575 -0.6915  0.9457
10926TIP3    H254194   2.726   2.656   4.104 -1.8072 -0.0416  0.0957
10927TIP3   OH254195   1.316   0.200  16.360 -0.5023 -0.0286  0.1991
10927TIP3    H154196   1.244   0.143  16.389 -0.3768  0.3619  1.2945
10927TIP3    H254197   1.385   0.186  16.424 -0.5839  1.5857  0.6725
10928TIP3   OH254198   3.170   2.984   3.551 -0.0212  0.1774 -0.0212
10928TIP3    H154199   3.244   2.940   3.509  0.8844  0.2811  1.3759
10928TIP3    H254200   3.184   2.970   3.645 -0.9425  1.5051  0.3489
10929TIP3   OH254201   1.165   3.642  13.210 -0.1330  0.5435  0.2990
10929TIP3    H154202   1.109   3.569  13.182 -0.3904  0.8122  0.1132
10929TIP3    H254203   1.191   3.684  13.128 -0.9701  1.3980  0.4621
10930TIP3   OH254204   6.746   2.899   5.973  0.5268 -0.0625  0.1597
10930TIP3    H154205   6.811   2.921   6.040  0.9474  0.2326 -0.3405
10930TIP3    H254206   6.663   2.899   6.020  0.5875  1.8926  0.3347
10931TIP3   OH254207   5.302   2.972  11.746 -0.1802 -0.4754 -0.1759
10931TIP3    H154208   5.387   3.000  11.713  0.2783 -0.3871  1.0228
10931TIP3    H254209   5.317   2.953  11.839 -1.0679 -2.1075 -0.3140
10932TIP3   OH254210   5.789   0.309   3.076 -0.7377 -0.0479 -0.4704
10932TIP3    H154211   5.777   0.349   2.990  0.4845 -0.6637 -0.9447
10932TIP3    H254212   5.849   0.236   3.061 -1.4026 -0.8760  0.7147
10933TIP3   OH254213   1.190   1.079  15.997  0.1249  0.5474  0.8112
10933TIP3    H154214   1.225   1.097  16.084  0.8895 -0.6870  0.7828
10933TIP3    H254215   1.240   1.003  15.967 -1.5129 -0.3074  0.1359
10934TIP3   OH254216   4.177   0.110   4.923  0.2669  0.2067 -0.4950
10934TIP3    H154217   4.173   0.204   4.940  0.3597  0.0592  0.3840
10934TIP3    H254218   4.092   0.089   4.883 -0.6407  0.3095  1.2510
10935TIP3   OH254219   3.211   3.148  13.391 -0.1611 -0.0083 -0.1208
10935TIP3    H154220   3.150   3.130  13.463  1.0499 -0.3474  0.8507
10935TIP3    H254221   3.174   3.102  13.316 -1.8749  1.0090  0.0551
10936TIP3   OH254222   3.172   1.413   1.391 -0.5146 -0.4394  0.4868
10936TIP3    H154223   3.086   1.381   1.362 -0.3825 -1.6993  1.3941
10936TIP3    H254224   3.226   1.334   1.399  0.4639  0.2397  0.7818
10937TIP3   OH254225   3.227   2.103   0.614  0.3269  0.2132  0.5857
10937TIP3    H154226   3.288   2.084   0.543  1.8203 -0.2824  1.9558
10937TIP3    H254227   3.143   2.071   0.581  1.2461 -1.3535 -0.3979
10938TIP3   OH254228   1.066   3.561  12.015  0.1338 -0.0937 -0.4807
10938TIP3    H154229   1.068   3.638  11.958 -0.3227 -1.2253 -2.0970
10938TIP3    H254230   1.055   3.487  11.955  1.5749 -1.5305  0.9482
10939TIP3   OH254231   1.225   1.789   5.102  0.2448 -0.1276 -0.0658
10939TIP3    H154232   1.236   1.884   5.094  0.6248 -0.0779  0.8956
10939TIP3    H254233   1.132   1.776   5.117 -0.0948 -0.0526 -1.8588
10940TIP3   OH254234   0.789   3.754   5.169 -0.3844 -0.5380  0.2348
10940TIP3    H154235   0.849   3.696   5.121  1.0282 -0.0143  1.3154
10940TIP3    H254236   0.751   3.810   5.101 -0.0938 -1.2370 -0.5359
10941TIP3   OH254237   5.849   3.675   3.433  0.0341  0.0414  0.4022
10941TIP3    H154238   5.766   3.666   3.386  0.0912  0.5970  0.1954
10941TIP3    H254239   5.915   3.681   3.365  0.6310 -3.2930  0.5008
10942TIP3   OH254240   0.598   4.667  14.757  0.5521 -0.4420 -0.0276
10942TIP3    H154241   0.659   4.594  14.771 -0.3625 -1.3044 -0.4349
10942TIP3    H254242   0.572   4.693  14.846  1.2531 -0.2722  0.1373
10943TIP3   OH254243   0.278   2.932   0.330  0.1688 -0.6867 -0.1503
10943TIP3    H154244   0.200   2.982   0.305 -0.1319 -1.3154 -0.5016
10943TIP3    H254245   0.288   2.948   0.423  0.3014  0.3274 -0.3295
10944TIP3   OH254246   3.781   0.532  12.768 -0.1804  0.0849  0.5765
10944TIP3    H154247   3.753   0.467  12.833 -0.6882  0.4131  0.6932
10944TIP3    H254248   3.768   0.488  12.683  0.0640 -0.1851  0.6782
10945TIP3   OH254249   3.864   5.473   2.196  0.0298 -0.0611 -0.2118
10945TIP3    H154250   3.958   5.456   2.198  0.4292  1.7261 -1.3629
10945TIP3    H254251   3.833   5.430   2.116 -0.2778 -1.2174  0.5141
10946TIP3   OH254252   3.079   0.085   0.876  0.6802  0.2209 -0.0462
10946TIP3    H154253   3.049   0.042   0.956  0.6871  0.2879 -0.0069
10946TIP3    H254254   3.018   0.158   0.864  1.3023  0.8561  0.4853
10947TIP3   OH254255   6.675   4.669   5.448  0.3353  0.3257  0.8614
10947TIP3    H154256   6.703   4.580   5.467  0.9047  0.2241 -0.3565
10947TIP3    H254257   6.617   4.692   5.521  0.6075 -0.8304  1.4704
10948TIP3   OH254258   2.891   0.769  12.745 -0.2322 -0.2918 -0.3608
10948TIP3    H154259   2.933   0.834  12.688 -1.9728  0.0043 -1.3604
10948TIP3    H254260   2.916   0.796  12.833  1.5199 -0.0482 -0.8823
10949TIP3   OH254261   1.766   6.281   5.407  0.3432  0.7853  0.4029
10949TIP3    H154262   1.786   6.189   5.422  1.5634  1.0052  0.2121
10949TIP3    H254263   1.849   6.319   5.377  0.1194  2.1673  1.4684
10950TIP3   OH254264   1.751   5.840   2.416 -0.0969 -0.4262 -0.5107
10950TIP3    H154265   1.834   5.884   2.396 -0.8669  1.7628  0.8409
10950TIP3    H254266   1.747   5.768   2.352  3.0259 -0.9198 -0.3249
10951TIP3   OH254267   0.616   0.509   0.412  0.1895  0.1772  0.5511
10951TIP3    H154268   0.644   0.554   0.332 -1.5686  0.8332  0.2705
10951TIP3    H254269   0.627   0.575   0.481 -0.4950  0.3834  0.4657
10952TIP3   OH254270   2.977   2.987   4.708  0.2410  0.4815  0.4784
10952TIP3    H154271   2.984   2.903   4.753 -1.4029  1.0527  1.8950
10952TIP3    H254272   3.012   3.050   4.770 -0.1694  1.0598  0.1294
10953TIP3   OH254273   5.555   4.555  11.645 -0.3022 -0.4045  0.0037
10953TIP3    H154274   5.624   4.525  11.586  0.7853 -1.7931  1.8726
10953TIP3    H254275   5.514   4.474  11.676 -1.9205  0.3598 -0.0689
10954TIP3   OH254276   6.164   2.728   0.377  0.4030 -0.2463 -0.5917
10954TIP3    H154277   6.104   2.664   0.416  1.6181  0.1927  2.1946
10954TIP3    H254278   6.249   2.685   0.377  0.6935  0.2973 -1.5518
10955TIP3   OH254279   0.791   3.493  15.560 -0.5148 -0.4828 -0.1084
10955TIP3    H154280   0.885   3.494  15.542 -0.3715  0.0946  0.5749
10955TIP3    H254281   0.776   3.412  15.608 -0.5083 -0.9559 -0.9035
10956TIP3   OH254282   2.786   0.105  15.255 -0.3077 -0.0935  0.1103
10956TIP3    H154283   2.732   0.171  15.298 -0.7416 -1.2825  1.4775
10956TIP3    H254284   2.806   0.042  15.324 -0.3072 -1.6289 -1.2360
10957TIP3   OH254285   6.779   3.100  13.914 -0.5625 -0.0887 -0.1912
10957TIP3    H154286   6.839   3.025  13.916  0.3947  0.5123 -2.6747
10957TIP3    H254287   6.817   3.163  13.976 -0.1388 -0.7516  0.2364
10958TIP3   OH254288   3.904   6.094   3.201  0.3409  0.5380 -0.5279
10958TIP3    H154289   3.939   6.183   3.193 -0.1475  0.7161 -0.7399
10958TIP3    H254290   3.818   6.106   3.241  0.8827  0.0235  0.8404
10959TIP3   OH254291   4.126   4.240   2.693 -0.5329 -0.4888  0.4963
10959TIP3    H154292   4.081   4.176   2.748  0.1641 -0.5285  1.0452
10959TIP3    H254293   4.207   4.196   2.668 -1.5514 -1.1094 -1.9639
10960TIP3   OH254294   1.553   4.128  14.697 -0.2848 -0.6008 -0.3086
10960TIP3    H154295   1.583   4.193  14.761  0.7043 -1.8456  0.5465
10960TIP3    H254296   1.599   4.151  14.616 -0.6652  0.3024 -0.2868
10961TIP3   OH254297   2.443   3.615   5.181 -0.5628 -0.3795  0.1730
10961TIP3    H154298   2.515   3.677   5.188 -0.1439 -0.6265 -1.4970
10961TIP3    H254299   2.464   3.546   5.244 -0.3447  0.4770  1.0714
10962TIP3   OH254300   1.985   0.817  14.228  0.5860  0.1566 -0.1245
10962TIP3    H154301   1.910   0.860  14.188  0.6400 -0.3116 -0.7440
10962TIP3    H254302   1.951   0.734  14.261  1.0294 -0.5154 -1.3103
10963TIP3   OH254303   2.461   6.135  14.427 -0.3958 -0.3069  0.6249
10963TIP3    H154304   2.454   6.165  14.336 -0.3296 -0.0619  0.6999
10963TIP3    H254305   2.522   6.196  14.468  0.7348 -1.2982  0.4652
10964TIP3   OH254306   0.161   0.633  16.816 -0.3878 -0.1520 -0.5288
10964TIP3    H154307   0.076   0.639  16.859 -0.8573 -1.7279 -1.1772
10964TIP3    H254308   0.166   0.543  16.784  1.3712  0.0190 -0.8390
10965TIP3   OH254309   2.166   3.431  12.374 -0.5902  0.4346 -0.6131
10965TIP3    H154310   2.081   3.402  12.339  0.0023  0.4110 -2.0902
10965TIP3    H254311   2.226   3.359  12.355 -0.5357 -0.2976  1.9390
10966TIP3   OH254312   4.640   6.099  16.393  0.1593 -0.5328 -0.1904
10966TIP3    H154313   4.620   6.139  16.308  1.5484 -0.9684 -0.7556
10966TIP3    H254314   4.659   6.008  16.373  0.4263 -0.6621  0.5976
10967TIP3   OH254315   6.632   0.933   1.509 -0.2315  0.1485  0.0001
10967TIP3    H154316   6.698   0.869   1.535  0.1491  0.7782  0.5983
10967TIP3    H254317   6.552   0.905   1.554 -0.4802 -0.8072 -0.9880
10968TIP3   OH254318   6.310   1.731   0.873 -0.9429  0.4016  0.0514
10968TIP3    H154319   6.384   1.778   0.833 -0.7952 -0.5157 -0.7866
10968TIP3    H254320   6.245   1.725   0.803 -1.1012 -0.3290  0.2587
10969TIP3   OH254321   3.670   2.972   5.567 -0.5378 -0.7515 -0.6122
10969TIP3    H154322   3.711   2.914   5.631  0.2788  0.0267 -0.4091
10969TIP3    H254323   3.595   3.009   5.614 -0.0580 -0.3356 -0.1642
10970TIP3   OH254324   3.534   1.359   5.539  0.1680 -0.4620 -0.0596
10970TIP3    H154325   3.579   1.290   5.588 -0.9899 -0.2894  1.2977
10970TIP3    H254326   3.481   1.404   5.604  0.1842  1.1395 -1.0934
10971TIP3   OH254327   6.758   3.508   0.986 -0.1670 -0.5958  0.2360
10971TIP3    H154328   6.777   3.478   0.897  0.8446 -0.2813  0.3363
10971TIP3    H254329   6.727   3.598   0.975  0.3618 -0.4143  0.2370
10972TIP3   OH254330   4.323   0.869   1.886 -0.0182  0.1202 -0.0611
10972TIP3    H154331   4.366   0.819   1.816 -0.6828 -0.0519 -0.3553
10972TIP3    H254332   4.378   0.855   1.963 -0.7536 -1.9897  0.1528
10973TIP3   OH254333   5.265   1.830   2.620  0.5500  0.4054  0.1975
10973TIP3    H154334   5.358   1.813   2.608  0.6109 -1.1116  2.3145
10973TIP3    H254335   5.221   1.760   2.572  0.5275  0.2853  0.3951
10974TIP3   OH254336   2.031   4.595   3.132  0.2818  0.2790 -0.1995
10974TIP3    H154337   1.951   4.616   3.181  0.9978 -1.7741  2.0766
10974TIP3    H254338   2.005   4.525   3.073  0.3689 -0.4402  0.5919
10975TIP3   OH254339   0.615   3.937  16.366 -0.0368  0.3077 -0.5049
10975TIP3    H154340   0.612   3.977  16.452  0.8147 -0.0184 -0.3079
10975TIP3    H254341   0.644   4.007  16.307 -0.5070  0.4999 -0.5081
10976TIP3   OH254342   2.044   5.964   4.443  0.1753 -0.2494 -1.0739
10976TIP3    H154343   2.013   5.920   4.364 -0.6643  2.9044 -2.6557
10976TIP3    H254344   1.969   6.013   4.475  1.6576  2.0789 -0.9608
10977TIP3   OH254345   4.785   5.597   0.923  0.3422 -0.4665  0.0023
10977TIP3    H154346   4.775   5.511   0.964 -2.6628  0.1142  0.6868
10977TIP3    H254347   4.846   5.581   0.851  0.5403 -2.9754  0.6156
10978TIP3   OH254348   0.859   0.300  11.603  0.1889 -0.4932  0.0730
10978TIP3    H154349   0.871   0.378  11.549 -1.1223 -0.1769  0.1992
10978TIP3    H254350   0.808   0.331  11.678  2.0806 -0.8884  1.6077
10979TIP3   OH254351   0.768   5.265   4.478  0.1088  0.2379 -0.1581
10979TIP3    H154352   0.770   5.170   4.478 -0.9269  0.1742  1.4185
10979TIP3    H254353   0.838   5.291   4.538  1.5327  0.5618 -1.9003
10980TIP3   OH254354   2.510   5.472  13.212  0.2754  0.5777 -0.2338
10980TIP3    H154355   2.423   5.512  13.223  0.5288  1.0164  0.2261
10980TIP3    H254356   2.570   5.533  13.255  1.1803  1.6903 -2.8772
10981TIP3   OH254357   2.320   2.490  10.930 -0.2215 -0.5282  0.0930
10981TIP3    H154358   2.266   2.544  10.873 -0.6384 -0.8087  0.2141
10981TIP3    H254359   2.396   2.466  10.877 -0.3733 -0.3993 -0.1808
10982TIP3   OH254360   4.882   2.246   2.495 -0.0544  0.2309 -0.2707
10982TIP3    H154361   4.889   2.235   2.400  0.0193  0.4205 -0.2879
10982TIP3    H254362   4.971   2.232   2.528  0.2251  1.5443 -0.3777
10983TIP3   OH254363   5.260   2.094  14.264 -0.3175 -0.1648 -0.2335
10983TIP3    H154364   5.231   2.037  14.193 -0.7887 -1.4028  0.9000
10983TIP3    H254365   5.338   2.050  14.300  0.1094  0.6109 -0.1896
10984TIP3   OH254366   1.673   5.576   3.847 -0.3331  0.0632  0.4061
10984TIP3    H154367   1.706   5.502   3.797 -2.9296 -1.0958  0.2276
10984TIP3    H254368   1.662   5.542   3.936 -1.3473  0.2586  0.3690
10985TIP3   OH254369   1.194   1.252   3.052 -0.2482 -0.6167 -0.8554
10985TIP3    H154370   1.255   1.185   3.082  0.0902  1.1063  2.8534
10985TIP3    H254371   1.108   1.210   3.057  0.0498 -1.1093  0.4438
10986TIP3   OH254372   0.886   5.569   5.573 -0.1568  0.0860 -0.2640
10986TIP3    H154373   0.840   5.489   5.596 -0.7314  0.5586  0.2620
10986TIP3    H254374   0.951   5.542   5.508 -0.8952 -0.6617 -0.7111
10987TIP3   OH254375   1.928   5.746  11.886 -0.4708 -0.3904 -0.2121
10987TIP3    H154376   2.004   5.805  11.885  2.0443 -3.3624 -2.1978
10987TIP3    H254377   1.856   5.799  11.851  0.7292  2.3876  1.1861
10988TIP3   OH254378   3.051   3.895   0.362 -0.2904  0.1058 -0.0034
10988TIP3    H154379   3.067   3.968   0.302  0.5927  0.0604  0.1776
10988TIP3    H254380   3.021   3.936   0.443  0.2216  0.2703  0.1036
10989TIP3   OH254381   1.340   2.466   4.662 -0.1091  0.2860  0.6629
10989TIP3    H154382   1.418   2.481   4.609 -1.3364 -0.6719 -1.5978
10989TIP3    H254383   1.360   2.386   4.712  0.6323  0.4945  0.7067
10990TIP3   OH254384   5.633   3.954   4.661 -0.2974  0.2568 -0.0031
10990TIP3    H154385   5.693   3.894   4.618 -3.5329 -1.6302 -2.3698
10990TIP3    H254386   5.612   3.911   4.744  1.7073  1.1050  1.0061
10991TIP3   OH254387   5.646   3.372  12.855 -0.5054 -0.0187 -0.1257
10991TIP3    H154388   5.623   3.297  12.909  2.0924 -0.6027  0.3182
10991TIP3    H254389   5.723   3.344  12.806 -1.8431  1.0097 -3.1010
10992TIP3   OH254390   1.155   6.095   5.543  0.7190 -0.1300  0.1120
10992TIP3    H154391   1.089   6.164   5.531 -0.6338 -1.6666 -2.1321
10992TIP3    H254392   1.239   6.141   5.540 -0.1488  1.5004 -0.5810
10993TIP3   OH254393   5.993   1.701   1.468  0.5592  0.4767 -0.1260
10993TIP3    H154394   5.909   1.743   1.487 -0.0574 -0.7530  0.0320
10993TIP3    H254395   6.056   1.744   1.525  0.1650  1.8410 -0.6875
10994TIP3   OH254396   2.386   4.186  14.766  0.2919 -0.1190  0.1990
10994TIP3    H154397   2.401   4.211  14.675 -2.7169  1.5595  0.0330
10994TIP3    H254398   2.331   4.108  14.761  0.4796 -0.2841  0.6254
10995TIP3   OH254399   1.255   1.392  13.459  0.9760 -0.2855 -0.0905
10995TIP3    H154400   1.298   1.445  13.392  0.8025 -1.5056 -1.2376
10995TIP3    H254401   1.163   1.417  13.454  0.9147 -0.5863 -0.5369
10996TIP3   OH254402   0.898   2.566   2.727 -0.5330  0.8273 -0.1689
10996TIP3    H154403   0.809   2.534   2.746 -0.6108  0.7271 -0.6989
10996TIP3    H254404   0.956   2.501   2.766 -0.6947  0.5675 -0.3563
10997TIP3   OH254405   3.654   1.976   2.826  0.3502 -0.0570 -0.0916
10997TIP3    H154406   3.717   2.041   2.856  0.5290 -1.3532  2.6945
10997TIP3    H254407   3.574   1.996   2.875 -0.3462 -0.5059 -1.0079
10998TIP3   OH254408   1.298   1.002  12.950  0.4576  0.4621 -0.2022
10998TIP3    H154409   1.300   0.907  12.964  0.4215  0.4696 -0.1481
10998TIP3    H254410   1.308   1.040  13.037 -1.4309  0.5066  0.0354
10999TIP3   OH254411   4.570   3.871   5.464 -0.2316 -0.1958 -0.2464
10999TIP3    H154412   4.485   3.856   5.504  0.0658  0.9429  0.9027
10999TIP3    H254413   4.631   3.872   5.538  0.7751 -0.9546 -1.0453
11000TIP3   OH254414   1.709   0.441   4.326  0.7545 -0.3155 -0.2231
11000TIP3    H154415   1.617   0.418   4.320  0.6483 -0.1240  0.6037
11000TIP3    H254416   1.710   0.537   4.322  0.8287 -0.2692  0.8138
11001TIP3   OH254417   2.954   2.387   1.923  0.2539  0.1641  0.6502
11001TIP3    H154418   3.043   2.353   1.919  0.9645  1.9232  0.8007
11001TIP3    H254419   2.953   2.460   1.861 -1.1097  0.1244  0.5946
11002TIP3   OH254420   3.196   5.249  15.377 -0.0853 -0.1608  0.1637
11002TIP3    H154421   3.223   5.270  15.466  0.2379  2.0859 -0.3872
11002TIP3    H254422   3.133   5.318  15.354 -0.0594 -0.6076 -1.3905
11003TIP3   OH254423   6.258   6.414  11.932 -0.6081  0.0183 -0.5923
11003TIP3    H154424   6.218   6.478  11.873  0.2828  0.4530 -0.7476
11003TIP3    H254425   6.239   6.329  11.892  1.9630  0.3881 -2.8448
11004TIP3   OH254426   4.435   5.405   0.208  0.0194 -0.1849  0.0492
11004TIP3    H154427   4.450   5.497   0.230 -0.7281  0.2914 -1.3008
11004TIP3    H254428   4.463   5.398   0.117 -1.8461 -0.7806 -0.5228
11005TIP3   OH254429   5.223   1.404   2.194 -0.0881 -0.1383  0.0722
11005TIP3    H154430   5.231   1.359   2.110  2.6409 -0.2351  0.3038
11005TIP3    H254431   5.251   1.339   2.258 -0.5188  0.4772  0.8919
11006TIP3   OH254432   0.122   2.550   5.100  0.3100 -0.1207 -0.1046
11006TIP3    H154433   0.084   2.465   5.122  0.9868 -0.7211 -1.1889
11006TIP3    H254434   0.126   2.597   5.183  0.0388 -1.1900  0.5259
11007TIP3   OH254435   6.493   6.221   5.506 -0.2127  0.0358  0.3698
11007TIP3    H154436   6.409   6.226   5.552 -0.2452  0.1356  0.2995
11007TIP3    H254437   6.470   6.185   5.420 -0.2208  0.3227  0.2526
11008TIP3   OH254438   5.463   4.348   2.719 -0.0095  0.0502 -0.2070
11008TIP3    H154439   5.388   4.404   2.738 -0.2573 -0.3313 -0.0507
11008TIP3    H254440   5.490   4.374   2.631 -0.6016 -0.1167 -0.4429
11009TIP3   OH254441   3.304   4.222   0.361 -0.2867  0.4556  0.9766
11009TIP3    H154442   3.288   4.304   0.407 -1.6127  0.4835  0.5130
11009TIP3    H254443   3.318   4.158   0.431 -1.0610  0.7325  1.3945
11010TIP3   OH254444   2.220   5.174   1.253  0.0300 -0.2833 -0.3545
11010TIP3    H154445   2.269   5.103   1.295  0.6605  0.0637 -0.4882
11010TIP3    H254446   2.256   5.177   1.164 -0.9370 -0.6806 -0.7710
11011TIP3   OH254447   2.866   5.551   1.635  0.5159 -0.2757 -0.3747
11011TIP3    H154448   2.839   5.460   1.629  0.0167 -0.2286  0.7570
11011TIP3    H254449   2.949   5.549   1.682  0.0501 -0.1068  0.4850
11012TIP3   OH254450   1.091   6.512  12.144 -0.1421 -0.2300 -0.3837
11012TIP3    H154451   1.053   6.445  12.087  0.0607 -1.5273  0.9394
11012TIP3    H254452   1.172   6.474  12.176 -1.2507 -0.5135  2.4393
11013TIP3   OH254453   4.796   1.198  15.368  0.1673  0.0042  0.0339
11013TIP3    H154454   4.760   1.277  15.328  1.8641  0.6378 -0.3082
11013TIP3    H254455   4.885   1.192  15.334  0.5373 -1.2846  1.1444
11014TIP3   OH254456   4.133   6.657  14.404 -0.1533  0.0666  0.3535
11014TIP3    H154457   4.073   6.728  14.377 -2.0114 -1.3177  0.6163
11014TIP3    H254458   4.163   6.683  14.491 -1.8752 -0.0458  1.0260
11015TIP3   OH254459   1.923   4.619   1.371 -0.0825  0.0148  0.1132
11015TIP3    H154460   1.832   4.609   1.401 -0.5156  0.7462 -0.8844
11015TIP3    H254461   1.963   4.534   1.386 -1.3135 -0.7336 -0.6508
11016TIP3   OH254462   0.286   6.443  12.829  0.0160 -0.3793  0.7408
11016TIP3    H154463   0.325   6.425  12.743  0.5682  1.0411  0.6548
11016TIP3    H254464   0.330   6.382  12.888 -0.4612 -1.4636  0.0099
11017TIP3   OH254465   2.864   4.235  12.390  0.0272  0.3114 -0.3499
11017TIP3    H154466   2.788   4.177  12.382  0.6710 -0.5770 -0.1230
11017TIP3    H254467   2.928   4.199  12.328  1.0439 -0.2180  0.9677
11018TIP3   OH254468   4.772   6.372   4.925  0.5476  0.0913  0.4091
11018TIP3    H154469   4.692   6.331   4.958  0.2016  0.1586 -0.3190
11018TIP3    H254470   4.843   6.330   4.974  0.0859 -0.1420  0.8879
11019TIP3   OH254471   4.465   5.888  13.027 -0.6250 -0.4677 -0.6573
11019TIP3    H154472   4.377   5.854  13.044 -0.5479 -0.5417 -0.3986
11019TIP3    H254473   4.451   5.970  12.979 -0.9001  0.4040  0.8406
11020TIP3   OH254474   2.734   4.214   0.602  0.1666  0.2562 -0.1435
11020TIP3    H154475   2.775   4.160   0.534 -1.4076 -1.3744  0.1485
11020TIP3    H254476   2.656   4.250   0.561 -0.5082 -0.3034  0.6158
11021TIP3   OH254477   3.453   4.275  14.537 -0.2216  0.1951  0.2121
11021TIP3    H154478   3.393   4.349  14.543 -0.6638 -0.0878 -0.6097
11021TIP3    H254479   3.513   4.287  14.610 -0.2173  1.4200  0.0203
11022TIP3   OH254480   2.135   5.084   5.876  0.5405 -0.4635 -0.7082
11022TIP3    H154481   2.141   5.180   5.876  2.2037 -0.5090  0.6716
11022TIP3    H254482   2.041   5.066   5.875  0.1929  1.1366 -2.2702
11023TIP3   OH254483   6.108   1.482  15.540 -0.0670  0.7344 -1.1720
11023TIP3    H154484   6.041   1.521  15.484 -1.2228  0.8359  0.2179
11023TIP3    H254485   6.158   1.557  15.574 -0.0453  0.7541 -1.2493
11024TIP3   OH254486   2.884   2.931   4.057  0.4520  0.5143 -0.2690
11024TIP3    H154487   2.819   2.989   4.018 -0.4751 -0.1645  0.2340
11024TIP3    H254488   2.929   2.891   3.982 -0.2595  0.3781 -0.6298
11025TIP3   OH254489   6.554   5.308   3.532 -0.1861  0.2476 -0.6205
11025TIP3    H154490   6.559   5.283   3.440 -1.4714  0.5394 -0.7876
11025TIP3    H254491   6.544   5.404   3.530 -1.0150  0.1776 -0.2262
11026TIP3   OH254492   4.877   2.610  14.082  0.6873  0.8397 -0.0049
11026TIP3    H154493   4.868   2.545  14.151  0.4469  0.8156 -0.0600
11026TIP3    H254494   4.913   2.688  14.126 -1.1404  1.4431  0.5006
11027TIP3   OH254495   1.176   2.429   0.665 -0.0199  0.6488  0.4490
11027TIP3    H154496   1.170   2.381   0.582 -3.0606  0.9941  0.3653
11027TIP3    H254497   1.175   2.521   0.639 -1.5586  0.7659  0.8257
11028TIP3   OH254498   3.730   4.272   3.015 -0.0344 -0.3776 -0.2931
11028TIP3    H154499   3.636   4.285   3.027  0.1470 -0.7013  1.7792
11028TIP3    H254500   3.766   4.361   3.012 -0.5820 -0.1311 -3.5835
11029TIP3   OH254501   4.157   4.533   3.867 -0.0447  0.0825  0.2679
11029TIP3    H154502   4.070   4.572   3.872 -0.5861 -0.8564 -1.0687
11029TIP3    H254503   4.207   4.593   3.811 -1.2548 -1.6014 -2.8956
11030TIP3   OH254504   2.355   3.633  11.569 -0.7520 -0.3814  0.1018
11030TIP3    H154505   2.434   3.635  11.514 -0.3077  2.6874  0.6764
11030TIP3    H254506   2.381   3.677  11.650 -2.6478 -0.7248  0.9469
11031TIP3   OH254507   6.634   5.882   2.614  0.1943  0.5124  0.6673
11031TIP3    H154508   6.561   5.920   2.664  0.2042  1.0058  0.3192
11031TIP3    H254509   6.712   5.918   2.655  0.2592 -0.2696  1.2437
11032TIP3   OH254510   3.760   2.623  15.164  0.2488  0.6959  0.6168
11032TIP3    H154511   3.756   2.711  15.126 -1.3564  0.3807 -0.0165
11032TIP3    H254512   3.785   2.566  15.090 -2.2820  0.1634  0.0863
11033TIP3   OH254513   5.246   3.247   1.597  0.0315  0.4256 -0.2281
11033TIP3    H154514   5.323   3.304   1.595  0.1234  0.4068  1.2898
11033TIP3    H254515   5.230   3.225   1.505 -0.0928  3.0075 -0.8996
11034TIP3   OH254516   0.695   0.753  10.473 -0.6828  0.4283 -0.2120
11034TIP3    H154517   0.758   0.816  10.508 -0.0158 -0.9296  1.1337
11034TIP3    H254518   0.611   0.780  10.509 -0.9256  2.1394 -1.8694
11035TIP3   OH254519   2.818   5.125  15.582 -0.0550  0.7683 -0.8027
11035TIP3    H154520   2.765   5.197  15.549 -0.5810  0.4393 -0.6765
11035TIP3    H254521   2.855   5.157  15.664 -0.3481  0.8691 -0.7111
11036TIP3   OH254522   4.011   3.891  11.444 -0.7171  0.1801 -0.0620
11036TIP3    H154523   4.022   3.849  11.529  0.0218  0.0083 -0.2354
11036TIP3    H254524   4.085   3.951  11.438  0.7776 -1.7269 -1.7114
11037TIP3   OH254525   0.124   2.713  11.453  0.5231 -0.1722 -0.0811
11037TIP3    H154526   0.088   2.799  11.475 -2.9329 -1.7827  1.2348
11037TIP3    H254527   0.219   2.726  11.453  0.1355  3.7982 -0.8800
11038TIP3   OH254528   4.470   6.674  14.931 -0.3652 -0.0485 -0.0220
11038TIP3    H154529   4.392   6.666  14.986 -0.1741 -1.8059  0.0636
11038TIP3    H254530   4.473   6.591  14.882  1.1775  0.1835 -0.3722
11039TIP3   OH254531   2.310   5.144   0.635  0.3909 -0.4740 -0.1299
11039TIP3    H154532   2.312   5.056   0.674 -0.5897 -0.3077  0.3222
11039TIP3    H254533   2.376   5.193   0.685  0.6084 -0.8236 -0.0652
11040TIP3   OH254534   5.199   5.595   6.035 -0.1906 -0.1879 -0.0064
11040TIP3    H154535   5.266   5.657   6.005 -1.0017 -0.9688 -3.9642
11040TIP3    H254536   5.242   5.510   6.030 -0.0045 -0.3133  2.5093
11041TIP3   OH254537   1.895   3.066  12.160  0.3070 -1.3380  0.0353
11041TIP3    H154538   1.984   3.050  12.128  0.5115 -0.1499 -0.0592
11041TIP3    H254539   1.903   3.148  12.209 -0.9314 -0.7105 -0.7908
11042TIP3   OH254540   3.355   5.170  11.574  0.0311  0.1244 -0.1181
11042TIP3    H154541   3.400   5.172  11.659 -1.2716 -0.5443  0.6310
11042TIP3    H254542   3.320   5.081  11.568  0.2909  0.0948 -1.4754
11043TIP3   OH254543   4.606   6.597   2.134  0.4922  0.1078 -0.3292
11043TIP3    H154544   4.697   6.609   2.106  0.1800 -0.5028 -1.6615
11043TIP3    H254545   4.575   6.685   2.154  0.9130  0.5125 -1.3857
11044TIP3   OH254546   3.669   3.755   0.474  0.0543  0.1788 -0.7458
11044TIP3    H154547   3.625   3.678   0.511  0.4143  0.3198  0.0020
11044TIP3    H254548   3.614   3.781   0.401 -1.1107  0.3520  0.1683
11045TIP3   OH254549   1.092   5.311  11.206  0.0323 -0.5249  0.1117
11045TIP3    H154550   1.004   5.284  11.182 -0.6970  1.3962  0.4475
11045TIP3    H254551   1.095   5.300  11.302 -0.1156  0.1453  0.1941
11046TIP3   OH254552   2.213   6.468   3.213  0.3045  0.5013  0.1512
11046TIP3    H154553   2.175   6.380   3.207  1.3384  0.0080  0.5698
11046TIP3    H254554   2.217   6.498   3.122 -1.3158  0.6921  0.1098
11047TIP3   OH254555   1.561   0.642  15.870 -0.0293  0.2905  0.1764
11047TIP3    H154556   1.597   0.670  15.954 -2.1511  0.9044  0.9471
11047TIP3    H254557   1.633   0.654  15.808  0.7616  2.6137  1.3965
11048TIP3   OH254558   4.324   2.407  12.633  0.0049  1.0038  0.0390
11048TIP3    H154559   4.245   2.411  12.686  0.5366  1.1366  0.8336
11048TIP3    H254560   4.376   2.337  12.672  1.3883  2.5625  1.1278
11049TIP3   OH254561   4.808   5.222  16.878 -0.2238  0.2483 -0.2327
11049TIP3    H154562   4.805   5.134  16.840  3.3094 -0.0864 -0.1272
11049TIP3    H254563   4.775   5.210  16.967 -2.4920 -0.2857 -1.0677
11050TIP3   OH254564   0.097   1.536   3.509  0.0059 -0.2103  0.2305
11050TIP3    H154565   0.117   1.512   3.419  1.4489  1.8827 -0.0813
11050TIP3    H254566   0.001   1.542   3.512 -0.0270  1.6981 -1.7985
11051TIP3   OH254567   3.608   1.603   2.229 -0.4361 -0.2675  0.0998
11051TIP3    H154568   3.541   1.575   2.167 -0.9622 -0.5455  0.7831
11051TIP3    H254569   3.560   1.621   2.310  0.2006  0.3949  0.3393
11052TIP3   OH254570   5.051   5.847  12.593 -0.2711  0.2451  0.3672
11052TIP3    H154571   5.079   5.899  12.668 -0.2961  1.8700 -0.7054
11052TIP3    H254572   5.132   5.807  12.560 -0.2812 -0.6011  1.3028
11053TIP3   OH254573   4.477   1.136   1.588  0.6893  0.0890  0.0222
11053TIP3    H154574   4.550   1.095   1.635  0.9154 -0.7166 -1.0046
11053TIP3    H254575   4.414   1.158   1.657  1.3533 -0.3379  0.7864
11054TIP3   OH254576   0.455   0.438  16.378 -0.2270  0.3606  0.3337
11054TIP3    H154577   0.527   0.424  16.317  0.7612  0.7668  1.3832
11054TIP3    H254578   0.403   0.357  16.373  0.1719  0.1564 -0.5982
11055TIP3   OH254579   6.013   1.426  14.423  0.3444  0.2908 -0.2887
11055TIP3    H154580   6.030   1.332  14.431  1.5007  0.4803 -0.3477
11055TIP3    H254581   5.972   1.450  14.506 -1.5866 -0.5687 -0.9334
11056TIP3   OH254582   5.034   2.580  13.868 -0.2847 -0.3862  0.3340
11056TIP3    H154583   4.959   2.577  13.927 -0.9540 -0.4766 -0.5028
11056TIP3    H254584   5.060   2.488  13.858  0.2976 -0.3093  1.0582
11057TIP3   OH254585   0.935   3.766   5.505  0.0934 -0.3715  0.2338
11057TIP3    H154586   0.884   3.716   5.441 -0.3644 -1.2462  1.2514
11057TIP3    H254587   0.961   3.702   5.571  0.0547  0.6062  1.2390
11058TIP3   OH254588   6.719   2.316   1.459  0.9337  0.2513  0.2295
11058TIP3    H154589   6.635   2.361   1.450  0.2247 -0.9720  0.3384
11058TIP3    H254590   6.776   2.357   1.395  0.1532  0.9134 -0.0537
11059TIP3   OH254591   0.512   0.719   3.464  0.0764 -0.5551 -0.2470
11059TIP3    H154592   0.552   0.682   3.543  1.5697  1.5748  0.0948
11059TIP3    H254593   0.584   0.766   3.421 -1.3008  0.5200 -1.4860
11060TIP3   OH254594   2.891   2.992  16.240  0.3262  0.1322 -0.6312
11060TIP3    H154595   2.861   2.901  16.237 -0.9110  0.5334 -0.9725
11060TIP3    H254596   2.968   2.990  16.297  1.9412 -1.5465 -2.7083
11061TIP3   OH254597   6.463   3.495   2.054  0.3650 -0.3632 -0.4743
11061TIP3    H154598   6.390   3.528   2.002 -0.3004 -0.7943  0.1641
11061TIP3    H254599   6.515   3.572   2.074  0.7883 -0.2121 -1.9785
11062TIP3   OH254600   0.498   2.212   4.528 -0.0898  0.1741  0.0660
11062TIP3    H154601   0.468   2.128   4.561 -2.3170  0.9110  0.1095
11062TIP3    H254602   0.435   2.235   4.460 -0.5248  2.5228  1.1659
11063TIP3   OH254603   6.458   0.094   5.878 -0.0155  0.2958 -0.4182
11063TIP3    H154604   6.414   0.049   5.951  0.0411  1.6133  0.4519
11063TIP3    H254605   6.504   0.167   5.918  1.9319 -0.2653 -1.4946
11064TIP3   OH254606   4.483   1.069   4.852  0.1393 -0.1575  0.3652
11064TIP3    H154607   4.414   1.109   4.905  1.1247  0.3076  1.3066
11064TIP3    H254608   4.502   1.133   4.784  0.4303  0.1925  0.7767
11065TIP3   OH254609   4.307   1.522  16.599 -0.1286  0.1523  0.2404
11065TIP3    H154610   4.399   1.526  16.573 -0.4145 -1.0303 -1.0578
11065TIP3    H254611   4.260   1.503  16.518 -1.4623  0.0919  0.9978
11066TIP3   OH254612   4.384   0.590   4.859 -0.1075 -0.2379 -0.4413
11066TIP3    H154613   4.359   0.682   4.847 -0.8538 -0.5543 -1.4674
11066TIP3    H254614   4.472   0.594   4.895 -1.6082  0.9404  3.6641
11067TIP3   OH254615   4.040   1.157   2.688  0.2610 -0.4306  0.4331
11067TIP3    H154616   4.006   1.115   2.767  1.1466 -0.0770  1.0151
11067TIP3    H254617   4.048   1.250   2.713 -0.7913 -0.0602 -0.5288
11068TIP3   OH254618   0.523   3.990   2.981 -0.0717  0.0190 -0.4706
11068TIP3    H154619   0.486   3.902   2.985 -0.0779  0.0547  1.3555
11068TIP3    H254620   0.527   4.011   2.888 -0.8602 -1.5711 -0.8935
11069TIP3   OH254621   0.507   0.227   1.402  0.0032 -0.8302 -0.3433
11069TIP3    H154622   0.559   0.221   1.482 -0.9861  0.5999  0.4630
11069TIP3    H254623   0.447   0.300   1.418  0.0846 -0.2009 -2.5861
11070TIP3   OH254624   2.917   3.647  13.587  0.6105  0.0611  0.5142
11070TIP3    H154625   2.918   3.662  13.493  4.0710  2.7636  0.7580
11070TIP3    H254626   2.931   3.552  13.596 -1.1059 -0.4704 -1.5946
11071TIP3   OH254627   0.342   5.067   5.193 -0.1979  0.0891  0.1534
11071TIP3    H154628   0.379   5.009   5.259  0.8539  1.3042  0.6641
11071TIP3    H254629   0.417   5.094   5.140 -0.9661 -0.5926 -1.3598
11072TIP3   OH254630   1.041   5.832  13.940 -0.5859  0.2177 -0.3351
11072TIP3    H154631   1.016   5.924  13.936 -1.1013  0.1107  0.3042
11072TIP3    H254632   0.958   5.785  13.945 -0.3334 -0.1181  2.3017
11073TIP3   OH254633   3.257   4.970  12.179  0.4242 -0.2895  0.1918
11073TIP3    H154634   3.320   4.903  12.152 -1.1067 -0.2637 -4.2819
11073TIP3    H254635   3.299   5.053  12.152  1.9005  0.7887  4.8357
11074TIP3   OH254636   0.334   5.733   2.081 -0.4214  0.7236  0.0362
11074TIP3    H154637   0.387   5.741   2.160  0.3750  0.0027 -0.4081
11074TIP3    H254638   0.384   5.780   2.014 -0.6046  0.4836 -0.2694
11075TIP3   OH254639   4.514   5.864   3.747 -0.0226  0.2835 -0.3844
11075TIP3    H154640   4.490   5.830   3.833  2.3076 -1.1582 -0.2188
11075TIP3    H254641   4.546   5.953   3.764 -0.7077  0.4571  0.0349
11076TIP3   OH254642   2.309   5.704   1.659  0.5089  0.6184  0.0055
11076TIP3    H154643   2.271   5.767   1.721 -1.0121  1.3211 -1.5355
11076TIP3    H254644   2.234   5.653   1.629  1.5803 -1.3108  0.4754
11077TIP3   OH254645   1.185   5.306  16.995  0.4693  0.3015 -0.4070
11077TIP3    H154646   1.178   5.223  17.043 -0.7529 -0.7473 -2.2542
11077TIP3    H254647   1.173   5.374  17.061 -4.4011 -1.0455  0.5288
11078TIP3   OH254648   0.245   4.505   1.304  0.1359  0.3937  0.1429
11078TIP3    H154649   0.175   4.556   1.263  0.2890 -0.9639 -2.0097
11078TIP3    H254650   0.204   4.464   1.380 -0.9531  0.9341 -0.1331
11079TIP3   OH254651   0.173   2.976   5.213 -0.7573  0.1313 -0.3852
11079TIP3    H154652   0.136   2.902   5.260 -1.0549  0.7081  0.3062
11079TIP3    H254653   0.268   2.966   5.222 -0.8149  0.4031  0.6174
11080TIP3   OH254654   3.784   0.673  13.458  0.0227 -0.2747  0.9494
11080TIP3    H154655   3.837   0.743  13.421 -1.8328  0.4581 -0.4767
11080TIP3    H254656   3.733   0.715  13.527  0.5966 -0.7706  1.6948
11081TIP3   OH254657   1.498   3.915   4.217 -0.3181  0.8003  0.0809
11081TIP3    H154658   1.435   3.985   4.199  0.3113  1.2391 -0.4466
11081TIP3    H254659   1.518   3.924   4.311 -1.5089  0.2514  0.4107
11082TIP3   OH254660   3.503   3.597  15.415 -0.0199 -0.1215  0.3348
11082TIP3    H154661   3.412   3.624  15.417 -0.9244 -2.4235 -2.2055
11082TIP3    H254662   3.551   3.674  15.384 -1.2246  0.8630  0.8693
11083TIP3   OH254663   3.581   1.948  12.049 -0.0767  0.5886 -0.3027
11083TIP3    H154664   3.542   2.035  12.052  0.2838  0.7582 -0.4386
11083TIP3    H254665   3.631   1.940  12.130 -0.5140  0.3125 -0.0562
11084TIP3   OH254666   1.207   0.220  14.607 -0.1877 -0.4843 -0.3743
11084TIP3    H154667   1.217   0.205  14.701 -0.8812 -1.5909 -0.4682
11084TIP3    H254668   1.258   0.300  14.591 -1.8178  0.9824  1.2972
11085TIP3   OH254669   5.371   0.198   5.541  0.6436 -0.6910 -0.0796
11085TIP3    H154670   5.445   0.163   5.492  0.2311  0.2005 -1.4321
11085TIP3    H254671   5.321   0.247   5.475 -0.7549 -0.6835  0.9498
11086TIP3   OH254672   0.248   2.505  15.812  0.1599  0.0320 -0.4405
11086TIP3    H154673   0.218   2.432  15.865 -1.9782  0.8425 -0.4272
11086TIP3    H254674   0.293   2.464  15.738 -2.3927 -1.4563 -1.3029
11087TIP3   OH254675   1.830   1.969   4.779  0.6109 -0.1973  0.2783
11087TIP3    H154676   1.876   1.977   4.863  1.7948 -0.5913 -0.3177
11087TIP3    H254677   1.860   2.043   4.728  0.9376 -0.7133 -0.2853
11088TIP3   OH254678   2.007   6.532   3.877 -0.4217  0.0686 -0.0888
11088TIP3    H154679   2.015   6.575   3.792 -1.7835  1.5022  0.4498
11088TIP3    H254680   1.913   6.516   3.887 -0.1942 -0.7982  0.8252
11089TIP3   OH254681   0.431   2.526   4.573 -0.4779  0.3927 -0.0043
11089TIP3    H154682   0.461   2.508   4.662  0.0050 -1.5545 -0.5125
11089TIP3    H254683   0.353   2.471   4.562  1.0579 -1.5873 -1.6552
11090TIP3   OH254684   6.456   1.701   5.176  0.1133 -0.6191  0.1165
11090TIP3    H154685   6.464   1.624   5.119 -1.4443 -0.2918 -0.6130
11090TIP3    H254686   6.375   1.743   5.146  0.5504  0.8890  1.0012
11091TIP3   OH254687   0.021   3.443  16.145 -0.7831  0.0619 -0.3196
11091TIP3    H154688   0.035   3.351  16.166  1.4732  0.4992  0.3834
11091TIP3    H254689   0.044   3.490  16.226  0.1668  1.3409 -1.2854
11092TIP3   OH254690   1.139   0.830   4.080 -0.0420  0.4695 -0.1083
11092TIP3    H154691   1.165   0.847   3.989  1.2282 -1.1691 -0.0921
11092TIP3    H254692   1.065   0.889   4.095  0.3365  1.4680 -1.8891
11093TIP3   OH254693   6.040   0.941   4.778 -0.3164  0.1243 -0.1917
11093TIP3    H154694   6.063   1.022   4.732 -0.2163  0.5217  0.5321
11093TIP3    H254695   6.124   0.904   4.805 -0.2983 -0.8164 -1.4809
11094TIP3   OH254696   4.208   0.041  16.198  0.7950  0.3253  1.0954
11094TIP3    H154697   4.125   0.082  16.173  0.7096 -0.7411 -0.6098
11094TIP3    H254698   4.182  -0.036  16.249  0.6941 -0.1874  0.2889
11095TIP3   OH254699   0.804   1.428   6.357 -0.5309  0.5248 -0.5630
11095TIP3    H154700   0.733   1.487   6.383 -0.5107  0.9592 -1.4389
11095TIP3    H254701   0.880   1.486   6.344  0.0984  0.0170  0.7504
11096TIP3   OH254702   6.081   3.171  15.069 -0.4037  0.2999  0.5822
11096TIP3    H154703   6.175   3.156  15.081 -0.2168  1.0052  0.0034
11096TIP3    H254704   6.040   3.097  15.115  0.3802  0.9318  2.4009
11097TIP3   OH254705   5.037   0.050  13.298 -0.4518  0.0157 -0.2907
11097TIP3    H154706   5.021   0.017  13.210  0.1754  2.0521 -1.2319
11097TIP3    H254707   5.110  -0.003  13.331  0.1283  0.0276 -1.5073
11098TIP3   OH254708   4.680   6.117  16.756 -0.0589  0.5547 -0.8353
11098TIP3    H154709   4.630   6.082  16.829  0.3722  0.2040 -0.7000
11098TIP3    H254710   4.728   6.042  16.721 -1.5484  0.3422 -2.5833
11099TIP3   OH254711   1.530   6.144  10.437 -0.0009 -0.4747 -0.5971
11099TIP3    H154712   1.591   6.109  10.372  0.5810 -2.4958  0.9091
11099TIP3    H254713   1.567   6.116  10.521 -0.7803  1.9159  0.6378
11100TIP3   OH254714   2.736   3.105  13.234  0.0403 -0.4969  0.2686
11100TIP3    H154715   2.739   3.141  13.322  0.8036 -0.5595  0.2764
11100TIP3    H254716   2.806   3.151  13.187 -0.4879 -0.3237 -0.3564
11101TIP3   OH254717   4.966   0.338   0.780  0.0009 -0.1793 -0.2417
11101TIP3    H154718   5.040   0.318   0.723 -1.6994 -0.3973 -2.5476
11101TIP3    H254719   4.908   0.263   0.771  0.7164 -1.4222  3.8768
11102TIP3   OH254720   5.726   4.798   4.218 -0.4286  0.1285 -0.2416
11102TIP3    H154721   5.764   4.737   4.154 -0.9063  0.5361 -0.9290
11102TIP3    H254722   5.670   4.744   4.273 -2.4039  0.1892 -2.0543
11103TIP3   OH254723   1.820   6.731   4.168  1.2895  0.5054  0.5443
11103TIP3    H154724   1.835   6.749   4.075  0.2501  0.5312  0.3736
11103TIP3    H254725   1.739   6.777   4.189  2.1228  1.4695  1.7652
11104TIP3   OH254726   1.880   5.218  16.841 -0.5957  0.3307  0.2877
11104TIP3    H154727   1.919   5.144  16.886 -0.4339  0.4014  0.2636
11104TIP3    H254728   1.790   5.191  16.824 -0.4908  0.0752  0.1353
11105TIP3   OH254729   1.045   3.703   1.392  0.3082  0.1551 -0.1385
11105TIP3    H154730   0.999   3.634   1.343  1.4184 -0.6907 -0.0414
11105TIP3    H254731   1.137   3.689   1.371  0.7549  0.2468  1.5945
11106TIP3   OH254732   1.602   4.362   1.326  0.2727 -0.6266  0.2003
11106TIP3    H154733   1.670   4.299   1.304  0.1531  0.0967 -2.5907
11106TIP3    H254734   1.648   4.445   1.337  0.0134 -0.3825 -0.4671
11107TIP3   OH254735   5.668   5.284  16.267  0.3647  0.2175  0.0860
11107TIP3    H154736   5.713   5.229  16.332  1.8266  1.0052 -0.2193
11107TIP3    H254737   5.709   5.370  16.276 -2.3362  1.5179  1.0351
11108TIP3   OH254738   4.447   2.114  13.081  0.2489 -0.6471 -0.0411
11108TIP3    H154739   4.449   2.165  13.000  0.8797 -1.0904 -0.3230
11108TIP3    H254740   4.495   2.167  13.144 -0.5653 -0.1320  0.1538
11109TIP3   OH254741   1.655   5.982  15.542  0.0252 -0.0737  0.7320
11109TIP3    H154742   1.681   5.924  15.613 -1.1292 -2.0826 -0.3695
11109TIP3    H254743   1.659   5.926  15.464 -1.9774  1.0774 -0.2731
11110TIP3   OH254744   5.407   2.371  12.034  0.2602 -0.7150  0.5769
11110TIP3    H154745   5.370   2.286  12.009  1.2958 -0.9547 -0.1854
11110TIP3    H254746   5.493   2.373  11.992  0.2620  0.6967  0.6246
11111TIP3   OH254747   3.050   2.815   3.844  0.3205  0.0010 -0.3669
11111TIP3    H154748   3.000   2.818   3.762  0.9934  0.8587 -0.7621
11111TIP3    H254749   3.138   2.846   3.820  0.1863  1.5074  0.9112
11112TIP3   OH254750   0.768   1.624  11.861  0.1241  0.1572  0.2521
11112TIP3    H154751   0.783   1.691  11.928 -1.8772  0.2850  0.6465
11112TIP3    H254752   0.770   1.541  11.909 -0.0570  0.1547  0.2575
11113TIP3   OH254753   5.639   5.435   1.261 -0.5759  0.3090  0.2354
11113TIP3    H154754   5.701   5.508   1.270 -0.4785  0.0923  1.6489
11113TIP3    H254755   5.640   5.414   1.168  0.7787  0.9314  0.0772
11114TIP3   OH254756   0.289   2.017   0.203  0.1871  0.3664 -0.3506
11114TIP3    H154757   0.199   2.000   0.177 -1.0489  0.7563  3.1243
11114TIP3    H254758   0.312   1.943   0.260 -0.1064  2.7925  3.2852
11115TIP3   OH254759   6.077   3.629   0.477  0.5231  0.0739  0.0380
11115TIP3    H154760   6.074   3.540   0.443 -0.0077  0.7133 -1.6643
11115TIP3    H254761   6.090   3.617   0.572  2.7725 -1.7385 -0.4141
11116TIP3   OH254762   1.288   4.585  14.494 -0.4573  0.4723  0.6638
11116TIP3    H154763   1.251   4.659  14.542  0.6909  0.6222  1.3494
11116TIP3    H254764   1.353   4.625  14.436  2.6801 -0.1789  3.4174
11117TIP3   OH254765   6.533   4.561   4.149  0.4910  0.6892 -0.0983
11117TIP3    H154766   6.559   4.649   4.123  0.3242  0.5207 -0.8472
11117TIP3    H254767   6.439   4.567   4.166  0.3784  0.5424 -0.6550
11118TIP3   OH254768   1.929   0.294  15.892 -0.6917  0.5782  0.4176
11118TIP3    H154769   1.874   0.332  15.824  0.0483  2.1910  0.6646
11118TIP3    H254770   1.872   0.285  15.968 -1.2548 -0.2434 -0.0942
11119TIP3   OH254771   0.007   5.255   3.700 -0.1595  0.2185 -0.0606
11119TIP3    H154772  -0.020   5.340   3.735 -0.6806  0.1304 -0.2323
11119TIP3    H254773  -0.054   5.239   3.628  1.1513  0.5852 -1.2967
11120TIP3   OH254774   5.378   0.706   1.168  0.1696 -0.2046 -0.4016
11120TIP3    H154775   5.406   0.636   1.227 -1.2211 -0.6707 -0.2836
11120TIP3    H254776   5.448   0.711   1.102 -0.3510 -2.6799 -1.2521
11121TIP3   OH254777   2.814   2.381  12.849 -0.1316 -0.2859 -0.3454
11121TIP3    H154778   2.895   2.338  12.821  1.0141  0.9270  0.9317
11121TIP3    H254779   2.834   2.415  12.936 -1.8701  0.4796 -0.1996
11122TIP3   OH254780   0.752   1.357   1.477 -0.5830 -0.4288  0.3434
11122TIP3    H154781   0.791   1.280   1.517 -0.3359 -0.1710  0.6006
11122TIP3    H254782   0.683   1.383   1.537  0.1093  0.2493  0.8613
11123TIP3   OH254783   5.186   1.059   3.045 -0.5807  0.8300  0.1318
11123TIP3    H154784   5.120   1.009   3.092  0.7280 -1.0990  0.0137
11123TIP3    H254785   5.155   1.061   2.954 -0.6151  0.1520  0.1236
11124TIP3   OH254786   2.881   4.860  16.429  0.1488  0.1943 -0.0802
11124TIP3    H154787   2.790   4.841  16.408 -0.1614 -1.7373  2.5329
11124TIP3    H254788   2.886   4.956  16.430 -1.7424  0.3335 -0.6712
11125TIP3   OH254789   3.750   3.999  13.432 -0.7566 -0.0210 -0.5790
11125TIP3    H154790   3.754   3.911  13.470  1.8667  0.0390 -0.5315
11125TIP3    H254791   3.692   4.048  13.491  1.4358 -0.5298  2.1995
11126TIP3   OH254792   2.272   4.622   4.560  0.0605  0.3381  0.2293
11126TIP3    H154793   2.316   4.677   4.495 -1.6330  1.3655 -0.1046
11126TIP3    H254794   2.194   4.589   4.515  0.6925 -1.8638  0.6375
11127TIP3   OH254795   1.294   5.944  12.095  0.0672 -0.7447  0.1973
11127TIP3    H154796   1.346   5.864  12.094 -2.9009 -2.8211  0.8013
11127TIP3    H254797   1.287   5.966  12.188  2.6977  1.6672 -0.0236
11128TIP3   OH254798   2.916   5.562  14.444 -0.4658  0.3527  0.9504
11128TIP3    H154799   2.995   5.511  14.460 -2.9146 -2.7285  4.8951
11128TIP3    H254800   2.860   5.503  14.394  0.0006  3.1121 -3.3797
11129TIP3   OH254801   4.204   4.765  11.937 -0.6577 -0.1452 -0.5210
11129TIP3    H154802   4.133   4.776  12.000  0.1644 -0.5019  0.5183
11129TIP3    H254803   4.193   4.836  11.875 -1.1960  0.5433  0.3385
11130TIP3   OH254804   4.430   6.460  15.510  0.2749  0.1737  0.0452
11130TIP3    H154805   4.517   6.457  15.471 -0.7541 -1.8379 -2.3724
11130TIP3    H254806   4.427   6.383  15.567 -0.9522 -1.8706 -2.5834
11131TIP3   OH254807   3.281   2.748  11.443  0.1880  0.6696  0.0363
11131TIP3    H154808   3.252   2.682  11.506  1.3399  0.3166  0.2333
11131TIP3    H254809   3.218   2.819  11.450 -2.7635 -1.5073 -2.1386
11132TIP3   OH254810   4.788   1.260  13.796  0.3706 -0.0779 -0.8002
11132TIP3    H154811   4.801   1.266  13.702 -0.3380 -2.2953 -1.1109
11132TIP3    H254812   4.701   1.221  13.806  0.8700 -0.9100  0.7194
11133TIP3   OH254813   5.775   2.993   6.034 -0.1338 -0.1150 -0.5262
11133TIP3    H154814   5.866   2.974   6.059  0.0727  0.0189 -1.1512
11133TIP3    H254815   5.729   3.007   6.117  0.4947  0.1712 -0.2234
11134TIP3   OH254816   6.327   0.591  13.660  0.1679  0.1302 -1.0317
11134TIP3    H154817   6.336   0.522  13.726 -1.0659  1.4408  0.6118
11134TIP3    H254818   6.270   0.657  13.702 -0.4066  1.1824 -3.2970
11135TIP3   OH254819   3.700   3.897  14.684  0.0289 -0.1276  0.2418
11135TIP3    H154820   3.681   3.818  14.735 -0.0813  0.0537  0.4796
11135TIP3    H254821   3.614   3.933  14.661  0.0405 -0.9097 -1.1781
11136TIP3   OH254822   3.824   1.053   2.027 -0.4762 -0.1078  0.0537
11136TIP3    H154823   3.764   1.024   2.096  0.8046 -1.4071  0.6659
11136TIP3    H254824   3.902   0.999   2.038  1.0834  1.9165 -0.3383
11137TIP3   OH254825   0.402   5.384  15.721 -0.1040 -0.4544  0.0548
11137TIP3    H154826   0.319   5.343  15.697 -0.5613 -0.2337  1.1923
11137TIP3    H254827   0.468   5.327  15.684 -0.7338 -2.0467  1.2466
11138TIP3   OH254828   0.825   3.248  15.699 -0.5197 -0.6123  0.2577
11138TIP3    H154829   0.882   3.182  15.660 -1.3577 -1.1302 -0.1302
11138TIP3    H254830   0.879   3.292  15.764  0.4058 -0.8856 -0.3048
11139TIP3   OH254831   1.884   4.873  14.365 -0.4355  0.1083 -0.1477
11139TIP3    H154832   1.860   4.938  14.431 -1.7898  0.9355 -1.4003
11139TIP3    H254833   1.938   4.810  14.412 -1.0716  0.8540  1.6608
11140TIP3   OH254834   5.245   1.045  15.468  0.7865 -0.5082 -0.0913
11140TIP3    H154835   5.258   1.078  15.379 -1.5079  0.4508 -0.1446
11140TIP3    H254836   5.152   1.059  15.485  1.3205  0.1954  2.7974
11141TIP3   OH254837   6.640   6.064   6.254  0.7200  0.3289  0.5244
11141TIP3    H154838   6.594   5.995   6.303 -1.5773  0.6313 -1.0288
11141TIP3    H254839   6.726   6.069   6.294  1.0864 -3.5966  0.6096
11142TIP3   OH254840   0.350   6.010  15.056  0.5092  0.3848  0.3136
11142TIP3    H154841   0.359   5.931  15.003 -0.9269 -0.3188  1.0656
11142TIP3    H254842   0.360   6.082  14.993  0.3610 -0.4090 -0.6386
11143TIP3   OH254843   0.363   2.779  12.068  0.3741  0.1779 -0.6090
11143TIP3    H154844   0.402   2.729  12.139 -0.7862 -0.0788 -0.1294
11143TIP3    H254845   0.330   2.713  12.007 -0.1470  0.3676 -0.5388
11144TIP3   OH254846   5.346   6.003  10.649 -0.2160 -0.3887 -0.3841
11144TIP3    H154847   5.327   6.000  10.743  0.7089 -1.4377 -0.2182
11144TIP3    H254848   5.324   5.915  10.618 -0.3975 -0.0823 -1.1297
11145TIP3   OH254849   4.074   4.980  15.661 -0.4422 -0.1040 -0.1836
11145TIP3    H154850   4.158   5.026  15.668 -1.2544  1.1238  2.7567
11145TIP3    H254851   4.070   4.925  15.739 -1.2409 -2.2798 -1.6575
11146TIP3   OH254852   3.690   5.546   2.919  0.1951 -0.4389 -0.7021
11146TIP3    H154853   3.676   5.513   3.008  1.1906  1.8399  0.3915
11146TIP3    H254854   3.676   5.641   2.927  0.3915 -0.1706 -2.9808
11147TIP3   OH254855   5.798   6.662  11.693 -0.9276 -0.0935  0.1392
11147TIP3    H154856   5.738   6.658  11.619  1.1434  1.4855 -1.7633
11147TIP3    H254857   5.843   6.577  11.693 -1.3616 -0.3245 -0.0323
11148TIP3   OH254858   5.138   6.060  16.282  0.2751  0.5832  0.9146
11148TIP3    H154859   5.073   6.128  16.298  1.7134  2.3724 -0.3088
11148TIP3    H254860   5.182   6.049  16.367 -0.3534  0.7371  1.2688
11149TIP3   OH254861   4.266   3.051  15.364 -0.5522 -0.0340 -1.1561
11149TIP3    H154862   4.302   2.995  15.296 -0.2172 -2.9302  1.1925
11149TIP3    H254863   4.338   3.063  15.426 -1.3147  1.0409 -0.4375
11150TIP3   OH254864   2.372   5.810   4.982  0.1573 -0.0859  0.2846
11150TIP3    H154865   2.368   5.892   4.934  3.7913 -0.5681 -1.1217
11150TIP3    H254866   2.316   5.750   4.932  0.4124  0.5774 -0.8285
11151TIP3   OH254867   0.032   0.981   2.550  0.0710  0.2190  0.2123
11151TIP3    H154868   0.118   1.006   2.517  1.5213 -1.8300  2.2068
11151TIP3    H254869   0.004   0.909   2.493 -0.4108  0.9255 -0.4748
11152TIP3   OH254870   1.283   2.598  10.961  0.1949 -0.3260 -0.0397
11152TIP3    H154871   1.338   2.584  10.885 -0.1861 -1.8024 -0.0817
11152TIP3    H254872   1.194   2.605  10.926 -0.2706 -3.0681  0.3155
11153TIP3   OH254873   6.201   1.770   0.531  0.0399  0.3777 -0.0210
11153TIP3    H154874   6.149   1.783   0.452  1.7484  2.0012 -0.9486
11153TIP3    H254875   6.242   1.684   0.519 -0.7234  0.0375 -0.2622
11154TIP3   OH254876   3.737   0.242   5.486 -0.3030  0.0491  0.0037
11154TIP3    H154877   3.721   0.323   5.535 -0.4592 -1.4901  2.7018
11154TIP3    H254878   3.663   0.186   5.507 -0.0926 -0.9075 -1.6450
11155TIP3   OH254879   5.563   4.364  15.495  0.0409  0.3753 -0.5664
11155TIP3    H154880   5.552   4.430  15.564  0.6758  0.4086 -0.4919
11155TIP3    H254881   5.532   4.283  15.535 -1.6790  0.7877 -0.9823
11156TIP3   OH254882   6.030   0.793  13.233  0.0059 -0.2101 -0.4630
11156TIP3    H154883   5.959   0.743  13.274 -0.9044  0.9652 -0.5317
11156TIP3    H254884   6.094   0.807  13.303 -0.5019 -0.0870 -0.0159
11157TIP3   OH254885   1.595   6.069  16.869 -0.5108 -0.3258 -0.0955
11157TIP3    H154886   1.509   6.068  16.826  0.5820 -1.9673 -2.4388
11157TIP3    H254887   1.595   5.991  16.924 -0.7890  0.0782  0.4779
11158TIP3   OH254888   2.436   5.986  15.976 -0.4369 -0.3542 -0.6553
11158TIP3    H154889   2.407   5.983  16.067 -0.7961 -0.3840 -0.7718
11158TIP3    H254890   2.388   5.916  15.932 -0.5893 -0.0654 -0.9600
11159TIP3   OH254891   1.223   0.173   4.251 -0.5245 -0.1938 -0.5869
11159TIP3    H154892   1.292   0.136   4.305 -0.3622 -0.5378 -1.0228
11159TIP3    H254893   1.151   0.190   4.312 -1.3559 -3.0333 -0.6199
11160TIP3   OH254894   4.184   1.709   5.928 -0.5714  0.7103 -0.8371
11160TIP3    H154895   4.188   1.767   6.004 -0.1586 -0.3615 -0.0113
11160TIP3    H254896   4.126   1.638   5.956 -0.0468  0.0763 -1.3584
11161TIP3   OH254897   0.001   1.663   5.871  0.1794  0.4253 -0.1094
11161TIP3    H154898  -0.046   1.747   5.868  1.2060  1.0200 -0.2743
11161TIP3    H254899  -0.032   1.615   5.795  0.0141  0.9310 -0.3685
11162TIP3   OH254900   2.837   6.391  12.720  0.2252 -0.1882 -0.3822
11162TIP3    H154901   2.874   6.366  12.635  1.1485  1.2001 -0.4186
11162TIP3    H254902   2.909   6.432  12.767 -0.8990  1.4054  0.0565
11163TIP3   OH254903   2.844   4.280  16.988 -0.1496  0.4118 -0.1028
11163TIP3    H154904   2.794   4.322  17.058 -0.1230  1.6395 -0.7905
11163TIP3    H254905   2.895   4.351  16.949  2.2733 -0.8091  0.6407
11164TIP3   OH254906   4.398   1.006   3.108 -0.1729 -0.1406 -0.0304
11164TIP3    H154907   4.465   1.005   3.040  0.5739  0.3530  0.6721
11164TIP3    H254908   4.348   1.087   3.092 -1.1722 -0.9362 -1.0695
11165TIP3   OH254909   2.631   2.592  15.406 -0.0581 -0.0325 -0.3684
11165TIP3    H154910   2.631   2.626  15.316  0.1479 -2.7130 -1.4834
11165TIP3    H254911   2.723   2.577  15.426 -0.2371 -2.8162 -1.2047
11166TIP3   OH254912   0.388   6.013  12.429  0.4979 -0.3453  0.1667
11166TIP3    H154913   0.329   5.997  12.503  0.5038  1.1819  0.5548
11166TIP3    H254914   0.380   5.936  12.374 -0.8102 -0.7762  0.9187
11167TIP3   OH254915   5.990   4.434  14.251 -0.1269  0.0634  0.0490
11167TIP3    H154916   5.988   4.496  14.324  1.2664  1.0420 -0.7026
11167TIP3    H254917   6.061   4.465  14.195 -0.9164 -0.8833 -1.5394
11168TIP3   OH254918   4.546   0.629  11.448 -0.4303  0.1427 -0.5589
11168TIP3    H154919   4.611   0.682  11.402  0.1718 -0.1138 -0.0153
11168TIP3    H254920   4.556   0.541  11.412  1.6991 -0.6248  1.6660
11169TIP3   OH254921   1.839   2.889  13.979  0.6038 -0.3125  0.6939
11169TIP3    H154922   1.906   2.841  13.932  0.5442  0.4378 -0.1950
11169TIP3    H254923   1.807   2.828  14.045  0.7094 -1.3943 -0.2284
11170TIP3   OH254924   0.676   6.398  16.411  0.5023  0.3286  0.7655
11170TIP3    H154925   0.603   6.454  16.386  2.3972  2.2020 -0.9784
11170TIP3    H254926   0.671   6.323  16.352  0.5701  0.9754 -0.0760
11171TIP3   OH254927   3.160   6.473  11.384 -0.9627 -0.0013  0.0066
11171TIP3    H154928   3.248   6.437  11.377 -1.4013 -1.4471  1.2342
11171TIP3    H254929   3.113   6.410  11.439 -1.1051  3.6429  4.7212
11172TIP3   OH254930   3.509   1.520   1.127 -0.2636 -0.3972 -0.0930
11172TIP3    H154931   3.565   1.501   1.052  0.4778  0.5233  0.2052
11172TIP3    H254932   3.421   1.524   1.091  0.0002 -0.6526 -0.7832
11173TIP3   OH254933   6.791   4.145  14.072  0.0029  0.2868 -0.5287
11173TIP3    H154934   6.786   4.178  14.162  0.5172 -0.6192 -0.1532
11173TIP3    H254935   6.883   4.154  14.048  0.3936 -1.7522 -0.0362
11174TIP3   OH254936   0.777   1.673   4.915  0.5368  0.4833  0.0777
11174TIP3    H154937   0.827   1.617   4.856 -1.3587  0.1572 -1.3480
11174TIP3    H254938   0.712   1.715   4.858  0.2928  2.2051  1.5372
11175TIP3   OH254939   0.294   0.457   3.818  0.0090 -0.0984 -0.1764
11175TIP3    H154940   0.367   0.513   3.791 -2.2163  2.3828 -1.5001
11175TIP3    H254941   0.248   0.435   3.737 -0.8417 -1.4571  0.6230
11176TIP3   OH254942   5.717   5.754   1.836 -0.2867  0.1892  0.3851
11176TIP3    H154943   5.663   5.796   1.769 -0.1521 -0.0345  0.1359
11176TIP3    H254944   5.802   5.797   1.829 -0.4368  0.5581  0.7932
11177TIP3   OH254945   3.894   6.587   4.936 -0.0327 -0.4496 -0.3508
11177TIP3    H154946   3.880   6.543   5.020 -1.2792  1.5893  0.5542
11177TIP3    H254947   3.807   6.616   4.908  0.8073  2.2279 -0.4285
11178TIP3   OH254948   3.896   6.601   0.945  0.4318 -0.3844 -0.1630
11178TIP3    H154949   3.899   6.654   0.865  1.7748  0.5155  0.4542
11178TIP3    H254950   3.813   6.625   0.986  0.1605 -0.1663 -0.8134
11179TIP3   OH254951   0.619   1.907  16.803 -0.4703 -0.4476  0.0596
11179TIP3    H154952   0.533   1.918  16.763 -0.7677  0.3936  0.9021
11179TIP3    H254953   0.603   1.859  16.884  0.1217 -2.0656 -0.7258
11180TIP3   OH254954   4.626   1.336  11.721  0.0568 -0.1834 -0.4964
11180TIP3    H154955   4.659   1.395  11.789  0.6141  2.8392 -3.1148
11180TIP3    H254956   4.558   1.284  11.764 -0.1184  2.0516  2.1776
11181TIP3   OH254957   2.559   6.740   2.160 -0.4210 -0.1358  0.3044
11181TIP3    H154958   2.519   6.823   2.136 -0.6936 -0.7689 -1.6004
11181TIP3    H254959   2.548   6.685   2.082  0.2799 -1.7564  1.3067
11182TIP3   OH254960   0.633   5.970   2.864 -0.4602 -0.4114 -0.2876
11182TIP3    H154961   0.556   5.986   2.918 -0.0507 -1.4918  0.6476
11182TIP3    H254962   0.678   5.897   2.906  0.9432  0.0160 -0.9628
11183TIP3   OH254963   5.774   4.125   2.129 -0.3869  0.1494 -0.3305
11183TIP3    H154964   5.750   4.092   2.216 -0.6976  0.8325 -0.1502
11183TIP3    H254965   5.773   4.048   2.073  0.2405 -0.3685  0.3615
11184TIP3   OH254966   4.600   5.285  14.739  0.3731 -0.1046  0.3638
11184TIP3    H154967   4.593   5.327  14.825  0.1921  1.3494 -0.3430
11184TIP3    H254968   4.684   5.313  14.704 -1.1157  2.4068 -1.4769
11185TIP3   OH254969   3.508   3.770  11.771 -0.1433 -0.3272 -0.2066
11185TIP3    H154970   3.479   3.687  11.809 -0.6869  0.3401  0.8736
11185TIP3    H254971   3.429   3.806  11.729 -0.0465 -0.0848 -0.1797
11186TIP3   OH254972   1.621   4.692  13.203  0.2258  0.0289 -0.3371
11186TIP3    H154973   1.639   4.599  13.215 -0.4828  0.0211  0.8038
11186TIP3    H254974   1.647   4.732  13.286  0.2758  0.8117 -0.7236
11187TIP3   OH254975   6.612   1.317  14.919  0.2556  0.5861  0.3359
11187TIP3    H154976   6.689   1.262  14.910  0.7800  1.4755 -0.9578
11187TIP3    H254977   6.647   1.406  14.923 -0.7137  1.0790 -1.1882
11188TIP3   OH254978   6.749   4.127   3.684 -0.1869 -0.1632 -0.2447
11188TIP3    H154979   6.819   4.192   3.692 -1.3840  1.0455  0.8981
11188TIP3    H254980   6.781   4.066   3.617  0.6200  2.0692 -2.0244
11189TIP3   OH254981   3.472   0.733  12.004  0.2109  0.0430 -0.3366
11189TIP3    H154982   3.487   0.656  12.058  0.8906  0.0581 -0.4947
11189TIP3    H254983   3.456   0.803  12.066 -2.0856 -0.5359 -0.2083
11190TIP3   OH254984   1.397   3.428  15.509  0.0690  0.2586  0.2898
11190TIP3    H154985   1.445   3.462  15.584  2.5654 -0.9935 -0.6375
11190TIP3    H254986   1.448   3.457  15.433  0.1971 -2.3067 -0.6819
11191TIP3   OH254987   6.717   3.235  10.865  0.7681 -0.2191 -0.1089
11191TIP3    H154988   6.659   3.270  10.797  0.2132 -0.5352  0.1935
11191TIP3    H254989   6.719   3.140  10.848 -0.6696 -0.5494  1.2497
11192TIP3   OH254990   3.363   3.646   2.484  0.4836  0.1323 -0.0449
11192TIP3    H154991   3.369   3.564   2.435  1.6802 -1.5329  2.6538
11192TIP3    H254992   3.424   3.705   2.439 -0.2373 -0.4799 -1.9192
11193TIP3   OH254993   0.935   3.418   4.289 -0.0938 -0.7160  0.0252
11193TIP3    H154994   0.872   3.350   4.314  0.5204 -0.6509  1.8793
11193TIP3    H254995   1.017   3.371   4.272 -0.3866 -0.7142 -1.6280
11194TIP3   OH254996   5.779   2.813  12.882  0.2938 -0.0611  0.4338
11194TIP3    H154997   5.759   2.744  12.946  2.3375 -0.7049  0.4531
11194TIP3    H254998   5.870   2.796  12.857 -0.0240  1.0046 -1.6347
11195TIP3   OH254999   5.030   5.017  14.065 -0.0875  0.2750  0.3630
11195TIP3    H155000   4.942   5.055  14.060  0.0910  0.8227  1.1341
11195TIP3    H255001   5.054   5.000  13.974 -0.0441  2.3776 -0.0712
11196TIP3   OH255002   3.206   3.876   1.953  0.5476  0.1069  0.7889
11196TIP3    H155003   3.132   3.930   1.926  0.0186  0.1645  2.2424
11196TIP3    H255004   3.196   3.794   1.903 -0.3632  0.2028  0.7911
11197TIP3   OH255005   5.151   5.376  13.444 -0.2636  0.4358  0.4185
11197TIP3    H155006   5.225   5.317  13.458 -0.3795  0.4202  0.9931
11197TIP3    H255007   5.164   5.411  13.356 -0.5809 -1.0157 -0.2315
11198TIP3   OH255008   3.413   1.978  13.255  0.1632  0.0688  0.1654
11198TIP3    H155009   3.416   2.024  13.339  0.0428  0.8949 -0.2625
11198TIP3    H255010   3.501   1.943  13.243  0.1092 -0.2721  0.7518
11199TIP3   OH255011   1.493   3.150  11.810  0.3331  0.6927 -0.0921
11199TIP3    H155012   1.470   3.180  11.722 -0.9006 -0.2507 -0.1163
11199TIP3    H255013   1.546   3.221  11.846  0.3759  1.3494 -1.3775
11200TIP3   OH255014   1.962   4.825   6.003  1.3004  0.3059  0.1062
11200TIP3    H155015   1.926   4.857   6.085  0.7234  0.6703 -0.2828
11200TIP3    H255016   2.021   4.754   6.029  0.2735 -0.3319  0.7589
11201TIP3   OH255017   5.097   1.060  11.524  0.4309 -0.1414 -0.2178
11201TIP3    H155018   5.040   1.110  11.465  0.0618  1.0571  1.1085
11201TIP3    H255019   5.048   0.980  11.542 -1.0875  1.0241  1.1845
11202TIP3   OH255020   6.101   0.846   5.430 -0.4551 -0.3277  0.4829
11202TIP3    H155021   6.097   0.806   5.343  0.4322  0.4814  0.0471
11202TIP3    H255022   6.047   0.789   5.485 -1.4634 -0.5630 -0.7028
11203TIP3   OH255023   3.735   2.172   1.396  0.0417 -0.0390 -0.5108
11203TIP3    H155024   3.646   2.138   1.403 -0.0920  0.1575 -1.2561
11203TIP3    H255025   3.760   2.193   1.487 -1.0109  0.7831 -0.3916
11204TIP3   OH255026   3.193   0.262  16.254 -0.1551  0.6273  0.0307
11204TIP3    H155027   3.233   0.242  16.170  0.1884  4.0658 -0.7658
11204TIP3    H255028   3.104   0.226  16.248  0.3521 -0.4764 -1.1801
11205TIP3   OH255029   3.254   1.428  13.427 -0.3053  0.3386 -0.0357
11205TIP3    H155030   3.338   1.398  13.461 -0.6122 -1.9770 -1.0917
11205TIP3    H255031   3.263   1.523  13.421  1.7156  0.2879  1.1622
11206TIP3   OH255032   0.896   1.519   2.953 -0.2467 -0.1933 -0.4127
11206TIP3    H155033   0.942   1.596   2.921  1.0148 -0.8604 -0.2613
11206TIP3    H255034   0.937   1.498   3.037  0.5639 -1.9424 -1.1800
11207TIP3   OH255035   3.851   0.126   1.103 -0.1763 -0.2720 -0.4494
11207TIP3    H155036   3.884   0.201   1.154 -1.1674 -0.2828  0.2320
11207TIP3    H255037   3.926   0.099   1.050  0.5293  0.5077  0.1130
11208TIP3   OH255038   3.554   3.829   0.211  0.5200  0.3691 -0.7566
11208TIP3    H155039   3.509   3.791   0.136  0.4878 -0.5763 -0.2735
11208TIP3    H255040   3.643   3.846   0.180  0.0927  1.4316 -1.4545
11209TIP3   OH255041   5.630   1.721  14.523  0.1652  0.4950 -0.6853
11209TIP3    H155042   5.586   1.647  14.482 -0.1725  1.4628 -2.1517
11209TIP3    H255043   5.689   1.754  14.455  1.8787  0.3109  0.6425
11210TIP3   OH255044   5.547   2.448   5.981  0.6115 -0.1101  0.4943
11210TIP3    H155045   5.553   2.360   5.943 -2.0905 -0.6770  1.1713
11210TIP3    H255046   5.589   2.440   6.066  0.5104 -0.7291  0.4923
11211TIP3   OH255047   1.536   3.546  11.584  0.5296 -0.2721  0.1013
11211TIP3    H155048   1.513   3.512  11.671 -0.0177  0.0931  0.1076
11211TIP3    H255049   1.573   3.471  11.538  0.7521 -0.4898  0.6260
11212TIP3   OH255050   2.724   2.913   4.508 -0.4996 -0.0364  0.2867
11212TIP3    H155051   2.707   2.963   4.588  1.6441 -0.6519  1.2044
11212TIP3    H255052   2.772   2.836   4.538  1.5303  0.3484 -1.7067
11213TIP3   OH255053   4.996   5.616  15.538  0.0123  0.2751 -0.4491
11213TIP3    H155054   5.085   5.633  15.567  0.3195  0.8184 -1.6285
11213TIP3    H255055   5.006   5.566  15.457 -0.7621  0.1741 -0.4938
11214TIP3   OH255056   0.285   5.487  11.132 -0.1692 -0.8951  0.4514
11214TIP3    H155057   0.307   5.436  11.055  2.0873  2.0047 -1.0206
11214TIP3    H255058   0.350   5.460  11.197  0.6029 -0.3836 -0.0965
11215TIP3   OH255059   2.704   5.037   1.549  0.4310  0.1774  0.2944
11215TIP3    H155060   2.770   5.049   1.481  0.5336  0.2491  0.4047
11215TIP3    H255061   2.753   5.000   1.623  0.3014 -0.0009  0.2927
11216TIP3   OH255062   1.036   6.648   4.849 -0.6475 -0.2422 -0.8631
11216TIP3    H155063   0.960   6.693   4.814 -1.5715 -1.7207 -0.8340
11216TIP3    H255064   1.087   6.624   4.771  1.2971  3.0824 -0.8242
11217TIP3   OH255065   2.303   3.174   2.735 -0.5330  0.0326 -1.0497
11217TIP3    H155066   2.238   3.129   2.790 -0.6487  0.6113 -0.7099
11217TIP3    H255067   2.387   3.138   2.764 -0.7005 -0.9215 -1.6762
11218TIP3   OH255068   3.233   4.196   4.770 -0.1667  0.1112 -0.1483
11218TIP3    H155069   3.158   4.255   4.776  1.0949  1.7177  0.4108
11218TIP3    H255070   3.300   4.246   4.725  0.5868 -1.3259 -0.7058
11219TIP3   OH255071   6.264   3.374   1.196  0.0304  0.4882  0.6645
11219TIP3    H155072   6.351   3.388   1.233  0.1805  0.7282  0.2243
11219TIP3    H255073   6.259   3.435   1.122 -0.8777  1.1858  1.2799
11220TIP3   OH255074   1.927   0.935  11.383 -0.1990 -0.0285  0.2411
11220TIP3    H155075   1.941   0.975  11.469  1.7820  1.3524 -0.6567
11220TIP3    H255076   1.895   1.006  11.328 -1.0445 -0.8020 -0.2921
11221TIP3   OH255077   0.183   6.785  14.147 -0.1013  0.5780 -0.1013
11221TIP3    H155078   0.119   6.854  14.126  2.8277  3.4687 -0.3596
11221TIP3    H255079   0.218   6.759  14.062  1.0726  1.1951  0.1689
11222TIP3   OH255080   1.709   3.027  17.199 -0.4235 -0.1019  0.2600
11222TIP3    H155081   1.674   2.944  17.231 -0.9257 -0.1012 -0.2678
11222TIP3    H255082   1.631   3.077  17.173 -0.0989  0.3785  0.2037
11223TIP3   OH255083   1.195   1.679  15.517  0.2361  0.0157 -0.6360
11223TIP3    H155084   1.125   1.700  15.578  0.0733 -3.8862  0.7765
11223TIP3    H255085   1.254   1.755  15.521 -0.9169  0.8897  2.6676
11224TIP3   OH255086   2.408   2.220   4.657  0.5853  0.1469  0.2515
11224TIP3    H155087   2.348   2.254   4.591  1.1048  0.7265  0.0759
11224TIP3    H255088   2.396   2.125   4.653 -1.3867  0.2962  1.2322
11225TIP3   OH255089   0.846   3.490  12.940  0.1477  0.1481 -0.4475
11225TIP3    H155090   0.826   3.427  12.871  0.8242 -1.0470  0.4112
11225TIP3    H255091   0.921   3.453  12.985 -1.8546 -0.5438  2.6354
11226TIP3   OH255092   3.653   1.710  13.352  0.1578  0.3292 -0.1305
11226TIP3    H155093   3.657   1.619  13.323  0.6965  0.3403 -0.0893
11226TIP3    H255094   3.630   1.759  13.272 -1.0187  0.0714  0.0257
11227TIP3   OH255095   0.657   3.623  14.088  0.2572 -0.0247  0.5371
11227TIP3    H155096   0.606   3.575  14.154 -0.8845  1.6521  0.9369
11227TIP3    H255097   0.724   3.668  14.139 -0.4079  0.9945  0.5272
11228TIP3   OH255098   6.431   6.731   4.054  0.4014 -0.4438 -0.3491
11228TIP3    H155099   6.380   6.790   3.998 -1.5361 -1.4940  0.1993
11228TIP3    H255100   6.465   6.666   3.993  0.1058 -0.3738 -0.5966
11229TIP3   OH255101   5.292   2.518  12.519  0.0525 -0.3081 -0.1245
11229TIP3    H155102   5.358   2.571  12.563  0.0374  0.0261 -0.4922
11229TIP3    H255103   5.341   2.446  12.480  0.4273  0.6712 -1.5612
11230TIP3   OH255104   1.490   0.486  13.441 -0.8601  0.0474  0.6740
11230TIP3    H155105   1.526   0.574  13.453 -0.7604  0.5301 -2.4352
11230TIP3    H255106   1.567   0.430  13.431 -0.9362  0.0351  0.1531
11231TIP3   OH255107   1.035   4.109   2.119  0.0715  0.1667 -0.8141
11231TIP3    H155108   0.983   4.029   2.112 -0.9238  0.5604  1.2911
11231TIP3    H255109   0.971   4.180   2.124  0.8013  0.7733  0.6889
11232TIP3   OH255110   5.425   3.944   2.983 -0.7645 -0.3907  0.2672
11232TIP3    H155111   5.359   3.966   2.917 -2.1828 -0.7194  1.5217
11232TIP3    H255112   5.496   4.007   2.967 -0.5960 -1.0971 -2.1676
11233TIP3   OH255113   4.803   0.057  12.507  0.3478  0.5303  0.2975
11233TIP3    H155114   4.727   0.050  12.565  0.2532 -1.1972  0.0247
11233TIP3    H255115   4.878   0.059  12.567  0.2305 -0.8275  0.5219
11234TIP3   OH255116   2.075   0.392   0.589 -0.3928  0.3170  0.3620
11234TIP3    H155117   2.104   0.350   0.670  0.0673  0.1930  0.1354
11234TIP3    H255118   2.009   0.455   0.618  1.5388  2.1073  1.1652
11235TIP3   OH255119   1.431   1.642  11.237 -0.7238 -0.1010 -0.3041
11235TIP3    H155120   1.472   1.726  11.259  0.5812 -0.5282 -1.0054
11235TIP3    H255121   1.429   1.640  11.142 -1.1566 -0.6771 -0.2863
11236TIP3   OH255122   1.523   3.325  13.356  0.3672  0.6203  0.1199
11236TIP3    H155123   1.445   3.356  13.403  0.4431  0.4938  0.3310
11236TIP3    H255124   1.595   3.342  13.416  0.4042 -0.0307  0.2697
11237TIP3   OH255125   2.620   5.701  11.893  0.5465 -0.3790  0.0799
11237TIP3    H155126   2.705   5.684  11.935  0.7359  1.4552  0.5187
11237TIP3    H255127   2.555   5.671  11.957  0.8350 -1.4296 -0.0952
11238TIP3   OH255128   6.387   4.668  11.043  0.1743 -0.1985  0.1491
11238TIP3    H155129   6.378   4.745  10.987 -1.4146 -0.9110 -0.6154
11238TIP3    H255130   6.445   4.609  10.994 -0.6572 -0.5327 -0.4462
11239TIP3   OH255131   0.673   6.678   3.504 -0.1058 -0.2882  0.0718
11239TIP3    H155132   0.661   6.709   3.415  0.1110 -1.2540 -0.3129
11239TIP3    H255133   0.620   6.736   3.558 -0.8378 -0.1583 -0.7764
11240TIP3   OH255134   6.350   3.428  14.756 -0.7961  0.2267 -0.0393
11240TIP3    H155135   6.287   3.498  14.738 -1.4386 -0.4919 -0.6351
11240TIP3    H255136   6.320   3.354  14.703  0.5569 -0.1335 -0.3319
11241TIP3   OH255137   5.685   2.279  14.474  0.9489 -0.0406  0.2863
11241TIP3    H155138   5.702   2.297  14.381  0.5292  2.9726  0.7083
11241TIP3    H255139   5.617   2.212  14.473 -0.9109  1.7176 -1.7008
11242TIP3   OH255140   3.989   3.602   3.888 -0.0467  0.4202 -0.0085
11242TIP3    H155141   4.002   3.521   3.938  0.4179  1.3623  1.4541
11242TIP3    H255142   4.067   3.654   3.906 -0.8106  1.6290 -0.1001
11243TIP3   OH255143   1.057   4.602   0.173  0.7554  0.4913  0.3964
11243TIP3    H155144   1.041   4.691   0.204 -1.6689  0.4723 -0.5589
11243TIP3    H255145   1.072   4.551   0.253  0.1336  1.3876  1.1037
11244TIP3   OH255146   4.317   2.375   3.584  0.1819 -0.4544 -0.0713
11244TIP3    H155147   4.361   2.415   3.509  0.3822 -0.9126 -0.2020
11244TIP3    H255148   4.303   2.284   3.558 -1.4340 -0.1619 -0.2835
11245TIP3   OH255149   3.973   6.343  12.278  0.1051 -0.4859 -0.0098
11245TIP3    H155150   4.027   6.332  12.357  2.0388 -1.2077 -1.3693
11245TIP3    H255151   3.910   6.271  12.282 -0.3957 -0.0112  1.2739
11246TIP3   OH255152   1.466   2.813  16.313  0.0805 -0.4163  0.4339
11246TIP3    H155153   1.546   2.865  16.310  0.2771 -0.7093  0.5691
11246TIP3    H255154   1.395   2.877  16.312  0.2788 -0.1900 -1.0896
11247TIP3   OH255155   5.816   3.250   6.577 -0.0651  0.0012  0.2992
11247TIP3    H155156   5.756   3.265   6.504  1.1070  0.2398 -0.6351
11247TIP3    H255157   5.896   3.295   6.552  0.7206 -0.8327  1.2440
11248TIP3   OH255158   3.061   4.321   3.770 -0.6127 -0.2599 -0.6301
11248TIP3    H155159   3.062   4.417   3.761 -0.6095 -0.2184 -0.2059
11248TIP3    H255160   3.146   4.293   3.739 -0.2189 -0.0312  0.2067
11249TIP3   OH255161   4.237   4.394   0.322 -0.6039 -0.2566  0.1839
11249TIP3    H155162   4.256   4.462   0.386  0.4225 -0.9121  0.6123
11249TIP3    H255163   4.167   4.343   0.362 -1.8876  0.9413 -0.4596
11250TIP3   OH255164   1.491   3.033   4.099  0.4442 -0.2032  0.3596
11250TIP3    H155165   1.407   3.051   4.141  0.4089 -1.0123  0.6683
11250TIP3    H255166   1.535   3.118   4.096  0.3386 -0.0591  1.8212
11251TIP3   OH255167   4.592   2.435  16.736  0.4338  0.6892 -0.3673
11251TIP3    H155168   4.536   2.511  16.748  0.6910  0.7571  0.5053
11251TIP3    H255169   4.643   2.455  16.657  0.5238  1.4373 -0.1300
11252TIP3   OH255170   3.852   0.279  11.619  0.2778  0.6062 -0.0732
11252TIP3    H155171   3.837   0.373  11.624 -0.7919  0.4638 -0.3712
11252TIP3    H255172   3.881   0.263  11.529  2.2999  0.8735  0.4862
11253TIP3   OH255173   2.118   2.597  16.946 -0.5731 -0.0656  0.1195
11253TIP3    H155174   2.150   2.657  16.878  3.3066 -1.3835  0.5456
11253TIP3    H255175   2.098   2.516  16.898 -2.2023  0.3436  0.0464
11254TIP3   OH255176   5.741   3.818  11.499 -0.9437 -0.0606  0.0557
11254TIP3    H155177   5.742   3.850  11.589 -3.0598  1.1677 -0.2779
11254TIP3    H255178   5.719   3.725  11.506  2.7715 -1.0207  0.9197
11255TIP3   OH255179   2.858   1.666  15.362 -0.0668  0.2164 -0.4478
11255TIP3    H155180   2.940   1.618  15.374  0.6738  1.1765 -1.4917
11255TIP3    H255181   2.826   1.636  15.276 -0.5635  0.2140 -0.2653
11256TIP3   OH255182   2.405   4.095   2.910 -0.1547 -0.0151  0.5181
11256TIP3    H155183   2.486   4.127   2.949 -0.3891 -0.5661  1.5024
11256TIP3    H255184   2.413   4.117   2.817  0.4275  1.3426  0.8527
11257TIP3   OH255185   3.403   2.206  10.949 -0.2289  0.3898 -0.0016
11257TIP3    H155186   3.333   2.165  10.898  2.4676 -2.2987 -1.8793
11257TIP3    H255187   3.389   2.175  11.039 -0.5478 -1.5261 -0.6672
11258TIP3   OH255188   6.274   0.476  12.133 -0.1250 -0.0679 -0.3388
11258TIP3    H155189   6.236   0.564  12.123  0.5459  0.2562 -0.0933
11258TIP3    H255190   6.360   0.481  12.091 -0.2018 -0.6956 -0.5832
11259TIP3   OH255191   4.990   0.542  13.465  0.3784  1.0679  0.5351
11259TIP3    H155192   5.060   0.494  13.509  0.5059  0.1308 -0.6711
11259TIP3    H255193   4.930   0.475  13.433 -0.2962  1.7951  0.2215
11260TIP3   OH255194   6.521   3.575  11.495  0.4525  0.2670  0.0891
11260TIP3    H155195   6.478   3.530  11.422  0.6264  1.5967 -0.8956
11260TIP3    H255196   6.464   3.649  11.514  2.4578  2.4716 -1.7048
11261TIP3   OH255197   6.457   3.464  15.597 -0.2292  0.0935 -0.3831
11261TIP3    H155198   6.507   3.394  15.554  1.2145  1.9228 -1.8861
11261TIP3    H255199   6.514   3.495  15.667  0.4177  1.5324 -1.4795
11262TIP3   OH255200   1.401   6.364   0.739 -0.4469 -0.1585 -0.1686
11262TIP3    H155201   1.315   6.367   0.782  0.0670  2.4431  0.8165
11262TIP3    H255202   1.411   6.449   0.698  3.0179  1.0352  2.6327
11263TIP3   OH255203   2.899   4.810  14.207 -0.0285  0.3673 -0.0700
11263TIP3    H155204   2.898   4.756  14.286 -0.3451  0.0001 -0.3246
11263TIP3    H255205   2.851   4.889  14.231 -2.5260 -0.8672 -0.6822
11264TIP3   OH255206   1.909   6.171  16.350  0.6398 -0.7041  0.1758
11264TIP3    H155207   1.922   6.108  16.279  0.7706 -0.7504  0.2422
11264TIP3    H255208   1.958   6.135  16.424  0.6951 -0.5378  0.2214
11265TIP3   OH255209   5.677   2.557   0.989  0.1604  0.0772 -0.1087
11265TIP3    H155210   5.770   2.561   0.969  0.5231 -0.8278  1.2326
11265TIP3    H255211   5.664   2.471   1.029 -1.1958  0.2863 -0.0365
11266TIP3   OH255212   3.086   6.668  15.198  0.0514 -0.5077  0.4449
11266TIP3    H155213   3.032   6.728  15.146  0.0255  0.1076  1.1623
11266TIP3    H255214   3.173   6.707  15.196 -0.0235 -0.3042  1.1341
11267TIP3   OH255215   5.894   1.275  13.107  0.3173  0.1935 -0.8516
11267TIP3    H155216   5.807   1.315  13.109  0.7808  1.3773 -2.2012
11267TIP3    H255217   5.878   1.181  13.117 -1.0857  0.4151 -0.8026
11268TIP3   OH255218   2.506   0.402  16.768  0.3917  0.6918 -0.0606
11268TIP3    H155219   2.530   0.399  16.676  0.1206 -1.3933 -0.1041
11268TIP3    H255220   2.445   0.329  16.780 -0.0951  1.3209  1.6385
11269TIP3   OH255221   1.619   0.621   2.360  0.0260 -0.2334 -0.1922
11269TIP3    H155222   1.681   0.694   2.355  1.3447 -1.3166 -0.2934
11269TIP3    H255223   1.622   0.582   2.273 -0.7821 -0.3392 -0.1803
11270TIP3   OH255224   4.476   3.406  11.922 -0.2321 -0.1048  0.3170
11270TIP3    H155225   4.546   3.358  11.966  0.0801 -0.9274 -1.0212
11270TIP3    H255226   4.395   3.367  11.955 -0.0795  0.5420  1.5233
11271TIP3   OH255227   1.035   1.167   4.479  0.0450 -0.0440 -0.9508
11271TIP3    H155228   1.034   1.102   4.549 -1.5179 -1.3269 -2.0904
11271TIP3    H255229   0.945   1.166   4.444  0.2954  1.8863 -1.7819
11272TIP3   OH255230   1.653   5.627   5.700 -0.0823  0.2733  0.0537
11272TIP3    H155231   1.646   5.545   5.651 -1.7634 -0.4052  1.3608
11272TIP3    H255232   1.723   5.611   5.764 -0.6293 -0.2686  0.5227
11273TIP3   OH255233   6.516   3.491   4.088  0.2607 -0.0236 -0.3427
11273TIP3    H155234   6.544   3.461   4.001  0.9018 -0.0715 -0.1321
11273TIP3    H255235   6.455   3.424   4.118  2.8847 -2.0984  0.7969
11274TIP3   OH255236   5.774   0.626  14.612 -0.6688  0.0714 -0.3816
11274TIP3    H155237   5.713   0.671  14.554 -3.4685 -2.4329  0.3354
11274TIP3    H255238   5.808   0.554  14.559 -0.7983 -0.3783  0.1395
11275TIP3   OH255239   6.367   5.551  16.128 -0.4888  0.4303  0.3118
11275TIP3    H155240   6.461   5.556  16.111 -0.4565  1.9809  0.7926
11275TIP3    H255241   6.344   5.460  16.110  0.9872  0.1706 -0.3873
11276TIP3   OH255242   2.452   6.711  12.305 -0.1119  0.1929  0.3036
11276TIP3    H155243   2.475   6.677  12.391  0.8863 -1.2864 -0.5111
11276TIP3    H255244   2.523   6.683  12.248 -1.7235 -0.6161 -1.4242
11277TIP3   OH255245   3.994   2.480   3.402 -0.4994  0.2536  0.0571
11277TIP3    H155246   4.009   2.461   3.494 -0.2301  0.9150  0.1598
11277TIP3    H255247   3.918   2.427   3.378 -1.1810  0.8127  0.9198
11278TIP3   OH255248   1.158   0.601   5.748  0.0461 -0.1627 -0.6588
11278TIP3    H155249   1.081   0.614   5.803 -0.3460  0.9059 -1.4257
11278TIP3    H255250   1.167   0.506   5.741  0.5676 -0.3674  1.8255
11279TIP3   OH255251   3.735   4.435   6.471 -0.4193  0.1450 -0.3346
11279TIP3    H155252   3.790   4.495   6.521 -0.2893  0.8956 -1.3574
11279TIP3    H255253   3.762   4.348   6.501  1.4226  0.4813 -0.8819
11280TIP3   OH255254   5.241   1.755  11.138  0.3812  0.2591 -0.3403
11280TIP3    H155255   5.238   1.685  11.072  2.3850  0.0022 -0.2056
11280TIP3    H255256   5.149   1.780  11.150 -0.2768 -1.5451 -1.2438
11281TIP3   OH255257   5.531   3.559   1.586 -0.6903  0.0205  0.1256
11281TIP3    H155258   5.594   3.587   1.520 -0.2154  1.3584  1.1014
11281TIP3    H255259   5.456   3.526   1.536 -0.4703  1.2743 -1.0758
11282TIP3   OH255260   4.059   2.779   2.675 -0.3786  0.6573 -0.4515
11282TIP3    H155261   4.069   2.734   2.591 -0.5418 -0.1943 -0.0283
11282TIP3    H255262   4.096   2.719   2.739 -1.7663  0.5452  0.2884
11283TIP3   OH255263   4.826   4.251   1.843  0.0286 -0.6859 -0.3403
11283TIP3    H155264   4.904   4.254   1.786 -0.2287 -0.2439 -0.6805
11283TIP3    H255265   4.762   4.305   1.797 -0.1619 -0.2725  0.4053
11284TIP3   OH255266   4.931   5.286   0.587 -0.5665 -0.4752 -0.2416
11284TIP3    H155267   5.005   5.279   0.526 -0.8399 -1.5284 -0.4722
11284TIP3    H255268   4.937   5.207   0.640 -1.4525 -0.5053 -0.1794
11285TIP3   OH255269   5.573   4.282   1.886 -0.0804 -0.1657 -0.6317
11285TIP3    H155270   5.663   4.307   1.907 -0.1427  1.1684 -1.8101
11285TIP3    H255271   5.531   4.268   1.971  1.3318 -1.2399 -0.0708
11286TIP3   OH255272   4.900   5.283   5.237  0.0169  0.2711 -0.0534
11286TIP3    H155273   4.951   5.363   5.224  0.3518 -0.0438 -0.7675
11286TIP3    H255274   4.833   5.307   5.300  0.6808  0.8668  0.4431
11287TIP3   OH255275   1.363   3.310   3.895  0.4825  0.1544 -0.1658
11287TIP3    H155276   1.444   3.290   3.943  1.0054 -0.3221 -1.1998
11287TIP3    H255277   1.392   3.325   3.805 -0.7450 -1.7319 -0.9376
11288TIP3   OH255278   3.445   5.105  15.471 -0.1002 -0.5681 -0.1121
11288TIP3    H155279   3.511   5.121  15.404  0.1150 -0.7331  0.0583
11288TIP3    H255280   3.362   5.130  15.430  0.2570  1.4398  0.3008
11289TIP3   OH255281   6.169   3.961   2.373 -0.6966  0.1888 -0.0839
11289TIP3    H155282   6.235   3.989   2.310 -0.0243 -1.8675 -0.3435
11289TIP3    H255283   6.213   3.967   2.458 -0.1137 -1.2210 -0.2607
11290TIP3   OH255284   1.113   3.011  12.291  0.1309  0.2529 -0.2018
11290TIP3    H155285   1.112   2.980  12.201  0.4866 -3.7022  0.9634
11290TIP3    H255286   1.196   2.978  12.327  0.6351  2.8898  1.2833
11291TIP3   OH255287   1.088   3.216  13.653  0.1332  0.3081 -0.4582
11291TIP3    H155288   1.153   3.172  13.708  0.3604 -1.1499 -1.8114
11291TIP3    H255289   1.121   3.305  13.643  0.4187  0.4145  1.1943
11292TIP3   OH255290   6.348   0.612  14.976 -0.0327 -0.2919 -0.6141
11292TIP3    H155291   6.324   0.616  14.884 -0.3860 -0.0986 -0.5173
11292TIP3    H255292   6.337   0.702  15.008 -1.3581 -0.6258 -0.0409
11293TIP3   OH255293   5.532   2.111  11.384  0.0055  0.6224  0.2819
11293TIP3    H155294   5.459   2.172  11.387 -0.1906  0.4026  0.0509
11293TIP3    H255295   5.497   2.034  11.340 -0.0780 -0.1022  1.5509
11294TIP3   OH255296   6.110   5.248  15.797 -0.0324  0.1867 -0.2717
11294TIP3    H155297   6.050   5.286  15.733  0.1287 -0.5601 -0.8858
11294TIP3    H255298   6.106   5.154  15.780  1.6091  0.1502 -0.6100
11295TIP3   OH255299   3.590   3.035  13.658  0.0104 -0.0647 -0.2992
11295TIP3    H155300   3.507   3.040  13.705  0.4960  0.1453  0.5495
11295TIP3    H255301   3.597   2.944  13.631 -0.8619  0.0816 -1.0708
11296TIP3   OH255302   6.785   5.385   0.216 -0.2046 -0.6028  0.2441
11296TIP3    H155303   6.865   5.359   0.262 -0.3714  0.1431  0.9893
11296TIP3    H255304   6.715   5.371   0.280 -0.3723  0.9942  0.4559
11297TIP3   OH255305   5.257   2.744   4.491  0.0480 -0.1162 -0.2471
11297TIP3    H155306   5.192   2.699   4.436  0.2714  1.5088 -1.9686
11297TIP3    H255307   5.297   2.675   4.543 -1.1007 -1.5575 -1.1944
11298TIP3   OH255308   2.242   5.695  13.559 -0.6117  0.2645  0.8623
11298TIP3    H155309   2.154   5.661  13.543 -0.8719  0.6288  1.4928
11298TIP3    H255310   2.260   5.753  13.485 -1.2240  0.8041  1.1258
11299TIP3   OH255311   2.611   0.296  17.186  0.5021 -0.1720  0.4513
11299TIP3    H155312   2.623   0.347  17.106 -2.0525 -0.3770 -0.1528
11299TIP3    H255313   2.589   0.360  17.253  0.8765 -0.1594  0.5618
11300TIP3   OH255314   0.579   2.971   4.176 -0.2116 -0.5209  0.1634
11300TIP3    H155315   0.611   3.002   4.261  0.6532  0.1456 -0.3754
11300TIP3    H255316   0.552   2.881   4.191 -0.5163 -0.2612  1.2497
11301TIP3   OH255317   1.177   6.597  11.241 -0.5426  0.4474  0.2244
11301TIP3    H155318   1.082   6.599  11.235 -0.5335 -0.7573 -1.0135
11301TIP3    H255319   1.208   6.637  11.159  0.0119  0.6063  0.5020
11302TIP3   OH255320   2.918   5.000  14.671 -0.1269 -0.0622  0.1330
11302TIP3    H155321   2.902   5.095  14.668  0.5381  0.1050  1.3081
11302TIP3    H255322   2.831   4.961  14.671 -0.4130  0.4852 -1.3299
11303TIP3   OH255323   1.771   3.263  16.652 -0.5455 -0.0619 -0.3127
11303TIP3    H155324   1.740   3.345  16.690 -0.9876 -1.0279  1.5476
11303TIP3    H255325   1.866   3.273  16.647 -0.6242  0.6875 -0.4795
11304TIP3   OH255326   0.569   4.950  13.993 -0.5707 -0.1104 -0.6542
11304TIP3    H155327   0.655   4.990  13.981 -0.5924  1.0827  2.3182
11304TIP3    H255328   0.587   4.858  14.008  0.4654  0.3836  1.6121
11305TIP3   OH255329   0.311   0.414   1.449  0.6496  0.3898  0.0541
11305TIP3    H155330   0.265   0.406   1.365  0.2661  0.6852  0.2328
11305TIP3    H255331   0.345   0.504   1.448  0.0349  0.6406  0.5123
11306TIP3   OH255332   6.172   5.037   5.549 -0.3557 -0.6231 -0.0072
11306TIP3    H155333   6.135   5.078   5.471  1.3209 -0.1710 -0.6172
11306TIP3    H255334   6.178   5.108   5.613 -2.1965 -1.1044  0.7419
11307TIP3   OH255335   1.003   4.929   4.598 -0.3710 -0.7591 -0.6014
11307TIP3    H155336   0.993   4.983   4.676  0.0664 -0.7337 -0.5606
11307TIP3    H255337   0.930   4.866   4.604 -0.0464 -1.0852  0.0977
11308TIP3   OH255338   4.437   2.216   3.902 -0.3291  0.1392 -0.0863
11308TIP3    H155339   4.436   2.142   3.840  1.0051  0.6330 -0.7218
11308TIP3    H255340   4.427   2.293   3.846 -1.3228  0.4929  0.5437
11309TIP3   OH255341   0.529   1.646  15.522 -0.0032  0.5961 -0.0322
11309TIP3    H155342   0.489   1.604  15.598  0.9202 -0.4140 -0.0908
11309TIP3    H255343   0.456   1.658  15.461 -0.4611 -0.0106  0.3827
11310TIP3   OH255344   2.274   1.974   6.003 -0.1447  0.1836 -0.1071
11310TIP3    H155345   2.232   1.949   6.085  0.1178 -0.4571 -0.1671
11310TIP3    H255346   2.340   2.038   6.029  1.0273 -1.1856  0.3954
11311TIP3   OH255347   2.804   3.754   1.478  0.1901  0.0477  0.2630
11311TIP3    H155348   2.728   3.749   1.536  0.9089 -0.3477  1.2106
11311TIP3    H255349   2.794   3.681   1.417 -0.7181  0.6346 -0.3064
11312TIP3   OH255350   4.286   2.436  11.781 -0.2709 -0.1907  0.5731
11312TIP3    H155351   4.363   2.395  11.741 -0.1490 -0.4637  1.0707
11312TIP3    H255352   4.303   2.431  11.875 -0.9095 -0.2580  0.6880
11313TIP3   OH255353   5.402   5.057  10.917  0.4054 -0.2326 -0.2587
11313TIP3    H155354   5.389   5.152  10.916  0.4381 -0.2196 -1.4260
11313TIP3    H255355   5.438   5.037  10.830 -1.3048 -1.5255 -0.7300
11314TIP3   OH255356   4.101   5.398  12.195  0.0994  0.4821 -0.6188
11314TIP3    H155357   4.175   5.439  12.149 -0.2667 -0.4658 -2.1321
11314TIP3    H255358   4.077   5.324  12.139 -0.0051 -1.1097  1.4391
11315TIP3   OH255359   0.190   5.339   4.931  0.1364  0.0318 -0.5996
11315TIP3    H155360   0.134   5.291   4.869  0.9959  1.1055 -2.2849
11315TIP3    H255361   0.273   5.351   4.884  0.4244  1.9294  0.2930
11316TIP3   OH255362   2.842   6.228  16.177 -0.0960 -0.1528  0.3136
11316TIP3    H155363   2.790   6.306  16.195 -0.3693  0.0021 -1.0104
11316TIP3    H255364   2.814   6.165  16.243 -0.3512  0.6437  0.9867
11317TIP3   OH255365   2.653   4.835   2.232  0.2864 -0.2641 -0.1038
11317TIP3    H155366   2.593   4.848   2.306  0.2854  0.2122 -0.1866
11317TIP3    H255367   2.642   4.743   2.209  0.6353 -0.5363  0.7929
11318TIP3   OH255368   4.110   1.006  14.008 -0.3104 -0.1292  0.1607
11318TIP3    H155369   4.070   1.087  14.041 -0.6905  0.4995 -1.7233
11318TIP3    H255370   4.135   1.027  13.918  0.7413 -1.7361  0.0557
11319TIP3   OH255371   3.991   4.915  13.745  0.6090 -0.3733  0.1714
11319TIP3    H155372   4.013   4.967  13.668 -0.1412  1.1552  0.9471
11319TIP3    H255373   3.937   4.843  13.711 -1.0354  1.1452 -0.5896
11320TIP3   OH255374   2.033   5.992  13.724  0.4256  0.4388 -0.1471
11320TIP3    H155375   2.105   5.933  13.746  0.6063  0.8011  0.2646
11320TIP3    H255376   2.077   6.075  13.703  0.1929  0.3722 -0.9387
11321TIP3   OH255377   1.715   4.410   5.193 -0.6748 -0.0360 -0.2372
11321TIP3    H155378   1.740   4.415   5.285  0.7954  0.3753 -0.6257
11321TIP3    H255379   1.792   4.372   5.150 -0.6325  1.4300 -1.5375
11322TIP3   OH255380   0.129   0.490   3.574  0.4045 -0.5291  0.2080
11322TIP3    H155381   0.077   0.420   3.534 -2.5772  1.5230  0.1291
11322TIP3    H255382   0.149   0.549   3.501 -0.0589  0.3520  0.7754
11323TIP3   OH255383   5.096   1.131  13.214 -0.5763  0.0701  0.0237
11323TIP3    H155384   5.122   1.218  13.183  0.4197  0.1953  1.1360
11323TIP3    H255385   5.041   1.148  13.289  1.5744 -0.2142  1.7738
11324TIP3   OH255386   6.783   2.128   1.856  0.0515  0.2996 -0.1273
11324TIP3    H155387   6.775   2.220   1.830  1.5601 -0.0172 -1.8839
11324TIP3    H255388   6.761   2.078   1.778 -0.4146 -0.8387  0.7085
11325TIP3   OH255389   4.965   1.625  12.831  0.0857 -0.5857  0.1317
11325TIP3    H155390   4.922   1.550  12.790 -1.1258  0.0930  0.1102
11325TIP3    H255391   4.949   1.698  12.771 -0.5346  0.1311  1.1384
11326TIP3   OH255392   1.877   0.003  14.732  0.2936 -0.1766 -0.3023
11326TIP3    H155393   1.843  -0.087  14.728  3.1234 -1.3173 -1.1727
11326TIP3    H255394   1.801   0.056  14.757 -1.9502 -2.5077 -1.6884
11327TIP3   OH255395   4.090   5.902  13.559  0.0621 -0.4956 -0.3043
11327TIP3    H155396   4.071   5.962  13.487 -0.0060 -0.4107 -0.2154
11327TIP3    H255397   4.039   5.823  13.539 -1.2587  0.1274  0.4880
11328TIP3   OH255398   0.758   2.422  11.674  0.3596  0.3244 -1.2090
11328TIP3    H155399   0.815   2.467  11.612  0.7410 -1.9246 -2.5853
11328TIP3    H255400   0.715   2.354  11.623 -2.0027  0.5922  0.2601
11329TIP3   OH255401   1.216   0.363   4.910 -0.0690  0.8621 -0.1972
11329TIP3    H155402   1.201   0.457   4.917  0.1200  0.7852  2.5778
11329TIP3    H255403   1.219   0.333   5.001  3.0918 -1.3131 -0.8469
11330TIP3   OH255404   5.702   0.601   2.529  0.3747 -0.1533  0.1928
11330TIP3    H155405   5.766   0.665   2.498  0.1769  1.1444  2.3033
11330TIP3    H255406   5.658   0.571   2.449  0.9221  1.8342 -0.9249
11331TIP3   OH255407   6.357   1.199  16.754 -0.0386 -0.0297 -0.1211
11331TIP3    H155408   6.270   1.184  16.717 -0.1090  0.4454 -0.1596
11331TIP3    H255409   6.393   1.270  16.701  0.7720 -0.8860 -0.7391
11332TIP3   OH255410   3.123   1.878   0.773  0.2100  0.3777 -0.1586
11332TIP3    H155411   3.125   1.964   0.815 -0.7795  0.7988 -0.9217
11332TIP3    H255412   3.151   1.895   0.683  0.2833 -0.1496 -0.2386
11333TIP3   OH255413   1.283   0.515  13.922 -0.6411 -0.1420 -0.1171
11333TIP3    H155414   1.296   0.607  13.902  0.4089  0.8804  4.2360
11333TIP3    H255415   1.192   0.510  13.952 -0.2839 -0.1736  1.0002
11334TIP3   OH255416   1.287   1.762  14.003  0.0692 -0.0828  0.3915
11334TIP3    H155417   1.255   1.711  13.929 -0.0035 -0.7469  0.8768
11334TIP3    H255418   1.352   1.706  14.045 -0.1309  0.1508  1.0267
11335TIP3   OH255419   2.359   4.139   0.711 -0.3237 -0.2543 -0.0547
11335TIP3    H155420   2.273   4.107   0.738 -0.3586  0.5729  0.8854
11335TIP3    H255421   2.413   4.060   0.704 -1.2280 -0.8088 -0.9586
11336TIP3   OH255422   4.929   1.974   3.567  0.2069  0.2885  0.0322
11336TIP3    H155423   4.888   1.887   3.572 -0.4068  0.4570 -1.4440
11336TIP3    H255424   4.859   2.034   3.591  0.5830  0.3959  0.8824
11337TIP3   OH255425   0.397   1.753  14.394 -0.0181 -0.2234  0.3035
11337TIP3    H155426   0.391   1.825  14.332 -1.3444 -1.4232 -1.0341
11337TIP3    H255427   0.317   1.703  14.381  0.2664 -1.2465  2.0960
11338TIP3   OH255428   6.725   4.120   5.796  0.1211 -0.1322  0.8700
11338TIP3    H155429   6.724   4.039   5.848  1.4549  0.1238  1.3373
11338TIP3    H255430   6.813   4.123   5.759 -0.8578 -0.4403 -1.6666
11339TIP3   OH255431   0.114   1.759  14.819  0.3028 -0.5650 -0.3048
11339TIP3    H155432   0.203   1.727  14.809  1.1017  0.7091  2.0562
11339TIP3    H255433   0.102   1.820  14.746  1.2714 -0.9465 -0.7899
11340TIP3   OH255434   3.794   1.378  16.900  0.5679  0.5884 -0.2955
11340TIP3    H155435   3.715   1.324  16.910  0.5395  0.7339  0.3606
11340TIP3    H255436   3.867   1.317  16.912  0.5465  0.5381 -0.4240
11341TIP3   OH255437   2.584   5.326   2.280 -0.3076  0.3773  0.1963
11341TIP3    H155438   2.564   5.239   2.314  0.1250  0.7263  1.3926
11341TIP3    H255439   2.679   5.326   2.266 -0.3251  0.6061  0.0580
11342TIP3   OH255440   2.878   6.623  15.837  0.2070  0.5450 -0.0159
11342TIP3    H155441   2.793   6.661  15.860  1.2554  2.3969  0.9464
11342TIP3    H255442   2.872   6.606  15.743 -0.6263  2.3279 -0.3260
11343TIP3   OH255443   3.796   0.442  13.610 -0.0888 -0.0334 -0.0379
11343TIP3    H155444   3.704   0.418  13.600 -0.3259  0.5310  0.6556
11343TIP3    H255445   3.813   0.502  13.537 -0.0760 -0.6510 -0.5531
11344TIP3   OH255446   1.257   1.480   3.549 -0.2842  0.4048  0.4108
11344TIP3    H155447   1.257   1.405   3.608  2.7979 -1.8252 -2.0564
11344TIP3    H255448   1.347   1.487   3.519 -0.7451  4.2444 -0.6974
11345TIP3   OH255449   0.607   2.501  11.878  0.2641  0.2344 -0.8775
11345TIP3    H155450   0.655   2.477  11.799  0.3444  0.0230 -0.7659
11345TIP3    H255451   0.523   2.535  11.847 -0.4818 -1.6086 -0.9946
11346TIP3   OH255452   2.430   4.508   3.439 -0.2076 -0.1465  0.0029
11346TIP3    H155453   2.371   4.486   3.367  0.3538  2.2210 -1.2850
11346TIP3    H255454   2.400   4.453   3.512 -3.3225  0.1859 -0.8802
11347TIP3   OH255455   0.790   0.194  13.642  0.2770 -0.0473 -0.0338
11347TIP3    H155456   0.766   0.286  13.628 -0.6973 -0.1930  0.6124
11347TIP3    H255457   0.880   0.198  13.676  0.2351  0.6688  0.0197
11348TIP3   OH255458   3.691   2.969   5.284 -0.5379  0.3341 -0.4766
11348TIP3    H155459   3.661   2.975   5.374  1.1603  2.0807  0.0392
11348TIP3    H255460   3.764   2.907   5.287  0.9791  2.0362 -0.1408
11349TIP3   OH255461   3.005   6.303   6.281 -0.1060  0.5490  0.1561
11349TIP3    H155462   2.987   6.396   6.274 -1.0014  0.3245 -0.7249
11349TIP3    H255463   3.100   6.296   6.269 -0.3068  1.1456 -2.1945
11350TIP3   OH255464   0.467   5.648  13.313  0.3671  0.1183 -0.1943
11350TIP3    H155465   0.460   5.647  13.217 -0.0431 -1.8390 -0.1934
11350TIP3    H255466   0.550   5.604  13.332  0.0961 -0.1728  0.3496
11351TIP3   OH255467   1.876   1.717  15.814 -0.5419  0.0179  0.1120
11351TIP3    H155468   1.961   1.758  15.825 -0.3254 -0.4855  0.2996
11351TIP3    H255469   1.839   1.761  15.737  0.5699 -0.9020 -0.9823
11352TIP3   OH255470   3.224   4.494  12.852  0.2323  0.1898 -0.0883
11352TIP3    H155471   3.196   4.581  12.879 -0.3031 -0.4285  1.4151
11352TIP3    H255472   3.240   4.503  12.758 -0.6245  1.6953 -0.1277
11353TIP3   OH255473   2.504   3.302   2.214  0.3253  0.3248  0.0499
11353TIP3    H155474   2.437   3.343   2.267 -0.8825 -0.8277 -0.5169
11353TIP3    H255475   2.460   3.227   2.173  1.7916 -0.1104 -0.8247
11354TIP3   OH255476   4.353   0.745  12.171 -0.3620 -0.6342  1.0274
11354TIP3    H155477   4.394   0.660  12.156 -1.5872 -0.8460 -1.5195
11354TIP3    H255478   4.307   0.765  12.090 -0.3941  2.3319  1.6525
11355TIP3   OH255479   4.266   2.917   0.464  0.0584  0.4977 -0.5203
11355TIP3    H155480   4.351   2.896   0.424  0.2100  1.8605 -0.9482
11355TIP3    H255481   4.203   2.864   0.415  0.6246 -0.3551 -0.3480
11356TIP3   OH255482   6.190   0.028  13.602  0.6292  0.0850  0.1452
11356TIP3    H155483   6.157  -0.018  13.525  0.8031  0.6973 -0.3041
11356TIP3    H255484   6.265   0.079  13.570  0.8233  0.1978  0.7569
11357TIP3   OH255485   0.675   1.251   4.962  0.2852  0.4225 -0.9140
11357TIP3    H155486   0.643   1.275   4.875 -2.2479  1.2351  0.1406
11357TIP3    H255487   0.680   1.333   5.009  2.6915  0.1307 -0.5231
11358TIP3   OH255488   5.640   5.428  15.235  0.2846  0.0895 -0.1513
11358TIP3    H155489   5.622   5.517  15.206 -1.8234  0.2815  1.4595
11358TIP3    H255490   5.707   5.438  15.303  1.1774  0.2302 -1.0246
11359TIP3   OH255491   5.885   2.028   3.741 -0.0277  0.0458  0.3163
11359TIP3    H155492   5.923   1.975   3.670  1.2065  0.7452  0.4185
11359TIP3    H255493   5.948   2.020   3.813 -0.1658  1.0941  0.5657
11360TIP3   OH255494   6.096   5.714   3.870 -0.2819  0.2043  0.0546
11360TIP3    H155495   6.030   5.727   3.938 -0.6015 -1.9649  0.2140
11360TIP3    H255496   6.074   5.630   3.830  0.7860  0.7283 -1.7480
11361TIP3   OH255497   4.970   5.951   2.934 -0.2207 -0.0670 -0.0437
11361TIP3    H155498   4.932   6.028   2.976  0.8714  0.2708  0.3522
11361TIP3    H255499   4.952   5.879   2.995  0.5667  0.2592  0.5884
11362TIP3   OH255500   3.600   1.194  13.607 -0.6396  0.2864 -0.0291
11362TIP3    H155501   3.626   1.118  13.659 -0.1247  0.3566 -0.1708
11362TIP3    H255502   3.636   1.269  13.655 -0.5200  0.3811 -0.2645
11363TIP3   OH255503   1.794   1.392   2.799 -0.1425  0.5766 -0.9665
11363TIP3    H155504   1.740   1.313   2.795 -0.0825  0.4840 -0.1227
11363TIP3    H255505   1.753   1.446   2.866  1.5771 -0.0999  0.7135
11364TIP3   OH255506   2.146   6.247  12.322  1.0533  0.1602  0.1683
11364TIP3    H155507   2.100   6.178  12.368 -0.1348  0.4916 -0.4928
11364TIP3    H255508   2.166   6.312  12.389 -1.4496  1.0646  0.1318
11365TIP3   OH255509   4.948   5.141   3.860  0.1561 -0.3455  0.0164
11365TIP3    H155510   5.030   5.164   3.817 -1.1202  2.3450 -1.2067
11365TIP3    H255511   4.973   5.116   3.949  2.4266 -1.6487 -0.9069
11366TIP3   OH255512   1.004   6.752  12.026  0.4024 -0.1446 -0.5896
11366TIP3    H155513   1.098   6.748  12.009  0.5359  0.0668  0.0588
11366TIP3    H255514   0.988   6.676  12.083  0.4356  0.6004  0.4307
11367TIP3   OH255515   0.475   0.775  11.359  0.0755  0.0497 -0.4736
11367TIP3    H155516   0.523   0.720  11.420  0.6434  1.1439  0.0913
11367TIP3    H255517   0.526   0.770  11.278 -0.7495 -1.5057 -0.9462
11368TIP3   OH255518   2.991   1.478   4.184  0.0393  0.3232  1.0247
11368TIP3    H155519   2.947   1.416   4.242  1.2165  0.2234  1.8450
11368TIP3    H255520   2.938   1.558   4.190 -0.2844  0.0685  1.6404
11369TIP3   OH255521   5.344   0.012  17.111 -0.6245  0.7265  0.0755
11369TIP3    H155522   5.315   0.068  17.183  2.7862 -0.2867  2.4806
11369TIP3    H255523   5.369   0.074  17.041 -0.5801  1.9981  1.1730
11370TIP3   OH255524   1.398   4.515   6.404 -0.8523 -0.4358  0.4743
11370TIP3    H155525   1.435   4.586   6.352  0.6193 -0.4141  1.4721
11370TIP3    H255526   1.304   4.531   6.404 -0.7173  0.5100 -0.7570
11371TIP3   OH255527   0.025   0.109   3.710  0.2196 -0.5360 -0.0727
11371TIP3    H155528  -0.009   0.038   3.655 -0.7519 -2.3746  2.6191
11371TIP3    H255529  -0.052   0.162   3.730 -0.2825 -1.9356  2.1757
11372TIP3   OH255530   0.235   2.262  16.019 -0.1684  0.2472 -0.4339
11372TIP3    H155531   0.216   2.185  16.073  0.6763  0.5599  0.3422
11372TIP3    H255532   0.249   2.227  15.932  0.5777 -0.5387 -0.0133
11373TIP3   OH255533   0.766   2.689  11.178  0.3158 -0.5027  0.7492
11373TIP3    H155534   0.760   2.658  11.088 -0.4496  0.3754  0.4882
11373TIP3    H255535   0.681   2.728  11.196  0.8750  0.4560  1.4237
11374TIP3   OH255536   0.599   4.051  10.711  0.1193 -0.1962 -0.3301
11374TIP3    H155537   0.638   3.966  10.688  1.9108  0.0580  1.4500
11374TIP3    H255538   0.543   4.032  10.787  0.2312  0.1427 -0.1605
11375TIP3   OH255539   2.983   4.117   4.400 -0.3659 -0.3332  0.0893
11375TIP3    H155540   2.898   4.126   4.444  0.7424  0.7622  2.1930
11375TIP3    H255541   3.008   4.026   4.415 -0.9357 -0.5286 -0.1088
11376TIP3   OH255542   0.020   1.248  14.115  0.0419  0.4973  0.2296
11376TIP3    H155543   0.095   1.238  14.173  0.8599  2.2268 -0.4606
11376TIP3    H255544  -0.015   1.335  14.135 -1.5498 -0.1151  0.2515
11377TIP3   OH255545   2.089   1.455   2.482  0.2426  0.0300 -0.2213
11377TIP3    H155546   2.112   1.375   2.529 -0.7666 -0.2693 -0.1960
11377TIP3    H255547   2.147   1.456   2.406 -1.0804 -1.8274 -1.3352
11378TIP3   OH255548   6.256   6.203  12.743  0.0001 -0.2249  0.0390
11378TIP3    H155549   6.259   6.255  12.663  0.6543  0.6943  0.6319
11378TIP3    H255550   6.291   6.118  12.718 -0.2220 -0.0912 -0.7473
11379TIP3   OH255551   1.523   5.007   5.111  0.2009  0.0946  0.0630
11379TIP3    H155552   1.474   5.087   5.097  0.0096  0.1813  1.1439
11379TIP3    H255553   1.595   5.011   5.047  0.3164  1.2281  0.2445
11380TIP3   OH255554   1.457   6.150   6.167 -0.3223 -0.2869  1.1258
11380TIP3    H155555   1.436   6.157   6.074  1.4277  0.5892  0.7645
11380TIP3    H255556   1.499   6.065   6.176  1.9835  0.7028  0.5317
11381TIP3   OH255557   0.017   0.727   1.789 -0.2127 -0.2786 -0.4315
11381TIP3    H155558   0.096   0.723   1.735  0.4713 -0.1871  0.5318
11381TIP3    H255559  -0.055   0.713   1.728  0.5886 -1.0020 -1.2306
11382TIP3   OH255560   5.327   0.659  14.430 -0.5608 -0.0688  0.2753
11382TIP3    H155561   5.347   0.577  14.383 -0.3357 -0.1620  0.5361
11382TIP3    H255562   5.397   0.668  14.494 -1.5775 -0.6388  1.5144
11383TIP3   OH255563   3.066   1.778  16.232 -0.1261  0.6995  0.3461
11383TIP3    H155564   3.078   1.685  16.252 -3.2727  0.4793  1.7997
11383TIP3    H255565   3.017   1.778  16.149  2.1378  1.2563 -1.0951
11384TIP3   OH255566   2.945   5.915  11.167  0.3846 -0.2355  0.1985
11384TIP3    H155567   2.946   5.933  11.261 -0.3366 -1.7639  0.5302
11384TIP3    H255568   2.961   5.821  11.161  0.9636 -0.0664 -1.2562
11385TIP3   OH255569   0.471   3.883   0.440 -0.2441 -0.6126  0.1232
11385TIP3    H155570   0.529   3.894   0.365  0.9594  0.3550  1.1576
11385TIP3    H255571   0.423   3.966   0.446 -0.9610 -1.0055 -0.0802
11386TIP3   OH255572   2.024   2.707   4.224  0.1184  0.3174  0.5344
11386TIP3    H155573   2.054   2.731   4.311 -2.0789 -1.5219  1.9275
11386TIP3    H255574   1.931   2.687   4.235 -0.0969 -0.6127 -2.0900
11387TIP3   OH255575   4.599   4.583   2.231  0.0269 -0.3772  0.3599
11387TIP3    H155576   4.620   4.674   2.251  2.1285 -0.5820 -0.6390
11387TIP3    H255577   4.553   4.586   2.147 -1.3176 -0.1670  1.0674
11388TIP3   OH255578   5.607   4.306   4.630  0.2989 -0.5345  0.2835
11388TIP3    H155579   5.679   4.249   4.656 -0.4831 -1.9205 -0.4489
11388TIP3    H255580   5.583   4.275   4.543 -0.0246  1.0760 -0.2200
11389TIP3   OH255581   0.488   1.925   2.208  0.3969  0.1390 -0.3449
11389TIP3    H155582   0.563   1.977   2.237  1.6170 -0.5817 -1.9898
11389TIP3    H255583   0.476   1.859   2.276  0.5069  0.9595  0.4884
11390TIP3   OH255584   2.887   0.516  12.545 -0.2911 -0.1001 -0.2518
11390TIP3    H155585   2.860   0.582  12.608  0.7668  0.2785 -0.1842
11390TIP3    H255586   2.956   0.558  12.494 -1.6900 -0.0853 -2.2563
11391TIP3   OH255587   4.239   4.296  16.344  0.0035  0.2586 -0.6963
11391TIP3    H155588   4.246   4.368  16.281  1.4010  0.5200 -0.2801
11391TIP3    H255589   4.258   4.217  16.293  0.9207  0.4492 -0.6651
11392TIP3   OH255590   4.868   5.496  11.182  0.0636  0.3508 -0.6950
11392TIP3    H155591   4.891   5.507  11.274  1.4122  0.4530 -1.0269
11392TIP3    H255592   4.828   5.579  11.156 -0.7547  0.1563 -0.0928
11393TIP3   OH255593   6.495   4.764   2.461 -0.2802  0.2479 -0.4300
11393TIP3    H155594   6.489   4.744   2.554  0.5139  2.7876  0.2257
11393TIP3    H255595   6.477   4.680   2.418  1.0632 -1.4084  1.9960
11394TIP3   OH255596   5.645   2.985   1.613 -0.1911  0.2713 -0.0767
11394TIP3    H155597   5.642   3.065   1.560  0.0216 -0.4144 -1.1576
11394TIP3    H255598   5.635   2.914   1.550 -1.5828 -0.5407  0.9851
11395TIP3   OH255599   3.164   5.057   4.491  0.3513 -0.3770 -0.6841
11395TIP3    H155600   3.100   5.057   4.420 -1.1409  0.3612  0.5811
11395TIP3    H255601   3.227   5.125   4.466  1.3042 -1.8336 -2.4592
11396TIP3   OH255602   0.987   0.236  15.774 -0.0468 -0.6551 -0.0141
11396TIP3    H155603   0.991   0.180  15.696 -0.1848 -0.5957 -0.0640
11396TIP3    H255604   0.894   0.241  15.795 -0.2780  1.2600 -1.2541
11397TIP3   OH255605   0.284   3.337   0.854  0.4833  0.1039  0.2075
11397TIP3    H155606   0.281   3.326   0.949  1.6894 -0.8803  0.1495
11397TIP3    H255607   0.299   3.431   0.841  0.2497  0.2509  0.9762
11398TIP3   OH255608   4.804   5.271   0.882 -0.3291 -0.2523  0.1629
11398TIP3    H155609   4.794   5.200   0.818  0.3421 -0.4102  0.2300
11398TIP3    H255610   4.714   5.294   0.906 -0.5704 -0.5828 -0.4076
11399TIP3   OH255611   4.982   3.133   4.079 -0.4492 -0.2502 -0.7702
11399TIP3    H155612   4.993   3.076   4.003  0.7732  0.6715 -1.3187
11399TIP3    H255613   5.004   3.079   4.154 -0.2510 -0.7729 -1.2020
11400TIP3   OH255614   0.433   1.696   3.754 -0.1559 -0.2755 -0.0601
11400TIP3    H155615   0.489   1.760   3.797 -0.5419 -0.6566  1.0485
11400TIP3    H255616   0.420   1.730   3.666 -0.4628  1.2533  0.5515
11401TIP3   OH255617   2.197   0.239  16.262 -0.9981  0.3317 -0.2290
11401TIP3    H155618   2.156   0.195  16.336  0.6955 -0.8142  0.0664
11401TIP3    H255619   2.236   0.318  16.299 -0.5563  0.0024  0.0020
11402TIP3   OH255620   3.406   4.559  11.629 -0.5206 -0.2397 -0.1740
11402TIP3    H155621   3.438   4.525  11.713 -2.4007 -0.4624  0.4799
11402TIP3    H255622   3.398   4.653  11.643  2.5148  0.3126 -1.2804
11403TIP3   OH255623   0.977   5.805   4.471 -0.3688  0.2452 -0.5585
11403TIP3    H155624   0.881   5.807   4.465 -0.3679  1.1607 -0.4263
11403TIP3    H255625   1.008   5.847   4.391 -0.1495  2.0571  0.4075
11404TIP3   OH255626   3.995   4.170   2.934 -0.4329 -0.2733 -0.0093
11404TIP3    H155627   4.003   4.081   2.967  0.8873 -0.6462 -1.2368
11404TIP3    H255628   3.911   4.201   2.968  0.2098 -1.0812  2.5161
11405TIP3   OH255629   5.067   0.947  10.523  0.7083  0.5656 -0.1436
11405TIP3    H155630   5.109   1.003  10.588  0.3860  0.2028  0.3908
11405TIP3    H255631   4.975   0.974  10.524  0.5084 -0.0896  0.2611
11406TIP3   OH255632   6.561   6.009   2.325 -0.5367 -0.0653 -0.0273
11406TIP3    H155633   6.580   6.003   2.418 -0.5491  1.2607  0.0893
11406TIP3    H255634   6.468   6.030   2.320 -0.5991 -0.4044 -0.3520
11407TIP3   OH255635   6.696   3.307  16.910  0.2394  0.4976  0.1352
11407TIP3    H155636   6.729   3.337  16.825  0.6502  1.2650  0.5559
11407TIP3    H255637   6.708   3.382  16.969  1.7692 -0.6317  1.3469
11408TIP3   OH255638   1.969   6.192  13.023 -0.1479  0.5466  0.6516
11408TIP3    H155639   1.980   6.287  13.022  0.3950  0.5302  2.2499
11408TIP3    H255640   2.014   6.164  13.103  0.2497 -1.1253 -0.1214
11409TIP3   OH255641   4.424   1.470  12.387  0.2270 -0.3437  0.8721
11409TIP3    H155642   4.347   1.420  12.413 -1.0495  1.6770  1.2282
11409TIP3    H255643   4.472   1.485  12.469  0.3475 -0.5356  0.8384
11410TIP3   OH255644   1.862   3.576   2.464  0.8750 -0.0862 -0.3248
11410TIP3    H155645   1.893   3.660   2.497 -0.7632  0.0590  0.9439
11410TIP3    H255646   1.770   3.571   2.491  0.5601 -1.7173 -1.4983
11411TIP3   OH255647   0.011   1.658   4.948  0.3070 -0.0537 -0.7918
11411TIP3    H155648   0.027   1.676   4.856 -0.0194 -0.4466 -0.9263
11411TIP3    H255649   0.003   1.745   4.988  0.2062  0.1151 -1.1733
11412TIP3   OH255650   4.869   3.430   3.886  0.2320  0.3635  0.3824
11412TIP3    H155651   4.800   3.420   3.951  0.4139  3.4991  1.2001
11412TIP3    H255652   4.950   3.434   3.937  0.4644  1.9295 -0.0471
11413TIP3   OH255653   4.752   2.564   4.574 -0.0807  0.0950 -0.1319
11413TIP3    H155654   4.728   2.549   4.666  0.8009  2.2039  0.5057
11413TIP3    H255655   4.788   2.481   4.545 -3.5918 -1.7720  0.2885
11414TIP3   OH255656   3.512   4.895  13.092  1.1493 -0.1145  0.3475
11414TIP3    H155657   3.583   4.882  13.155  1.3001 -0.9484  0.0139
11414TIP3    H255658   3.450   4.825  13.112  0.5064  0.4808  0.5005
11415TIP3   OH255659   5.378   6.233  12.525  0.1079 -0.1585  0.2045
11415TIP3    H155660   5.389   6.273  12.439 -1.9143 -0.7142 -0.3577
11415TIP3    H255661   5.404   6.301  12.587  2.1963  0.0487 -0.7967
11416TIP3   OH255662   1.587   0.567  13.719  0.2295  0.0103  0.3436
11416TIP3    H155663   1.592   0.612  13.635  0.1999 -1.3775 -0.4371
11416TIP3    H255664   1.526   0.494  13.704  3.6574 -3.1263  0.0742
11417TIP3   OH255665   0.609   1.120  17.040  0.6660 -0.2250 -0.0206
11417TIP3    H155666   0.632   1.144  17.130 -0.2080 -0.4400  0.2775
11417TIP3    H255667   0.517   1.094  17.046  0.3286  0.6498 -1.1587
11418TIP3   OH255668   1.559   0.247  17.201 -0.3407 -0.0692 -0.0601
11418TIP3    H155669   1.543   0.153  17.214 -3.6981  0.4994  0.9552
11418TIP3    H255670   1.550   0.285  17.288  2.4080  1.1506 -0.2002
11419TIP3   OH255671   3.289   2.096  12.812  0.4515 -1.3152 -0.1683
11419TIP3    H155672   3.372   2.142  12.806  0.0322 -0.3508  1.0132
11419TIP3    H255673   3.272   2.087  12.906 -1.7679  0.4253 -0.3107
11420TIP3   OH255674   1.437   1.506   0.468 -0.2517  0.0565  0.3377
11420TIP3    H155675   1.360   1.556   0.440 -1.7541 -2.0323  0.5338
11420TIP3    H255676   1.475   1.474   0.386 -0.0372  0.4322  0.2869
11421TIP3   OH255677   3.304   4.449  16.093 -0.8750 -0.0374 -0.1650
11421TIP3    H155678   3.277   4.474  16.182 -0.8390  1.3651 -0.5322
11421TIP3    H255679   3.251   4.504  16.035  2.0211  2.1927 -0.9257
11422TIP3   OH255680   6.552   3.842  13.899  0.5888 -0.1913  0.1792
11422TIP3    H155681   6.593   3.866  13.982  0.0458 -0.4437  0.5277
11422TIP3    H255682   6.538   3.748  13.906  1.2589 -0.3532 -0.5286
11423TIP3   OH255683   1.847   2.907   5.787 -0.1622 -0.4116  0.1138
11423TIP3    H155684   1.856   2.855   5.866  0.8954 -0.1291  0.1894
11423TIP3    H255685   1.816   2.993   5.817 -0.3627 -0.4978  0.1538
11424TIP3   OH255686   0.926   2.367  14.162  0.1023 -1.0159 -0.1000
11424TIP3    H155687   0.900   2.305  14.095  0.1401 -0.5006 -0.5979
11424TIP3    H255688   0.976   2.316  14.225 -0.9418 -1.7475  0.1621
11425TIP3   OH255689   2.484   4.543  14.078  0.0239 -0.1161  0.8036
11425TIP3    H155690   2.496   4.513  14.168  1.9307 -0.5482  0.4534
11425TIP3    H255691   2.544   4.617  14.070 -0.7885  0.4814  0.1355
11426TIP3   OH255692   0.219   6.271  11.561  0.6768 -0.1529  0.0557
11426TIP3    H155693   0.303   6.236  11.531  2.3560  1.7351  2.1714
11426TIP3    H255694   0.213   6.357  11.519  0.6959  0.4370  1.2081
11427TIP3   OH255695   2.217   5.543  11.966  0.2112  0.1002 -0.3549
11427TIP3    H155696   2.154   5.498  12.023  0.7916 -0.4322 -0.1266
11427TIP3    H255697   2.262   5.473  11.920 -0.2443  0.5288 -1.4791
11428TIP3   OH255698   4.958   5.994   2.626 -0.6597  0.1379  0.5068
11428TIP3    H155699   5.044   5.975   2.589 -0.6759 -0.5782  0.8173
11428TIP3    H255700   4.968   5.978   2.720 -0.9597  0.6758  0.6312
11429TIP3   OH255701   1.955   1.421  12.906 -0.4446  0.0858  0.6598
11429TIP3    H155702   2.020   1.446  12.840 -0.6013  0.8686  0.7942
11429TIP3    H255703   1.945   1.326  12.895  1.4062 -0.2241  1.2598
11430TIP3   OH255704   1.503   2.257  12.737 -0.2026 -0.2907 -0.2222
11430TIP3    H155705   1.409   2.259  12.722 -0.2263  1.6920 -0.0520
11430TIP3    H255706   1.541   2.292  12.656  0.2470  0.6611  0.3767
11431TIP3   OH255707   3.529   2.147   3.776 -0.3700  0.3697  0.2744
11431TIP3    H155708   3.577   2.068   3.751  0.9894  1.5567 -1.1196
11431TIP3    H255709   3.483   2.123   3.856  0.3906 -1.6714  0.1633
11432TIP3   OH255710   4.909   3.439  12.956 -0.5497  0.1820  0.4324
11432TIP3    H155711   5.003   3.439  12.977 -0.4497 -0.3666 -0.0215
11432TIP3    H255712   4.905   3.462  12.863 -0.8823  0.4329  0.5056
11433TIP3   OH255713   3.964   6.062   4.318 -0.4617 -0.4069 -0.7505
11433TIP3    H155714   3.966   6.148   4.359  1.5599 -0.4685 -0.6670
11433TIP3    H255715   3.897   6.014   4.367 -0.8175  0.7399 -0.0680
11434TIP3   OH255716   2.561   5.946  13.462 -0.5691 -0.1844 -0.0182
11434TIP3    H155717   2.610   6.012  13.413 -0.9003  1.1808  1.4269
11434TIP3    H255718   2.580   5.965  13.554 -0.2458 -2.4520  0.4495
11435TIP3   OH255719   3.067   5.078  16.138  0.4038  0.4840  0.1096
11435TIP3    H155720   3.160   5.089  16.115  0.0079  2.2308 -0.8266
11435TIP3    H255721   3.048   5.152  16.195 -1.0567  1.8432 -1.9711
11436TIP3   OH255722   1.219   5.082   4.962 -0.6012  0.1966  0.1796
11436TIP3    H155723   1.165   5.028   5.019  1.7247  0.0352  2.4391
11436TIP3    H255724   1.248   5.155   5.018  0.8220  0.7141 -1.1342
11437TIP3   OH255725   2.107   4.256   2.356  0.1413  0.1738 -0.0073
11437TIP3    H155726   2.184   4.208   2.389 -0.5507 -0.3420  0.9084
11437TIP3    H255727   2.090   4.217   2.270 -0.8121 -1.7652  0.9929
11438TIP3   OH255728   3.182   6.649  13.724  0.4494  0.0363 -0.0983
11438TIP3    H155729   3.128   6.570  13.723 -1.6739  1.3901  0.2868
11438TIP3    H255730   3.176   6.683  13.634  1.2563 -0.1516 -0.2319
11439TIP3   OH255731   1.340   5.000   4.735  0.0253  0.1528  0.4439
11439TIP3    H155732   1.289   5.024   4.813 -0.2727 -1.1603  0.6793
11439TIP3    H255733   1.414   4.950   4.770  0.9160  1.1360  0.0132
11440TIP3   OH255734   1.113   3.895  12.036  0.1789 -0.9832  0.6009
11440TIP3    H155735   1.164   3.833  11.985  0.3300 -0.2394 -0.1839
11440TIP3    H255736   1.051   3.842  12.085 -0.3715 -1.7035 -0.8077
11441TIP3   OH255737   0.198   5.394   6.750  0.3498 -0.0549  0.0073
11441TIP3    H155738   0.122   5.450   6.762  1.3715  1.4226 -0.2311
11441TIP3    H255739   0.227   5.410   6.661  2.3946  1.3337  0.8485
11442TIP3   OH255740   1.823   3.694  14.062 -0.2896 -0.6371  0.2220
11442TIP3    H155741   1.763   3.769  14.064 -0.5072 -0.8097  0.2465
11442TIP3    H255742   1.895   3.723  14.005 -1.8974 -1.5197 -2.4463
11443TIP3   OH255743   5.126   0.071   4.077 -0.2921 -0.0548 -0.5288
11443TIP3    H155744   5.117   0.146   4.135 -2.5332  0.1592 -1.0536
11443TIP3    H255745   5.159   0.001   4.133  0.1167  0.8299  0.3709
11444TIP3   OH255746   3.799   4.350  12.314 -0.5249  0.0447 -0.1527
11444TIP3    H155747   3.728   4.297  12.349  0.4715 -2.8298 -2.0723
11444TIP3    H255748   3.875   4.329  12.369 -0.0709 -0.8559 -1.0623
11445TIP3   OH255749   1.056   5.450  14.635  0.4389 -0.7860  0.2765
11445TIP3    H155750   1.051   5.388  14.562  1.3579 -0.8937  0.2906
11445TIP3    H255751   1.094   5.399  14.707  0.6284 -0.3760  0.4696
11446TIP3   OH255752   5.506   2.881  13.595  0.3452 -0.0792 -0.5613
11446TIP3    H155753   5.536   2.958  13.546 -0.0672  0.4961  0.0680
11446TIP3    H255754   5.514   2.908  13.687  0.5580 -0.9312 -0.3245
11447TIP3   OH255755   4.674   4.703   4.845 -0.6717 -0.2657 -0.7441
11447TIP3    H155756   4.759   4.729   4.811 -0.2899  0.0164  0.3720
11447TIP3    H255757   4.611   4.755   4.796 -0.1631 -0.0720 -1.1932
11448TIP3   OH255758   1.445   6.565  11.372  0.2790  0.5140  0.3169
11448TIP3    H155759   1.462   6.653  11.339  1.8978  0.0751 -0.1321
11448TIP3    H255760   1.350   6.554  11.366  0.0321  2.2837  0.5738
11449TIP3   OH255761   4.282   5.130  12.769  0.1194 -0.2678 -0.0897
11449TIP3    H155762   4.290   5.040  12.801 -1.6009  0.5360  3.0968
11449TIP3    H255763   4.194   5.135  12.732  0.6414 -0.1398 -1.3742
11450TIP3   OH255764   0.175   4.275   5.269  0.8224  0.3131  0.4006
11450TIP3    H155765   0.233   4.289   5.344  0.2143 -4.3220  2.0631
11450TIP3    H255766   0.228   4.226   5.207  0.1052  0.5149 -0.3903
11451TIP3   OH255767   0.221   6.122   2.882 -0.3860 -0.0586  0.4613
11451TIP3    H155768   0.217   6.194   2.944  0.1480 -1.5875  2.3819
11451TIP3    H255769   0.252   6.048   2.934 -1.3558 -1.7916 -1.3014
11452TIP3   OH255770   3.825   4.689   0.433 -0.1983 -0.1283  0.1779
11452TIP3    H155771   3.815   4.666   0.526 -0.1903  1.1564  0.5206
11452TIP3    H255772   3.878   4.619   0.397 -0.1320 -0.6124  1.1698
11453TIP3   OH255773   2.380   4.107   1.593 -0.1623 -0.2443 -0.2228
11453TIP3    H155774   2.430   4.028   1.612 -0.1528 -0.3471 -0.6593
11453TIP3    H255775   2.388   4.161   1.672 -0.3060 -0.7471  0.1376
11454TIP3   OH255776   5.076   2.327   2.265  0.2036  0.4543 -0.1565
11454TIP3    H155777   5.031   2.397   2.218 -0.7262  1.2696  1.8390
11454TIP3    H255778   5.015   2.254   2.264 -0.6387  1.0887  1.3113
11455TIP3   OH255779   6.619   0.096   1.118  0.5013  0.0846 -0.2660
11455TIP3    H155780   6.688   0.082   1.053 -0.5782  1.2169 -1.7435
11455TIP3    H255781   6.654   0.165   1.175  1.8763 -1.6189  1.0771
11456TIP3   OH255782   2.377   0.444  12.969 -0.0689  0.0501  0.7028
11456TIP3    H155783   2.445   0.511  12.958  0.2044 -0.2023  0.8069
11456TIP3    H255784   2.341   0.460  13.056  1.1744 -0.9741  1.4396
11457TIP3   OH255785   3.755   4.877  16.186 -0.7399 -0.3451 -0.1714
11457TIP3    H155786   3.670   4.901  16.149 -0.6162 -0.8849 -0.8184
11457TIP3    H255787   3.761   4.782  16.173 -0.2090 -0.3705  0.2237
11458TIP3   OH255788   2.928   1.920  12.183  0.3638 -0.4317 -0.5975
11458TIP3    H155789   3.023   1.930  12.182  0.3054  0.1453 -0.6784
11458TIP3    H255790   2.912   1.852  12.248  0.8508 -0.7674 -0.8187
11459TIP3   OH255791   4.933   2.985  13.635 -0.6266  0.0352  0.0326
11459TIP3    H155792   4.887   2.963  13.716  1.7805 -1.6920  1.0648
11459TIP3    H255793   4.873   2.959  13.565 -2.3954  0.7366  1.2246
11460TIP3   OH255794   4.179   1.780  15.601 -0.9581  0.1783 -0.3592
11460TIP3    H155795   4.147   1.706  15.550 -0.3651  0.6167 -1.3924
11460TIP3    H255796   4.219   1.838  15.537 -2.4333  1.9783  0.2652
11461TIP3   OH255797   3.601   4.292   0.509  0.0339  0.1541 -0.5867
11461TIP3    H155798   3.537   4.345   0.558  0.2638  2.4428 -2.5421
11461TIP3    H255799   3.670   4.273   0.573 -1.6844 -0.8365  1.0959
11462TIP3   OH255800   0.662   3.346  16.248  0.1552  0.3258  0.0735
11462TIP3    H155801   0.656   3.271  16.190 -0.9713  0.3207  0.1727
11462TIP3    H255802   0.575   3.386  16.245  0.1233  0.4278  1.6047
11463TIP3   OH255803   0.757   4.580  15.131  0.1547 -0.4399 -0.5509
11463TIP3    H155804   0.688   4.520  15.158 -0.6487  1.4402  1.9127
11463TIP3    H255805   0.838   4.537  15.159 -0.4632 -0.1027  2.0299
11464TIP3   OH255806   6.715   1.347   1.809  0.4275  0.2329  0.1859
11464TIP3    H155807   6.698   1.253   1.804  1.6280  0.0383 -1.5154
11464TIP3    H255808   6.806   1.353   1.837  0.9825  0.7639 -1.5621
11465TIP3   OH255809   3.334   4.629  16.474 -0.2210  0.1440 -0.0724
11465TIP3    H155810   3.407   4.641  16.413 -0.9218  0.4206 -0.8845
11465TIP3    H255811   3.331   4.534  16.489  1.3590  0.2866  1.3349
11466TIP3   OH255812   0.823   3.338  10.926 -0.7817  0.3723 -0.6442
11466TIP3    H155813   0.745   3.340  10.870 -0.1500  0.7051 -1.5269
11466TIP3    H255814   0.892   3.375  10.872  0.3685 -1.3615 -0.4358
11467TIP3   OH255815   3.593   4.491  16.595  0.2583 -0.1244  0.0006
11467TIP3    H155816   3.574   4.529  16.681  0.1176  0.7048 -0.3874
11467TIP3    H255817   3.624   4.565  16.543  0.6246 -0.6792 -0.5801
11468TIP3   OH255818   5.437   0.713  16.010  0.2564  0.2656 -0.3492
11468TIP3    H155819   5.430   0.799  15.970 -0.2746  0.4486  0.1261
11468TIP3    H255820   5.371   0.660  15.965 -1.0354  0.7281  0.8943
11469TIP3   OH255821   5.605   0.047   4.809  0.1386  0.4887 -0.4087
11469TIP3    H155822   5.526   0.033   4.758 -0.1519  1.2239 -0.1821
11469TIP3    H255823   5.576   0.040   4.900  0.2808  0.9903 -0.3208
11470TIP3   OH255824   4.403   0.684  12.680 -0.4664  0.0685 -0.4710
11470TIP3    H155825   4.378   0.766  12.722  2.1025  1.1878 -0.9852
11470TIP3    H255826   4.322   0.653  12.639 -1.7063  1.8347  0.5105
11471TIP3   OH255827   4.921   5.773  14.474  0.1985 -0.1317 -1.2367
11471TIP3    H155828   4.999   5.829  14.466  1.0420 -1.2083 -0.7423
11471TIP3    H255829   4.848   5.834  14.470  1.0882  1.5324  2.8611
11472TIP3   OH255830   0.502   1.538  14.127 -1.0212 -0.1843 -0.3446
11472TIP3    H155831   0.436   1.600  14.159 -1.6536 -2.1685  2.6211
11472TIP3    H255832   0.584   1.571  14.164 -0.7906  0.6613 -1.5657
11473TIP3   OH255833   0.506   2.076   5.514 -0.7083  0.1879 -0.2026
11473TIP3    H155834   0.453   2.024   5.454 -0.1120 -1.0767  0.3365
11473TIP3    H255835   0.455   2.078   5.595 -0.1938 -0.5638  0.1439
11474TIP3   OH255836   0.920   2.342  12.430 -0.6802  0.1805  0.3477
11474TIP3    H155837   0.866   2.420  12.442  0.2937  0.8991  0.2087
11474TIP3    H255838   0.868   2.270  12.466 -0.6610  1.2156  2.6190
11475TIP3   OH255839   4.343   6.619  13.957  0.1363  0.4848 -1.0194
11475TIP3    H155840   4.421   6.670  13.939 -0.0470  0.8514 -0.7914
11475TIP3    H255841   4.279   6.649  13.892 -0.1982  1.0685 -0.4358
11476TIP3   OH255842   5.172   2.101  14.595 -0.2371 -0.0091 -0.2909
11476TIP3    H155843   5.099   2.040  14.581 -0.6336  0.4304 -0.1497
11476TIP3    H255844   5.244   2.064  14.544 -0.0589 -1.3200  0.8301
11477TIP3   OH255845   0.482   2.849  16.675 -0.2387 -0.0107  0.0171
11477TIP3    H155846   0.518   2.938  16.677 -1.8558  0.6834  0.0957
11477TIP3    H255847   0.544   2.797  16.725  0.3717  1.2282  0.6014
11478TIP3   OH255848   5.375   6.187   0.960  0.4059 -0.7708  0.2677
11478TIP3    H155849   5.335   6.271   0.937  1.8903  0.9387  3.2139
11478TIP3    H255850   5.306   6.122   0.947 -1.5975  1.2675  0.1822
11479TIP3   OH255851   1.821   2.888   5.119  0.2130 -0.0962 -0.2827
11479TIP3    H155852   1.913   2.902   5.097  0.1336 -0.8255 -1.1373
11479TIP3    H255853   1.807   2.943   5.196  0.3750  2.9481 -2.2535
11480TIP3   OH255854   5.888   5.954   1.936 -0.2912 -0.3003 -0.1920
11480TIP3    H155855   5.816   5.994   1.986  1.0738  0.0480  1.6156
11480TIP3    H255856   5.919   6.024   1.878 -0.3771  0.0683  0.2006
11481TIP3   OH255857   5.459   0.417   0.537  0.0837  0.6068 -0.5339
11481TIP3    H155858   5.422   0.495   0.577  2.2602  1.0713  0.7890
11481TIP3    H255859   5.537   0.448   0.491  2.0734 -0.8883  1.5576
11482TIP3   OH255860   2.018   4.415  11.099 -0.4267 -0.5402 -0.3888
11482TIP3    H155861   2.098   4.364  11.086  0.7249  1.6285 -2.8463
11482TIP3    H255862   1.953   4.373  11.041 -0.6747 -1.4735  0.5498
11483TIP3   OH255863   3.982   5.748   0.024 -0.5034 -0.3109 -0.6089
11483TIP3    H155864   3.957   5.700   0.103 -1.3833  1.0561 -0.0239
11483TIP3    H255865   4.068   5.784   0.043 -0.8368  0.2547 -0.1474
11484TIP3   OH255866   5.445   0.573  15.322  0.2680 -0.2185 -0.0347
11484TIP3    H155867   5.396   0.492  15.339 -0.9758  0.3166 -0.8899
11484TIP3    H255868   5.397   0.640  15.371 -0.2568  0.4301 -1.3989
11485TIP3   OH255869   4.883   3.017   0.516  0.5790 -0.1511  0.4656
11485TIP3    H155870   4.844   3.049   0.598  2.0931  0.6179  0.9252
11485TIP3    H255871   4.925   3.095   0.478  1.1165 -0.8098 -0.3157
11486TIP3   OH255872   0.139   1.183  11.194  0.6258  0.1555 -0.1420
11486TIP3    H155873   0.171   1.176  11.104  1.5712  1.4083  0.0747
11486TIP3    H255874   0.201   1.131  11.246  0.4782 -0.0005 -0.1195
11487TIP3   OH255875   2.763   6.790   5.337  0.2496  0.0868 -0.0012
11487TIP3    H155876   2.710   6.833   5.269 -0.8165 -0.7177  0.2821
11487TIP3    H255877   2.827   6.739   5.288 -0.4119 -0.3625 -0.4250
11488TIP3   OH255878   3.027   2.078  16.027 -0.3679  0.0738  0.2086
11488TIP3    H155879   2.979   2.007  16.070 -1.9512 -0.4399 -2.1610
11488TIP3    H255880   3.106   2.089  16.079  0.1360 -3.7045  0.5446
11489TIP3   OH255881   2.818   0.109  12.812  0.5239 -0.2674 -0.7156
11489TIP3    H155882   2.785   0.101  12.722  0.4537  1.0667 -0.8353
11489TIP3    H255883   2.913   0.116  12.802  0.3994  1.8072 -0.8840
11490TIP3   OH255884   4.019   3.476  12.558 -0.3238 -0.8298 -0.0204
11490TIP3    H155885   4.088   3.539  12.540  0.3706 -1.4129  0.5366
11490TIP3    H255886   3.940   3.515  12.521  0.2423 -0.0048 -0.3741
11491TIP3   OH255887   0.438   0.998  11.534  0.1525 -0.5418  0.0192
11491TIP3    H155888   0.454   0.958  11.449  1.9765  0.1287  0.0022
11491TIP3    H255889   0.376   1.069  11.516  0.4017 -0.5028 -0.7180
11492TIP3   OH255890   3.421   4.060  10.412  0.2548  0.5931  0.1994
11492TIP3    H155891   3.457   4.145  10.387 -0.5139  1.0758  0.6931
11492TIP3    H255892   3.347   4.081  10.469  0.0831 -0.4099  0.3657
11493TIP3   OH255893   1.726   5.269   0.125 -0.4688 -0.4380  0.2440
11493TIP3    H155894   1.815   5.242   0.148 -0.1665  0.0120 -0.3796
11493TIP3    H255895   1.671   5.194   0.150  0.3154 -1.5248 -1.1524
11494TIP3   OH255896   0.593   0.644  12.604 -0.2573  0.2616  0.5485
11494TIP3    H155897   0.604   0.694  12.685  0.2336 -0.8306  1.1696
11494TIP3    H255898   0.610   0.553  12.629 -2.0175 -0.3632 -0.3522
11495TIP3   OH255899   4.135   6.029  15.046 -0.2859  0.3190  0.5415
11495TIP3    H155900   4.138   6.097  14.979 -0.2785 -2.0549 -2.0447
11495TIP3    H255901   4.225   6.022  15.078  0.1901  0.0896 -0.7778
11496TIP3   OH255902   6.572   6.484  15.733 -0.0151 -0.6431 -0.5674
11496TIP3    H155903   6.606   6.490  15.643  0.5701 -1.4164 -0.4041
11496TIP3    H255904   6.650   6.488  15.788 -0.2561 -1.5813 -0.1454
11497TIP3   OH255905   2.678   0.375  14.017 -0.3399  0.5353  0.1674
11497TIP3    H155906   2.667   0.309  14.085  1.4443  1.2282  1.2146
11497TIP3    H255907   2.721   0.329  13.945 -0.4367  0.2445  0.2952
11498TIP3   OH255908   5.812   5.042   5.148  0.0477 -0.1255  0.5446
11498TIP3    H155909   5.723   5.024   5.118  0.7525 -1.5286 -0.8683
11498TIP3    H255910   5.807   5.037   5.243 -0.9952 -2.4844  0.4439
11499TIP3   OH255911   2.788   4.765  16.942 -0.3813  0.3669  0.6802
11499TIP3    H155912   2.825   4.700  17.002 -1.9943 -1.0478  0.2064
11499TIP3    H255913   2.807   4.730  16.854 -1.4899  0.3902  0.4215
11500TIP3   OH255914   6.233   2.814  10.884 -0.3141  0.5130 -0.1055
11500TIP3    H155915   6.221   2.758  10.961  0.8427  0.4016 -0.0001
11500TIP3    H255916   6.149   2.809  10.838 -0.8802  0.2507  0.9235
11501TIP3   OH255917   0.818   0.659   2.300 -0.3374  0.2103 -0.4212
11501TIP3    H155918   0.905   0.637   2.268 -0.6060  1.2110 -1.9391
11501TIP3    H255919   0.758   0.613   2.241 -0.8595 -0.8388  0.8839
11502TIP3   OH255920   0.305   2.504   2.893  0.1141 -0.2582 -0.5165
11502TIP3    H155921   0.324   2.425   2.843 -1.9836 -0.8656 -0.4424
11502TIP3    H255922   0.215   2.493   2.923 -0.1462  2.0249 -0.2413
11503TIP3   OH255923   0.506   4.331  12.065 -0.2346  0.2809 -0.0854
11503TIP3    H155924   0.480   4.396  12.130  1.8637  1.3174 -0.1947
11503TIP3    H255925   0.586   4.292  12.100  0.1482 -0.1508 -1.3709
11504TIP3   OH255926   1.504   0.287   4.673 -0.5493  0.0428  0.4685
11504TIP3    H155927   1.456   0.332   4.604 -0.8830 -0.0016  0.6746
11504TIP3    H255928   1.594   0.320   4.665 -0.8878  1.0890  0.9214
11505TIP3   OH255929   0.047   3.394   4.128  0.8128  0.4112  0.1036
11505TIP3    H155930   0.012   3.452   4.196  0.3743 -0.4579  0.6385
11505TIP3    H255931   0.079   3.453   4.060  0.4290  1.2786  0.6611
11506TIP3   OH255932   6.408   3.001  13.221 -0.3552  0.7350  0.2979
11506TIP3    H155933   6.372   3.057  13.290 -1.2191  2.5114 -1.5093
11506TIP3    H255934   6.501   3.024  13.218  0.1367 -0.7344  2.0576
11507TIP3   OH255935   6.208   3.806  11.306  0.3650 -0.1092 -0.5734
11507TIP3    H155936   6.186   3.721  11.268 -1.0713 -0.1140  0.1899
11507TIP3    H255937   6.144   3.866  11.269 -0.3472  0.0976  0.9124
11508TIP3   OH255938   1.346   6.254  10.630  0.4279 -0.7874  0.4071
11508TIP3    H155939   1.404   6.257  10.554  1.1207 -1.3799  0.8957
11508TIP3    H255940   1.300   6.338  10.629 -2.0432 -1.9794 -2.5385
11509TIP3   OH255941   1.727   5.138   5.364  0.7336 -0.4737 -0.1968
11509TIP3    H155942   1.718   5.229   5.336 -0.5030 -0.2135  0.9723
11509TIP3    H255943   1.768   5.143   5.450  1.3096 -1.0753 -0.4269
11510TIP3   OH255944   6.197   5.033   1.758  0.2796 -0.6665 -1.4869
11510TIP3    H155945   6.215   5.119   1.719  1.4728 -0.2451 -0.0726
11510TIP3    H255946   6.280   5.007   1.799 -0.9673 -0.8992  1.0890
11511TIP3   OH255947   2.312   2.603   3.558  0.2788  0.2191 -0.1212
11511TIP3    H155948   2.304   2.632   3.649 -1.1177  1.9947 -0.7622
11511TIP3    H255949   2.231   2.554   3.542  0.8911 -0.7881 -0.1880
11512TIP3   OH255950   1.976   1.497  16.033  0.3555 -0.0073 -0.5212
11512TIP3    H155951   1.977   1.577  15.980  0.5054 -0.0623 -0.6036
11512TIP3    H255952   1.997   1.427  15.970  2.0436  0.0986 -0.1045
11513TIP3   OH255953   1.720   6.729  12.429 -0.0676  0.3268  0.5066
11513TIP3    H155954   1.812   6.712  12.406 -0.3299 -2.2153  1.0818
11513TIP3    H255955   1.721   6.743  12.523 -0.4610 -1.8503  0.8849
11514TIP3   OH255956   2.668   3.082  16.534 -0.5632 -0.0119 -0.0413
11514TIP3    H155957   2.641   3.001  16.491 -0.7942 -0.5738  1.1489
11514TIP3    H255958   2.607   3.093  16.606 -0.8562  1.5063 -0.4846
11515TIP3   OH255959   1.081   0.890  16.360 -0.3247 -0.3379 -0.1824
11515TIP3    H155960   1.039   0.960  16.411  0.9381  0.1584  0.2115
11515TIP3    H255961   1.123   0.834  16.425 -0.2756 -0.7567 -0.5684
11516TIP3   OH255962   5.808   5.201   4.412 -0.3519  0.4150  0.1362
11516TIP3    H155963   5.880   5.147   4.381 -0.6792 -0.7128  1.2588
11516TIP3    H255964   5.847   5.261   4.475  0.0064  1.5226 -1.0907
11517TIP3   OH255965   4.742   0.935   1.802 -0.4430 -0.2039  0.1628
11517TIP3    H155966   4.731   0.986   1.722  0.1696  2.4249  1.6681
11517TIP3    H255967   4.656   0.933   1.843 -0.3586  0.0353  0.3504
11518TIP3   OH255968   4.058   5.619   4.686 -0.6384  0.7181  0.0933
11518TIP3    H155969   4.051   5.692   4.624 -0.2045 -0.0592 -0.8927
11518TIP3    H255970   4.024   5.544   4.638  0.3879 -0.0448  0.5307
11519TIP3   OH255971   2.221   0.469  15.436 -0.1879  0.0981 -0.5016
11519TIP3    H155972   2.129   0.462  15.462  0.0590  1.6009  0.9201
11519TIP3    H255973   2.221   0.446  15.343 -2.0503  0.4334 -0.6251
11520TIP3   OH255974   5.333   0.412   0.051 -0.4400  0.2151 -0.1637
11520TIP3    H155975   5.327   0.385   0.143  1.3012 -0.6917 -0.2701
11520TIP3    H255976   5.379   0.496   0.054  1.1905 -0.6333 -0.2623
11521TIP3   OH255977   2.437   3.142   0.925  0.0280  0.2620 -0.0388
11521TIP3    H155978   2.391   3.060   0.908 -1.3806  1.1449 -0.6666
11521TIP3    H255979   2.414   3.164   1.015  1.4020 -0.6123  0.5634
11522TIP3   OH255980   0.361   3.221  13.149  0.1778 -0.4660  0.1337
11522TIP3    H155981   0.450   3.236  13.117  0.5836 -0.8600  1.0581
11522TIP3    H255982   0.311   3.294  13.114  1.0737  0.3075  0.4279
11523TIP3   OH255983   5.633   1.094   1.125  0.4643  0.2287 -0.0904
11523TIP3    H155984   5.558   1.128   1.076  0.8764 -0.4055 -1.1752
11523TIP3    H255985   5.709   1.136   1.086  0.8723 -0.9605 -0.6100
11524TIP3   OH255986   5.779   2.361   4.792 -0.2245  0.5998 -0.6860
11524TIP3    H155987   5.836   2.391   4.721 -1.1109 -0.8412 -2.0965
11524TIP3    H255988   5.762   2.269   4.771 -0.8563  0.2497  1.2022
11525TIP3   OH255989   6.187   0.118   0.016 -0.4153 -0.3215  0.0028
11525TIP3    H155990   6.177   0.023   0.022  0.2676 -0.5784 -2.0836
11525TIP3    H255991   6.275   0.131  -0.019 -0.8117  1.0353 -0.5774
11526TIP3   OH255992   1.184   5.950   0.437  0.5330  0.7324 -0.2877
11526TIP3    H155993   1.169   5.974   0.529  1.3193  0.2742 -0.0251
11526TIP3    H255994   1.279   5.945   0.429  0.4628  0.4312 -1.0445
11527TIP3   OH255995   5.705   4.291  16.281 -0.3388 -0.4138 -0.1617
11527TIP3    H155996   5.732   4.272  16.191 -0.1212  0.3662 -0.2676
11527TIP3    H255997   5.729   4.212  16.331  1.7749  0.0677 -0.3298
11528TIP3   OH255998   3.188   6.245   5.074  0.5507  0.1266  0.3040
11528TIP3    H155999   3.258   6.180   5.059  0.6552  0.1912  0.5044
11528TIP3    H256000   3.162   6.231   5.164 -2.7836 -2.9099 -0.8926
11529TIP3   OH256001   4.960   5.602   1.455  0.0247 -0.1497 -0.6570
11529TIP3    H156002   4.900   5.540   1.416 -0.6180  0.9864 -1.5311
11529TIP3    H256003   4.957   5.583   1.549  0.4242 -1.9066 -0.9764
11530TIP3   OH256004   4.580   6.707   4.579  0.6419  0.2585 -0.3016
11530TIP3    H156005   4.519   6.642   4.543 -1.0179  2.3551 -1.5513
11530TIP3    H256006   4.526   6.784   4.594  2.8653  2.0414 -0.8747
11531TIP3   OH256007   4.207   3.749   2.738  0.3401  0.2040 -0.4024
11531TIP3    H156008   4.118   3.774   2.761 -0.0604 -0.8855 -0.6924
11531TIP3    H256009   4.198   3.700   2.656  1.3282  0.9464 -0.9864
11532TIP3   OH256010   3.344   5.317  15.657 -0.4893  0.4631  0.4817
11532TIP3    H156011   3.403   5.256  15.614  0.4927  0.4852  1.7511
11532TIP3    H256012   3.375   5.404  15.630 -0.6817  0.4524  0.2191
11533TIP3   OH256013   2.139   2.839  13.249  0.6030 -0.0466  0.1095
11533TIP3    H156014   2.152   2.777  13.177 -1.5128 -1.6821  1.0207
11533TIP3    H256015   2.052   2.876  13.233  0.8039  0.8193  0.9242
11534TIP3   OH256016   5.754   5.664  12.824 -0.3545  0.5454 -0.1033
11534TIP3    H156017   5.795   5.651  12.738 -1.6712 -1.0394 -0.5439
11534TIP3    H256018   5.803   5.607  12.883  0.6780  1.7847  0.2712
11535TIP3   OH256019   1.893   0.389  11.350  0.0693  0.2229 -0.0240
11535TIP3    H156020   1.980   0.413  11.380 -0.4138  0.6127  1.1494
11535TIP3    H256021   1.885   0.296  11.371 -0.3404  0.5391  1.3384
11536TIP3   OH256022   1.504   2.939   4.472 -0.0460 -0.0984 -0.5569
11536TIP3    H156023   1.502   2.855   4.426 -0.4085  0.3548 -1.3993
11536TIP3    H256024   1.517   2.916   4.564  1.3479 -1.0053 -0.9487
11537TIP3   OH256025   2.760   5.700  13.813  0.2078  0.5244  0.4844
11537TIP3    H156026   2.840   5.746  13.789  1.0441 -0.3747  1.4425
11537TIP3    H256027   2.781   5.656  13.895 -0.9940 -0.4384  0.3089
11538TIP3   OH256028   2.695   0.094  15.541 -0.1989  0.3033 -0.1017
11538TIP3    H156029   2.625   0.125  15.598  0.1999 -0.2108  0.6904
11538TIP3    H256030   2.755   0.168  15.533  1.2301 -0.4517  2.5323
11539TIP3   OH256031   2.442   1.975   1.240 -0.1183 -0.7094  0.0983
11539TIP3    H156032   2.468   2.039   1.307  2.1275 -1.5091  0.0908
11539TIP3    H256033   2.509   1.984   1.172 -0.3966 -2.2657 -0.4173
11540TIP3   OH256034   2.513   2.475   1.949 -0.3155  0.2592  0.2357
11540TIP3    H156035   2.487   2.409   1.884 -0.2507 -1.3672  1.8019
11540TIP3    H256036   2.456   2.550   1.930 -1.4484 -0.7811 -0.6456
11541TIP3   OH256037   2.628   2.306  14.331 -0.3273  0.0870 -0.2692
11541TIP3    H156038   2.533   2.293  14.321 -0.2279 -0.4293 -0.5919
11541TIP3    H256039   2.654   2.241  14.396  0.0861 -0.9831 -1.4739
11542TIP3   OH256040   0.199   4.078  14.908 -0.1017  0.0293 -0.4734
11542TIP3    H156041   0.161   3.997  14.943 -0.4475  0.6394  0.6107
11542TIP3    H256042   0.138   4.105  14.840 -0.4417 -0.1724 -0.2536
11543TIP3   OH256043   4.350   1.927  15.362 -0.1017  0.0666 -0.1995
11543TIP3    H156044   4.310   1.929  15.275 -0.7256 -0.0089  0.0834
11543TIP3    H256045   4.420   1.862  15.354 -0.5425 -0.3763 -0.4824
11544TIP3   OH256046   2.146   5.183   2.539  0.1718 -0.4826 -0.0266
11544TIP3    H156047   2.064   5.162   2.584  0.3485 -1.0377  0.0443
11544TIP3    H256048   2.209   5.118   2.572  0.0448 -1.6101 -1.8460
11545TIP3   OH256049   2.843   5.037  12.543  0.3565  0.2699  0.1974
11545TIP3    H156050   2.836   4.977  12.618 -0.9613 -0.1341 -0.2313
11545TIP3    H256051   2.861   5.123  12.583  0.3280 -0.0608  0.9349
11546TIP3   OH256052   4.849   4.354   3.947  0.6604  0.4929  0.0028
11546TIP3    H156053   4.881   4.369   3.858  0.6515  0.8350  0.0551
11546TIP3    H256054   4.775   4.414   3.956 -0.0246 -0.3186 -0.1288
11547TIP3   OH256055   5.786   6.047  17.193  0.5622 -0.2572  0.2042
11547TIP3    H156056   5.726   5.973  17.186  0.7425 -0.5291  1.3689
11547TIP3    H256057   5.850   6.033  17.123 -0.5306 -0.1358 -0.8387
11548TIP3   OH256058   5.160   1.194  11.761 -0.8408  0.2948  0.1414
11548TIP3    H156059   5.128   1.152  11.681 -0.5999  2.1602 -0.9759
11548TIP3    H256060   5.096   1.169  11.828 -1.4181 -0.7528 -0.7614
11549TIP3   OH256061   3.337   0.522  16.604  0.1994 -0.0754 -0.0652
11549TIP3    H156062   3.427   0.548  16.626 -0.2596  0.2811  1.5508
11549TIP3    H256063   3.307   0.473  16.681 -1.0852  0.0806 -0.4459
11550TIP3   OH256064   3.829   5.674   5.401 -0.0002 -0.1919  0.0559
11550TIP3    H156065   3.786   5.638   5.323  0.9448 -0.1411 -0.5096
11550TIP3    H256066   3.917   5.637   5.398 -0.5002 -1.7207  2.1640
11551TIP3   OH256067   1.940   1.999   0.070 -0.6583 -0.4231  0.2555
11551TIP3    H156068   1.888   1.993   0.150 -1.3758 -1.1268 -0.2608
11551TIP3    H256069   1.891   1.950   0.004  1.3592 -2.3853  0.1135
11552TIP3   OH256070   2.610   5.685  13.356  0.1770 -0.5390  1.2427
11552TIP3    H156071   2.669   5.633  13.410  0.8217 -0.1829  0.8917
11552TIP3    H256072   2.594   5.765  13.406 -1.4971 -1.4076  2.1703
11553TIP3   OH256073   0.701   6.736  11.931  0.4922  0.2952  0.7102
11553TIP3    H156074   0.636   6.747  11.862  1.3260 -0.4600 -0.2217
11553TIP3    H256075   0.733   6.825  11.948 -0.3962  0.6049  0.8143
11554TIP3   OH256076   5.855   1.639   0.034  0.4187  0.4319  0.2443
11554TIP3    H156077   5.886   1.727   0.057  1.0243  1.0948 -2.7583
11554TIP3    H256078   5.775   1.654  -0.016  0.7663 -0.6872 -0.6698
11555TIP3   OH256079   0.548   2.058   5.971  0.4341  0.0783 -0.3169
11555TIP3    H156080   0.481   1.991   5.983 -0.1716  0.6756 -0.3021
11555TIP3    H256081   0.617   2.015   5.920  0.2712 -0.6872  0.1085
11556TIP3   OH256082   2.121   0.686   3.258 -0.0760 -0.4397  0.9779
11556TIP3    H156083   2.155   0.601   3.287 -0.5638 -1.1037 -0.2971
11556TIP3    H256084   2.171   0.706   3.179 -2.1922 -1.2207 -0.6830
11557TIP3   OH256085   1.710   3.246  11.145  0.4572  0.2648 -0.2756
11557TIP3    H156086   1.715   3.205  11.059 -0.9299  1.1128 -0.7875
11557TIP3    H256087   1.757   3.186  11.203  2.5082  0.2631 -1.8040
11558TIP3   OH256088   2.057   3.427  17.065 -0.2508  0.1984  0.3268
11558TIP3    H156089   2.110   3.394  16.992 -0.1725  1.6197 -0.2806
11558TIP3    H256090   1.976   3.376  17.059 -0.2343  0.2647 -0.7480
11559TIP3   OH256091   4.317   5.065  13.332  0.3382  0.0320  0.1946
11559TIP3    H156092   4.271   5.097  13.409 -2.4606 -0.1406 -1.2573
11559TIP3    H256093   4.324   4.970  13.345 -2.0885 -0.3207 -0.6107
11560TIP3   OH256094   0.932   5.156  11.472 -0.1686 -0.4071  0.2588
11560TIP3    H156095   0.897   5.102  11.544 -1.0707 -0.3590 -0.1323
11560TIP3    H256096   1.021   5.123  11.459 -0.0851 -0.6011  1.2179
11561TIP3   OH256097   5.023   1.873  14.583 -0.8477  0.6078 -0.2058
11561TIP3    H156098   4.993   1.852  14.671  0.2317 -0.6885 -0.1160
11561TIP3    H256099   4.946   1.857  14.527 -0.3394 -3.3105 -0.0694
11562TIP3   OH256100   0.708   1.733  17.062  0.0410 -0.5205  0.2824
11562TIP3    H156101   0.707   1.818  17.105  0.2616  0.5047 -1.6257
11562TIP3    H256102   0.618   1.722  17.029  0.5685  0.0768 -1.4507
11563TIP3   OH256103   0.408   1.317   1.669 -0.4599  0.2290  0.6183
11563TIP3    H156104   0.321   1.353   1.648 -0.5705 -0.6820 -0.5271
11563TIP3    H256105   0.466   1.357   1.605 -0.1325  0.3386  0.9805
11564TIP3   OH256106   2.634   4.266  14.559 -0.3229 -0.1007  0.5966
11564TIP3    H156107   2.580   4.344  14.576  1.3469  1.8883 -2.3250
11564TIP3    H256108   2.571   4.194  14.556 -2.3031  1.5174  0.8849
11565TIP3   OH256109   3.606   3.350  15.372  0.0640  0.0196  1.0732
11565TIP3    H156110   3.555   3.430  15.380 -1.0362 -0.4692 -0.5297
11565TIP3    H256111   3.688   3.377  15.331 -0.8324  0.1887 -0.7073
11566TIP3   OH256112   1.949   4.766   3.807 -0.4131  0.4116  0.3675
11566TIP3    H156113   1.926   4.858   3.799  0.4232  0.9219  2.8621
11566TIP3    H256114   2.033   4.766   3.853 -0.0202 -1.5959 -0.2162
11567TIP3   OH256115   6.203   3.206  12.212 -0.4877 -0.3774 -0.1692
11567TIP3    H156116   6.285   3.253  12.200 -1.0602  0.3339 -1.5731
11567TIP3    H256117   6.216   3.154  12.291  1.5914 -0.8987 -0.7964
11568TIP3   OH256118   1.079   2.795  15.469  0.4792 -0.1278  0.1895
11568TIP3    H156119   1.002   2.808  15.414  0.9885 -0.3297 -0.5914
11568TIP3    H256120   1.047   2.746  15.544 -0.4346  1.0720  0.5961
11569TIP3   OH256121   3.100   5.445   4.436  0.2849  0.0982  0.0530
11569TIP3    H156122   3.032   5.438   4.502  0.2680  0.1126  0.0368
11569TIP3    H256123   3.056   5.425   4.353  0.0672  1.1552 -0.0955
11570TIP3   OH256124   1.350   2.005  15.585 -0.1440  0.2152 -0.2808
11570TIP3    H156125   1.323   2.005  15.493  2.8028  0.3371 -1.2553
11570TIP3    H256126   1.329   2.093  15.615 -4.6325 -0.8805  0.4616
11571TIP3   OH256127   0.556   0.354  12.777  0.3646  0.5359  0.2893
11571TIP3    H156128   0.644   0.339  12.810 -0.0138  0.4129  1.2813
11571TIP3    H256129   0.513   0.268  12.784  0.8187  0.0020 -2.3564
11572TIP3   OH256130   3.779   4.919   2.613  0.0597 -0.4350 -0.2723
11572TIP3    H156131   3.747   4.833   2.583  0.6409 -1.2883  1.4382
11572TIP3    H256132   3.732   4.935   2.695  3.1829 -1.2902  1.8431
11573TIP3   OH256133   5.230   5.814  14.262 -0.2680  0.2734 -0.3791
11573TIP3    H156134   5.226   5.809  14.166  2.9838 -0.4787 -0.5990
11573TIP3    H256135   5.233   5.722  14.290  0.5970  0.4863  0.2752
11574TIP3   OH256136   2.966   3.109  10.629 -0.0309 -0.7193  1.0450
11574TIP3    H156137   3.042   3.113  10.687  0.7106 -0.9748  0.1199
11574TIP3    H256138   2.956   3.198  10.596  1.0581 -1.0571 -0.2871
11575TIP3   OH256139   4.333   2.597   3.994  0.3616  0.8060  0.0299
11575TIP3    H156140   4.280   2.530   3.952 -0.2017  0.9244  0.5371
11575TIP3    H256141   4.370   2.554   4.071  1.0357  0.7134 -0.3413
11576TIP3   OH256142   0.348   4.343   4.809 -0.6947 -0.0819 -0.0438
11576TIP3    H156143   0.331   4.287   4.733 -0.9368  0.0967 -0.1250
11576TIP3    H256144   0.261   4.359   4.846 -0.4689 -1.1278  0.9641
11577TIP3   OH256145   5.080   3.703  13.804  0.2391  0.0232  0.1688
11577TIP3    H156146   5.028   3.623  13.812 -1.0065  0.9259  2.0553
11577TIP3    H256147   5.166   3.674  13.774 -0.7890 -1.7407 -1.2885
11578TIP3   OH256148   3.263   1.338   5.709 -0.5859  0.0167 -0.7624
11578TIP3    H156149   3.225   1.381   5.786  0.0876  0.1228 -0.4818
11578TIP3    H256150   3.307   1.261   5.745 -0.1035  0.1721 -1.0164
11579TIP3   OH256151   5.275   1.389   1.324  0.1674  0.1500 -0.5052
11579TIP3    H156152   5.260   1.367   1.416  0.4976  1.4549 -0.1230
11579TIP3    H256153   5.287   1.304   1.281  0.3208 -0.4673  0.7116
11580TIP3   OH256154   2.086   2.262  11.061  0.0456 -0.3824  0.0532
11580TIP3    H156155   2.089   2.346  11.014 -3.6053  0.4960  1.0323
11580TIP3    H256156   2.150   2.272  11.132 -1.5708  2.4781  1.3093
11581TIP3   OH256157   4.101   3.935   0.663  0.1464  0.2439  0.4249
11581TIP3    H156158   4.014   3.930   0.623 -0.0547 -0.3627  0.9160
11581TIP3    H256159   4.159   3.962   0.592 -0.6177  1.8109  0.3372
11582TIP3   OH256160   2.931   0.440  13.432 -0.1598 -0.3104  0.3989
11582TIP3    H156161   2.883   0.383  13.371  0.2944  0.5552 -0.8083
11582TIP3    H256162   2.886   0.429  13.516 -1.1652 -1.0946 -0.2227
11583TIP3   OH256163   1.416   4.549   4.923  0.0096 -0.2854 -0.1734
11583TIP3    H156164   1.327   4.556   4.887  1.3325 -1.3124 -4.1402
11583TIP3    H256165   1.420   4.460   4.959 -1.0397  0.4206  1.8729
11584TIP3   OH256166   1.766   6.296  16.144  0.4591 -0.1341 -0.1555
11584TIP3    H156167   1.679   6.318  16.179  1.1992  1.3658  0.8382
11584TIP3    H256168   1.807   6.245  16.213  0.8746  0.3738 -0.0223
11585TIP3   OH256169   4.484   0.473  16.446 -0.1866 -0.2419 -0.0596
11585TIP3    H156170   4.574   0.460  16.416 -0.8501 -1.6437 -1.5766
11585TIP3    H256171   4.454   0.387  16.473 -1.2819  0.0831 -0.1624
11586TIP3   OH256172   1.231   4.111   3.716 -0.0039 -0.2672  0.1630
11586TIP3    H156173   1.257   4.072   3.799  0.8884 -0.1752 -0.0605
11586TIP3    H256174   1.225   4.205   3.734  4.2114  0.3938 -0.7261
11587TIP3   OH256175   6.514   1.140   0.156 -0.0973  0.0872  0.7284
11587TIP3    H156176   6.582   1.156   0.090 -0.6946  0.5197  0.2132
11587TIP3    H256177   6.434   1.175   0.118 -0.8048 -1.1836  0.9637
11588TIP3   OH256178   3.420   4.100   5.426  0.2403  0.2378  0.2530
11588TIP3    H156179   3.362   4.025   5.419 -0.1154  0.5343 -0.0413
11588TIP3    H256180   3.429   4.115   5.520 -0.5023  0.4427  0.3013
11589TIP3   OH256181   3.264   4.605   0.386  0.0969  0.4826  0.2140
11589TIP3    H156182   3.193   4.650   0.341 -0.2668  0.2236  0.5281
11589TIP3    H256183   3.316   4.675   0.426 -0.2791  0.6462  0.4224
11590TIP3   OH256184   1.393   3.007   5.820 -0.3470  0.1172 -0.2869
11590TIP3    H156185   1.372   3.036   5.909 -0.8906  1.2953 -0.7700
11590TIP3    H256186   1.461   3.068   5.790  1.3010 -1.4900 -0.0042
11591TIP3   OH256187   6.472   1.070   1.290 -0.0320 -0.2073  0.2362
11591TIP3    H156188   6.547   1.027   1.331 -1.0552 -1.4101  0.9618
11591TIP3    H256189   6.419   1.100   1.364 -0.4585  0.2620 -0.2522
11592TIP3   OH256190   0.278   0.036  10.904 -0.1041  0.6034 -0.7110
11592TIP3    H156191   0.339   0.005  10.971  0.8096  1.5626 -1.0677
11592TIP3    H256192   0.279   0.131  10.914 -2.3274  0.6172 -0.0731
11593TIP3   OH256193   6.200   3.029   3.537 -0.2538 -0.3561  0.0931
11593TIP3    H156194   6.219   2.937   3.516  1.2877  0.1379 -0.8605
11593TIP3    H256195   6.285   3.072   3.536 -1.0844  1.3929 -1.0268
11594TIP3   OH256196   1.647   1.946   5.924  0.0469 -0.1615 -0.0534
11594TIP3    H156197   1.633   2.035   5.957  2.4346  0.3069 -0.1513
11594TIP3    H256198   1.657   1.893   6.003 -1.8704 -0.4844  0.0156
11595TIP3   OH256199   5.352   3.740   0.126 -0.2135 -0.1566  0.3847
11595TIP3    H156200   5.276   3.690   0.155  0.4580 -0.2607  2.0940
11595TIP3    H256201   5.364   3.807   0.193  0.7690  0.3215 -0.2426
11596TIP3   OH256202   6.411   2.954   3.289  0.0686 -0.0826  0.1683
11596TIP3    H156203   6.486   2.914   3.334  0.5934  1.1173  0.4085
11596TIP3    H256204   6.439   3.044   3.272 -1.0045  0.1365 -0.5133
11597TIP3   OH256205   2.958   3.313  12.106 -0.0217 -0.5236 -0.2745
11597TIP3    H156206   2.915   3.286  12.025 -0.1389 -0.4473 -0.2386
11597TIP3    H256207   3.011   3.388  12.081  0.4932 -0.9322 -0.4240
11598TIP3   OH256208   3.716   1.633   0.160 -0.0961 -0.2615 -0.0197
11598TIP3    H156209   3.665   1.668   0.087  0.4576  0.7568  0.0548
11598TIP3    H256210   3.653   1.622   0.231 -0.2730  0.7436 -0.0068
11599TIP3   OH256211   6.159   0.718  11.828 -0.2342 -0.3368 -0.4382
11599TIP3    H156212   6.253   0.703  11.832  0.2087  1.4359 -2.5171
11599TIP3    H256213   6.145   0.795  11.884 -0.6335 -1.1088  0.5669
11600TIP3   OH256214   5.199   3.791  16.827  0.1325 -0.0748 -0.2541
11600TIP3    H156215   5.208   3.885  16.809 -2.2824  0.4890  1.0180
11600TIP3    H256216   5.228   3.782  16.918 -3.3729  0.3093  1.0560
11601TIP3   OH256217   4.680   1.242   3.478  0.0260 -0.5760  0.7665
11601TIP3    H156218   4.659   1.249   3.384 -0.5539 -1.1216  0.8496
11601TIP3    H256219   4.670   1.331   3.511 -1.6817 -0.6923  0.6822
11602TIP3   OH256220   1.916   0.583  14.331 -0.4484 -0.6211 -0.5879
11602TIP3    H156221   1.935   0.520  14.400  1.3189  3.0305  2.6292
11602TIP3    H256222   1.821   0.587  14.327 -0.5940 -1.3398  1.3061
11603TIP3   OH256223   5.260   0.927   0.058 -0.2287 -0.0414 -0.1603
11603TIP3    H156224   5.298   0.840   0.045  0.4792  0.3404 -0.7690
11603TIP3    H256225   5.329   0.976   0.103 -1.4712 -0.4258  2.3116
11604TIP3   OH256226   6.040   1.390  14.825  0.0892  0.5929  0.7298
11604TIP3    H156227   6.129   1.353  14.829  1.6769  3.0208 -3.9504
11604TIP3    H256228   6.037   1.452  14.897  2.9139  1.5858  0.1185
11605TIP3   OH256229   5.632   4.074   3.508 -0.1057  0.4818 -0.1968
11605TIP3    H156230   5.541   4.104   3.503  0.1423  1.1319 -0.8429
11605TIP3    H256231   5.685   4.150   3.485  0.6418  0.2836  0.7759
11606TIP3   OH256232   0.005   0.136  16.112 -0.5013  0.7426  0.0276
11606TIP3    H156233   0.003   0.058  16.058 -0.1407  1.5206 -1.1526
11606TIP3    H256234   0.024   0.104  16.200  2.7979 -0.3309 -0.9002
11607TIP3   OH256235   2.491   4.142   3.774 -0.6852  0.1212  0.2445
11607TIP3    H156236   2.478   4.054   3.737 -0.3364  0.4571 -0.7109
11607TIP3    H256237   2.495   4.127   3.868 -0.2712 -0.9494  0.0830
11608TIP3   OH256238   3.135   2.073  16.805  0.2437 -0.1943 -0.3784
11608TIP3    H156239   3.210   2.049  16.751  0.9338 -0.0848  0.5051
11608TIP3    H256240   3.080   1.995  16.806 -0.0556 -0.0249 -1.6624
11609TIP3   OH256241   4.257   1.281   3.047  0.3002  0.0190 -0.1218
11609TIP3    H156242   4.266   1.371   3.080  1.3263 -0.1893  0.1837
11609TIP3    H256243   4.224   1.292   2.958  2.9841  0.8447 -1.1007
11610TIP3   OH256244   1.123   3.046  16.904 -0.4105 -0.9255 -0.3594
11610TIP3    H156245   1.082   3.132  16.902  0.4405 -0.4967  0.0684
11610TIP3    H256246   1.151   3.030  16.814  0.6094 -0.1552 -0.1986
11611TIP3   OH256247   4.283   5.626   2.740 -0.7974  0.5460  0.4275
11611TIP3    H156248   4.201   5.577   2.746 -0.5389 -0.3422 -2.0973
11611TIP3    H256249   4.258   5.713   2.709 -0.9032  0.7410  1.0532
11612TIP3   OH256250   2.592   6.315  15.447  0.1138  0.0724  0.6105
11612TIP3    H156251   2.616   6.377  15.378 -0.3456  0.5571  0.8823
11612TIP3    H256252   2.660   6.325  15.514 -0.7308  1.3520  1.3181
11613TIP3   OH256253   4.039   5.061   0.306  0.2652  0.1991 -0.2741
11613TIP3    H156254   4.091   5.007   0.247 -1.1441 -0.4688 -0.9576
11613TIP3    H256255   3.954   5.069   0.262 -0.0720  1.6390  0.5728
11614TIP3   OH256256   0.390   1.970  14.968  0.3069  0.5025 -0.1822
11614TIP3    H156257   0.373   2.055  14.927 -1.6135 -0.3151 -1.2648
11614TIP3    H256258   0.322   1.962  15.035 -0.6597 -0.8399 -1.2500
11615TIP3   OH256259   6.299   3.809   3.503  0.0185 -0.2209  0.2473
11615TIP3    H156260   6.212   3.832   3.535 -1.0785 -2.7263 -0.6747
11615TIP3    H256261   6.346   3.892   3.500 -2.3243  1.2182  0.7865
11616TIP3   OH256262   3.935   5.215  14.305 -0.2839  0.1168  0.3379
11616TIP3    H156263   3.968   5.126  14.290 -0.2014  0.4571 -1.8984
11616TIP3    H256264   3.871   5.229  14.235 -0.2416  1.8419  0.5988
11617TIP3   OH256265   6.064   2.249   4.009  0.4266  0.0487  0.7813
11617TIP3    H156266   6.094   2.159   3.999 -1.7201 -0.5025 -2.3759
11617TIP3    H256267   6.129   2.302   3.963 -0.0018 -0.3460 -0.3140
11618TIP3   OH256268   4.467   4.823   0.699 -0.0003  0.4653 -0.1117
11618TIP3    H156269   4.441   4.914   0.713  1.2335  0.8898 -0.4111
11618TIP3    H256270   4.488   4.818   0.606 -0.2351 -0.1873 -0.1383
11619TIP3   OH256271   5.315   1.566  11.373  0.1470  0.4136 -0.1064
11619TIP3    H156272   5.407   1.575  11.349 -0.1539  1.5346 -0.9359
11619TIP3    H256273   5.286   1.487  11.326  0.8045 -0.2626  0.6025
11620TIP3   OH256274   5.955   0.604   4.816  0.4094 -0.6703  0.0451
11620TIP3    H156275   6.039   0.565   4.794  0.2411 -1.0574  0.0787
11620TIP3    H256276   5.931   0.653   4.737 -0.3792 -2.3812 -0.8435
11621TIP3   OH256277   2.704   1.951  12.060 -0.4472 -0.0938 -0.1099
11621TIP3    H156278   2.642   1.895  12.107 -2.6517  1.4538 -0.9964
11621TIP3    H256279   2.789   1.925  12.094 -1.5786 -2.0495  1.5038
11622TIP3   OH256280   2.742   3.806   5.076  1.0771  0.9839  0.5599
11622TIP3    H156281   2.756   3.743   5.147  0.2124  2.0417  1.7078
11622TIP3    H256282   2.773   3.889   5.111  0.1030  1.6420 -0.0952
11623TIP3   OH256283   4.391   4.582  15.584 -0.0561  0.1672 -0.0766
11623TIP3    H156284   4.400   4.597  15.678  0.6771 -0.7823  0.0311
11623TIP3    H256285   4.481   4.588  15.551 -0.1803 -0.4576 -0.5456
11624TIP3   OH256286   0.478   1.438   1.452 -0.4671  0.2307 -0.4996
11624TIP3    H156287   0.400   1.426   1.397 -0.3854  1.6705 -0.9682
11624TIP3    H256288   0.473   1.529   1.480  0.2952 -0.0718  0.6606
11625TIP3   OH256289   3.262   5.831  15.263 -0.5044  0.2436 -0.5485
11625TIP3    H156290   3.229   5.747  15.233 -0.5242 -0.0402  0.2588
11625TIP3    H256291   3.232   5.894  15.197  0.6634 -0.5496 -1.8995
11626TIP3   OH256292   5.511   5.344   5.007  0.2573  0.2534  0.2437
11626TIP3    H156293   5.583   5.296   4.964 -0.9927 -0.5778 -1.0311
11626TIP3    H256294   5.486   5.288   5.081 -0.0237 -0.2002 -0.1851
11627TIP3   OH256295   4.646   3.751   1.476 -0.0465  0.0901 -0.4156
11627TIP3    H156296   4.645   3.664   1.436  0.7499  0.3950 -1.1249
11627TIP3    H256297   4.699   3.740   1.555  0.2167 -0.0342 -0.6052
11628TIP3   OH256298   5.317   5.175   4.799 -0.1528  0.2417  0.2320
11628TIP3    H156299   5.298   5.260   4.759 -1.9344 -0.6858 -1.0329
11628TIP3    H256300   5.289   5.185   4.890 -1.8771  0.5827 -0.2896
11629TIP3   OH256301   4.941   3.054   0.915  0.5790  0.8509 -0.4910
11629TIP3    H156302   5.024   3.085   0.877  1.1486 -0.1371 -0.0995
11629TIP3    H256303   4.952   2.959   0.920  0.9595  0.9393  3.0099
11630TIP3   OH256304   5.171   3.980  14.332 -0.3174  0.1821 -0.0578
11630TIP3    H156305   5.191   4.009  14.243  1.1977 -0.3925  0.0714
11630TIP3    H256306   5.198   4.053  14.387  1.0070 -0.3758  0.0752
11631TIP3   OH256307   6.483   3.890   6.399 -0.6408  0.5104  0.1856
11631TIP3    H156308   6.393   3.869   6.372 -0.8219 -1.8988  2.3073
11631TIP3    H256309   6.472   3.938   6.481  0.0422  0.9348  0.0395
11632TIP3   OH256310   3.943   2.094  14.481  0.3777  0.1382  0.2766
11632TIP3    H156311   3.935   2.169  14.422  0.4449  1.0357  1.3600
11632TIP3    H256312   3.947   2.018  14.423 -1.5048  0.8014 -0.7900
11633TIP3   OH256313   3.959   3.540   5.347  0.2856  0.4428  0.4395
11633TIP3    H156314   3.956   3.510   5.438 -0.0550 -0.2723  0.2024
11633TIP3    H256315   4.022   3.612   5.347  0.9465 -0.1288  1.0698
11634TIP3   OH256316   1.007   3.805  15.642 -0.8125 -0.0524  0.0031
11634TIP3    H156317   1.039   3.722  15.605  2.2007  0.5550  0.9767
11634TIP3    H256318   0.969   3.779  15.726  0.8581 -0.4346  0.6877
11635TIP3   OH256319   4.846   3.768   1.670  0.2766  0.5531  0.2319
11635TIP3    H156320   4.883   3.828   1.734 -1.5454 -0.3093  2.1883
11635TIP3    H256321   4.892   3.685   1.684 -0.5579  0.1874  0.9118
11636TIP3   OH256322   3.322   5.831   1.069  0.2990  0.1535  0.7722
11636TIP3    H156323   3.331   5.772   0.993 -1.4997 -0.7668  1.2229
11636TIP3    H256324   3.322   5.918   1.031  1.5114 -0.1853 -0.0683
11637TIP3   OH256325   3.961   1.259  15.583 -0.6302 -0.0531 -0.4790
11637TIP3    H156326   3.920   1.237  15.666 -1.5948 -0.8024 -1.1374
11637TIP3    H256327   4.016   1.183  15.562  3.0579  1.7991  1.5011
11638TIP3   OH256328   3.524   3.102   0.798  0.1701  0.3945  0.6458
11638TIP3    H156329   3.488   3.013   0.798 -0.8368  0.7768  1.7146
11638TIP3    H256330   3.611   3.092   0.760 -0.3523 -0.8643 -0.3137
11639TIP3   OH256331   6.739   6.442  14.545 -0.4142  0.2507 -0.2334
11639TIP3    H156332   6.654   6.484  14.532 -1.8206 -2.3203 -0.0904
11639TIP3    H256333   6.794   6.509  14.585 -2.7506  1.6761  0.7857
11640TIP3   OH256334   4.518   6.547   2.476  0.8715  0.2487  0.4056
11640TIP3    H156335   4.598   6.542   2.424  0.9797  0.3735  0.5608
11640TIP3    H256336   4.449   6.514   2.418  0.6378  2.2813 -0.5482
11641TIP3   OH256337   5.324   4.567   2.788 -0.1868 -0.0201  0.3572
11641TIP3    H156338   5.271   4.575   2.867 -1.3078  2.1351 -0.5115
11641TIP3    H256339   5.263   4.531   2.722  0.2479 -0.2073  0.0527
11642TIP3   OH256340   6.182   6.006  15.323  0.0283  0.1699 -0.2532
11642TIP3    H156341   6.272   5.979  15.344 -1.1186 -2.1787  2.2682
11642TIP3    H256342   6.180   6.099  15.343  1.2087 -0.3128  2.7923
11643TIP3   OH256343   2.188   5.400   2.708  0.2073  0.2387 -0.4745
11643TIP3    H156344   2.201   5.322   2.654 -1.9657  0.1488 -0.9629
11643TIP3    H256345   2.093   5.404   2.722  0.4104  2.0238  0.7178
11644TIP3   OH256346   4.965   1.762  14.827 -0.1974  0.0748 -0.1383
11644TIP3    H156347   4.928   1.674  14.835  1.0994 -0.5349 -0.5725
11644TIP3    H256348   5.057   1.751  14.852  0.5452  0.8548 -2.3111
11645TIP3   OH256349   5.966   0.397  15.174 -0.4360  0.5004  0.9846
11645TIP3    H156350   6.013   0.393  15.257 -0.5451  2.0316  1.1457
11645TIP3    H256351   5.875   0.381  15.198 -0.7354  2.6954  1.4512
11646TIP3   OH256352   4.222   2.725  13.045 -0.3219 -0.6190 -0.3593
11646TIP3    H156353   4.262   2.789  12.987 -0.0222 -0.2567  0.2312
11646TIP3    H256354   4.191   2.776  13.120 -1.2421 -0.9942 -0.4758
11647TIP3   OH256355   2.961   1.225   2.563 -0.4201  0.2202 -0.2684
11647TIP3    H156356   2.915   1.157   2.612 -2.4045 -0.0986 -2.3734
11647TIP3    H256357   2.963   1.192   2.473 -0.6566  2.5212 -1.1922
11648TIP3   OH256358   4.035   4.132  11.749  0.1351  0.1932  0.1876
11648TIP3    H156359   4.044   4.168  11.661 -2.5611 -0.9521 -0.6676
11648TIP3    H256360   4.007   4.042  11.735 -0.4229  0.0114  2.2112
11649TIP3   OH256361   6.050   0.781  16.978  0.2611 -0.0826 -0.3502
11649TIP3    H156362   6.102   0.821  17.048 -0.1709  1.0346 -0.6476
11649TIP3    H256363   6.094   0.699  16.959  1.0941  0.1826  0.3818
11650TIP3   OH256364   0.679   6.575   5.729 -0.1651  0.3017  0.1121
11650TIP3    H156365   0.637   6.490   5.724 -0.4496  0.4783 -0.7370
11650TIP3    H256366   0.606   6.637   5.735  0.0479  0.4687  1.0193
11651TIP3   OH256367   2.205   5.216  13.587 -0.5164 -0.2337 -0.9240
11651TIP3    H156368   2.223   5.277  13.515 -1.6435 -0.3770 -1.3459
11651TIP3    H256369   2.161   5.142  13.545  0.0476 -0.9524 -0.2801
11652TIP3   OH256370   0.181   4.996  15.894 -0.4949  0.0222 -0.0616
11652TIP3    H156371   0.096   5.032  15.920 -1.0785 -0.6656 -0.9571
11652TIP3    H256372   0.189   5.018  15.801  0.7695  0.9364  0.2358
11653TIP3   OH256373   1.536   6.089   0.621  0.2370  0.0779  0.0154
11653TIP3    H156374   1.501   6.169   0.659 -1.6389  0.3062 -2.0279
11653TIP3    H256375   1.609   6.065   0.678 -1.5978  1.0347  2.9617
11654TIP3   OH256376   6.424   0.356   0.988 -0.0550  0.1698  0.3899
11654TIP3    H156377   6.352   0.416   1.008  0.4444  0.8759  0.1121
11654TIP3    H256378   6.383   0.270   0.983 -0.9717  0.6309 -0.2994
11655TIP3   OH256379   0.103   2.293  16.283 -0.0200  0.2443  0.1105
11655TIP3    H156380   0.091   2.343  16.203 -0.0448 -1.4988 -1.0247
11655TIP3    H256381   0.103   2.358  16.353  0.5302  1.8597 -1.3409
11656TIP3   OH256382   6.653   4.551  15.925 -0.3965 -0.3665  0.4940
11656TIP3    H156383   6.620   4.633  15.890 -0.2978 -0.1684  0.8601
11656TIP3    H256384   6.746   4.550  15.900 -0.5544 -0.6925 -0.1053
11657TIP3   OH256385   3.816   6.715  11.614 -0.0739  0.0968 -0.1752
11657TIP3    H156386   3.836   6.752  11.700 -1.0287  0.0124  0.0897
11657TIP3    H256387   3.823   6.620  11.626 -0.2709  0.0827 -0.1753
11658TIP3   OH256388   0.790   2.877   3.307  0.1528  0.0605 -0.5429
11658TIP3    H156389   0.844   2.808   3.346  0.1396  0.4113  0.1211
11658TIP3    H256390   0.713   2.881   3.363  0.2253  0.7182 -0.4787
11659TIP3   OH256391   4.216   2.007   3.731  0.1404 -0.4198 -0.4933
11659TIP3    H156392   4.166   2.051   3.661  2.5996  3.7607  0.0466
11659TIP3    H256393   4.168   2.029   3.811  0.1565 -0.6935 -0.4098
11660TIP3   OH256394   0.714   4.147  14.031  0.1733  0.1541  0.0379
11660TIP3    H156395   0.695   4.179  13.942 -0.0549  1.2450  0.4641
11660TIP3    H256396   0.781   4.207  14.064  0.8154 -0.7116  0.3342
11661TIP3   OH256397   6.621   3.586  12.925 -0.3930 -0.2159 -0.4857
11661TIP3    H156398   6.679   3.595  13.001  0.4794  3.5644 -1.3869
11661TIP3    H256399   6.544   3.637  12.947 -1.4269 -1.4344 -1.1125
11662TIP3   OH256400   5.613   2.058   1.784  0.3593  0.3234  0.2451
11662TIP3    H156401   5.629   2.120   1.855 -0.9079  0.5124  0.3875
11662TIP3    H256402   5.683   2.075   1.720  1.8438 -0.2120  1.6566
11663TIP3   OH256403   2.693   3.834  16.593  0.5889  0.0922 -0.1422
11663TIP3    H156404   2.707   3.749  16.550  1.9236  1.4732 -2.7102
11663TIP3    H256405   2.758   3.892  16.553 -0.1980  2.3207  1.5986
11664TIP3   OH256406   4.579   4.406  13.707  0.0221  0.9298 -0.4648
11664TIP3    H156407   4.627   4.422  13.788 -1.3804  1.4854  0.2941
11664TIP3    H256408   4.548   4.492  13.680 -0.1686  0.6435 -1.1857
11665TIP3   OH256409   4.112   0.240   1.665  0.0220  0.1903 -0.2339
11665TIP3    H156410   4.054   0.279   1.730 -0.1690 -1.4966  0.6731
11665TIP3    H256411   4.053   0.200   1.601  0.2127  1.4699 -1.2528
11666TIP3   OH256412   6.126   1.415   4.639  0.4206 -0.0919 -0.0857
11666TIP3    H156413   6.089   1.378   4.560 -0.1886  0.7703 -0.2300
11666TIP3    H256414   6.218   1.431   4.619  0.1513  0.6063 -0.8141
11667TIP3   OH256415   2.181   2.407   2.088  0.1768 -0.1682 -0.0740
11667TIP3    H156416   2.259   2.446   2.127  0.1315 -1.5442  1.5078
11667TIP3    H256417   2.210   2.373   2.004  0.5391  1.9153 -0.8658
11668TIP3   OH256418   2.518   2.813   4.349 -0.2402 -0.0190 -0.0045
11668TIP3    H156419   2.577   2.790   4.277  0.2302 -0.7782  0.6033
11668TIP3    H256420   2.574   2.857   4.413 -0.6174  0.4814 -0.0176
11669TIP3   OH256421   3.012   0.232  17.160 -0.2950  0.1621 -0.7056
11669TIP3    H156422   3.017   0.159  17.221 -0.5980 -1.0193 -2.0526
11669TIP3    H256423   2.922   0.231  17.128  0.2746 -0.2952 -2.3873
11670TIP3   OH256424   2.295   1.271  13.265  0.5489  0.3677  0.1338
11670TIP3    H156425   2.354   1.249  13.193 -0.4413  0.7878 -0.8296
11670TIP3    H256426   2.207   1.258  13.229  0.0222 -1.0981  1.8020
11671TIP3   OH256427   3.529   1.386  12.573  0.5530 -0.2710  0.0325
11671TIP3    H156428   3.439   1.418  12.580 -0.2329 -2.6233  3.5217
11671TIP3    H256429   3.582   1.459  12.604 -0.5613 -0.0239  1.4750
11672TIP3   OH256430   6.112   3.328   0.772  0.1119  0.4232  0.5235
11672TIP3    H156431   6.127   3.324   0.678  1.1489 -1.0026  0.7099
11672TIP3    H256432   6.195   3.301   0.811 -0.0943  1.6137  1.8765
11673TIP3   OH256433   3.858   5.749  12.822 -0.3656  0.0039  0.2761
11673TIP3    H156434   3.897   5.669  12.858  1.4557  0.7295  0.0107
11673TIP3    H256435   3.917   5.776  12.752 -1.0139  1.5141  0.2691
11674TIP3   OH256436   2.268   5.137   5.616 -0.3006 -0.0504 -0.2735
11674TIP3    H156437   2.253   5.102   5.704 -1.1079  2.3943  0.6591
11674TIP3    H256438   2.272   5.060   5.560  2.0652 -1.8590  2.1042
11675TIP3   OH256439   6.356   0.191   5.631 -0.6214  0.0472 -0.6536
11675TIP3    H156440   6.388   0.135   5.702  1.3507 -0.6667 -1.9855
11675TIP3    H256441   6.299   0.133   5.580 -1.2817  0.2813 -0.1946
11676TIP3   OH256442   1.695   2.069   1.942 -0.2520  0.0348  0.3786
11676TIP3    H156443   1.613   2.030   1.911  0.4355 -1.6149  0.5442
11676TIP3    H256444   1.752   1.995   1.959  2.5953  1.0706 -3.1991
11677TIP3   OH256445   1.692   0.047  16.926 -0.0978  0.1191  0.8327
11677TIP3    H156446   1.679  -0.037  16.882  0.8331  1.6112 -2.5580
11677TIP3    H256447   1.755   0.028  16.996 -0.1082 -2.0369  0.3190
11678TIP3   OH256448   3.136   1.071  15.410  0.0770 -0.5764 -0.5096
11678TIP3    H156449   3.165   0.997  15.358  0.0128 -2.0181  1.4029
11678TIP3    H256450   3.155   1.046  15.501  2.8149  2.9280  0.1233
11679TIP3   OH256451   2.156   4.172   6.591  0.1070 -0.0974  0.0902
11679TIP3    H156452   2.234   4.198   6.542 -1.0624  0.0103 -1.8388
11679TIP3    H256453   2.180   4.089   6.632  1.7436  0.7319  0.8940
11680TIP3   OH256454   2.250   6.482  16.209 -0.1393 -0.3372 -0.1287
11680TIP3    H156455   2.249   6.546  16.280 -0.1995 -1.1295  0.5995
11680TIP3    H256456   2.338   6.444  16.211  0.1607  0.2765 -1.0749
11681TIP3   OH256457   2.434   2.157  14.487 -0.6104 -0.3364  0.0218
11681TIP3    H156458   2.359   2.170  14.429 -2.2153 -2.0565  1.5785
11681TIP3    H256459   2.469   2.071  14.464 -0.0353 -0.1803  0.2902
11682TIP3   OH256460   4.883   4.718   3.137 -0.1521 -0.2298 -0.0789
11682TIP3    H156461   4.818   4.678   3.079 -1.3799  0.9641  0.4175
11682TIP3    H256462   4.868   4.677   3.222 -1.3970  1.1980  0.4252
11683TIP3   OH256463   0.417   3.426   2.093  0.0650 -0.2423  0.0791
11683TIP3    H156464   0.482   3.404   2.027 -0.0342  1.4816 -0.6387
11683TIP3    H256465   0.340   3.374   2.069  0.0277  0.3775 -1.1878
11684TIP3   OH256466   5.720   3.304  14.421  0.4342  0.9182 -0.5935
11684TIP3    H156467   5.716   3.340  14.332 -1.5332 -0.0610 -0.9689
11684TIP3    H256468   5.648   3.348  14.467 -0.8099 -1.0550 -0.5356
11685TIP3   OH256469   2.803   2.952   2.548  0.0205  0.3489 -0.3580
11685TIP3    H156470   2.730   2.891   2.541 -0.2513  0.6133  0.0627
11685TIP3    H256471   2.856   2.936   2.471 -0.7133  0.4469 -0.8981
11686TIP3   OH256472   6.723   5.717   2.381 -0.4841  0.1755  0.0305
11686TIP3    H156473   6.757   5.630   2.403 -0.6012  0.6414  2.2804
11686TIP3    H256474   6.692   5.752   2.465  2.3733  3.6194 -0.1250
11687TIP3   OH256475   6.115   0.734  11.551  0.2054 -0.3090 -0.0193
11687TIP3    H156476   6.111   0.817  11.503  0.6421  0.3628  1.0714
11687TIP3    H256477   6.158   0.756  11.634 -0.1595 -1.5194  0.5141
11688TIP3   OH256478   1.428   3.103  17.166 -0.4773 -0.2472  0.2049
11688TIP3    H156479   1.375   3.162  17.220 -0.2198  0.4122 -0.2441
11688TIP3    H256480   1.380   3.021  17.166  0.4919 -0.9217  3.0821
11689TIP3   OH256481   4.552   6.264  16.161 -0.1651  0.0753  0.2881
11689TIP3    H156482   4.580   6.190  16.107  0.7280  0.9033 -0.4293
11689TIP3    H256483   4.491   6.312  16.106 -0.1446  0.2998  0.4605
11690TIP3   OH256484   6.007   3.689  12.102  0.1860  0.2089  0.2848
11690TIP3    H156485   6.041   3.608  12.066 -0.1731  0.0731  0.2458
11690TIP3    H256486   5.999   3.673  12.196  0.8438  0.4627  0.3864
11691TIP3   OH256487   4.109   5.203  15.927 -0.6729  0.5878  0.3882
11691TIP3    H156488   4.194   5.226  15.964 -0.6520  0.3247  0.5069
11691TIP3    H256489   4.123   5.202  15.832 -0.2046 -0.7483  0.4505
11692TIP3   OH256490   3.551   0.101   1.293  0.4186  0.0534 -0.4497
11692TIP3    H156491   3.463   0.079   1.263 -0.2918  1.3873  0.5325
11692TIP3    H256492   3.581   0.024   1.341 -1.8332  0.9071  2.6299
11693TIP3   OH256493   5.617   6.002   5.940  0.2019  0.3225  0.0687
11693TIP3    H156494   5.670   6.082   5.941  1.0824 -0.2054 -1.4601
11693TIP3    H256495   5.680   5.930   5.937 -0.5600 -0.3486 -0.7910
11694TIP3   OH256496   2.323   4.961  14.162 -0.0157 -0.9018 -0.1547
11694TIP3    H156497   2.291   4.870  14.163 -2.7862 -0.0333 -1.1652
11694TIP3    H256498   2.291   4.998  14.244 -0.1770 -0.4615 -0.4140
11695TIP3   OH256499   0.757   3.649   6.446 -0.8095 -0.3749 -0.3898
11695TIP3    H156500   0.674   3.676   6.406 -1.3776 -2.4042 -0.6635
11695TIP3    H256501   0.807   3.611   6.374  1.2382  2.4778 -0.6702
11696TIP3   OH256502   6.296   2.823   1.881  0.0785 -0.7666 -0.0225
11696TIP3    H156503   6.235   2.895   1.894 -1.5856 -2.2003  0.5891
11696TIP3    H256504   6.379   2.854   1.916 -0.1104  1.4380 -1.3525
11697TIP3   OH256505   4.629   3.587   0.040  0.0967 -0.3215  0.1069
11697TIP3    H156506   4.534   3.577   0.031  0.1894 -3.1320  1.2690
11697TIP3    H256507   4.641   3.631   0.124 -0.1420  0.7827 -0.4125
11698TIP3   OH256508   3.069   6.751  15.507  0.1587 -0.4134 -0.0423
11698TIP3    H156509   3.006   6.683  15.482  0.4783 -0.6596 -0.1834
11698TIP3    H256510   3.154   6.710  15.496  0.3353 -0.2244  0.5670
11699TIP3   OH256511   3.415   0.376   1.761  0.0482 -0.1584 -0.7764
11699TIP3    H156512   3.412   0.458   1.811 -0.3567 -1.4183  1.3966
11699TIP3    H256513   3.327   0.341   1.767  0.4036 -1.1163 -0.9932
11700TIP3   OH256514   0.559   4.734   1.654 -0.1007 -0.6800 -0.1899
11700TIP3    H156515   0.497   4.746   1.582 -0.3539  2.7737  0.4263
11700TIP3    H256516   0.507   4.701   1.726 -0.7835  0.0180 -0.3492
11701TIP3   OH256517   1.368   5.264  14.403  0.3234 -0.3103 -0.1663
11701TIP3    H156518   1.322   5.326  14.459 -0.4133 -0.9686 -0.0264
11701TIP3    H256519   1.443   5.313  14.369 -0.6688  0.9004 -0.6820
11702TIP3   OH256520   4.641   6.194  13.393  0.0125  0.2018 -0.2400
11702TIP3    H156521   4.636   6.256  13.320 -0.9660  0.3549 -0.0569
11702TIP3    H256522   4.638   6.108  13.352  1.1762  0.2664 -0.4831
11703TIP3   OH256523   3.174   0.887  15.189  0.4378  0.0073  0.0346
11703TIP3    H156524   3.095   0.897  15.137  0.7130  0.4612 -0.3025
11703TIP3    H256525   3.178   0.794  15.210  0.6881 -0.2989 -1.3206
11704TIP3   OH256526   0.684   0.826  12.134  0.4889 -0.3507  0.7415
11704TIP3    H156527   0.708   0.779  12.214 -1.1399 -2.8573 -0.1150
11704TIP3    H256528   0.609   0.880  12.160  0.4889 -0.5113  1.0807
11705TIP3   OH256529   2.301   0.308  12.157 -0.6509 -0.2510  0.7460
11705TIP3    H156530   2.214   0.313  12.195 -0.4995 -1.8233  1.3654
11705TIP3    H256531   2.352   0.374  12.204 -1.3449  0.2623  0.7918
11706TIP3   OH256532   1.219   0.110  13.801  0.4292 -0.2417  0.7276
11706TIP3    H156533   1.147   0.173  13.800 -1.6769 -2.5005 -1.0656
11706TIP3    H256534   1.223   0.080  13.892 -1.0605 -0.2512  0.8064
11707TIP3   OH256535   3.194   4.466  13.139  0.1514 -0.4732  0.1905
11707TIP3    H156536   3.264   4.409  13.173 -1.1286 -2.2967 -0.0719
11707TIP3    H256537   3.198   4.454  13.044 -0.2026 -0.1968  0.1422
11708TIP3   OH256538   2.496   1.209  13.101  0.0939 -0.3125 -0.2314
11708TIP3    H156539   2.561   1.175  13.039  0.8252  1.0424 -0.2437
11708TIP3    H256540   2.547   1.262  13.162 -1.0510  1.3690 -0.6440
11709TIP3   OH256541   3.034   6.263   3.551  0.0401  0.4927 -0.4838
11709TIP3    H156542   3.112   6.250   3.496  0.5822 -1.3953  0.6244
11709TIP3    H256543   3.054   6.341   3.603  0.8703  0.4829 -0.7619
11710TIP3   OH256544   5.525   6.346  13.260  0.1546  0.6968  0.3591
11710TIP3    H156545   5.466   6.272  13.271  1.0930  0.0109  0.9900
11710TIP3    H256546   5.611   6.311  13.285  0.5303  2.1351  1.1466
11711TIP3   OH256547   3.315   3.416   1.888  0.4557  0.0167  0.1610
11711TIP3    H156548   3.244   3.439   1.828  0.8517 -0.5255 -0.5328
11711TIP3    H256549   3.395   3.444   1.843  0.7551 -0.4193  0.4117
11712TIP3   OH256550   3.884   2.127   2.948 -0.2016  0.9123 -0.0832
11712TIP3    H156551   3.916   2.076   3.022 -0.4755  1.6851  0.5918
11712TIP3    H256552   3.961   2.143   2.893 -0.2192 -0.7000 -0.6215
11713TIP3   OH256553   2.510   0.745  14.785 -0.0228  0.0489 -0.0349
11713TIP3    H156554   2.434   0.725  14.840  0.8218 -2.1389  0.4550
11713TIP3    H256555   2.503   0.684  14.711  1.0809  0.0363 -0.1474
11714TIP3   OH256556   3.467   6.618   1.794  0.7108 -0.2081  0.0488
11714TIP3    H156557   3.531   6.547   1.798  0.5140 -0.3495  0.8449
11714TIP3    H256558   3.493   6.678   1.864  2.7929  2.1840 -2.5533
11715TIP3   OH256559   3.307   5.099   4.272 -0.5201  0.1053  0.7208
11715TIP3    H156560   3.302   5.174   4.212 -1.4133 -0.1880  0.4028
11715TIP3    H256561   3.270   5.026   4.222 -0.7518 -0.2794  1.4344
11716TIP3   OH256562   3.802   6.788  16.735  0.2292  0.4920  0.1916
11716TIP3    H156563   3.856   6.866  16.726 -0.2421  0.7559 -0.4213
11716TIP3    H256564   3.724   6.807  16.683 -1.0002  0.6097  1.9681
11717TIP3   OH256565   3.503   3.573  13.044 -0.2079 -0.0494  0.1823
11717TIP3    H156566   3.527   3.503  12.982  1.4186 -0.6102  1.3806
11717TIP3    H256567   3.449   3.529  13.109  3.5210 -1.1424  2.8235
11718TIP3   OH256568   1.336   1.322  17.079 -0.5065  0.3280  0.1821
11718TIP3    H156569   1.382   1.261  17.138  0.9566  0.7114 -0.5034
11718TIP3    H256570   1.310   1.268  17.005  0.3574  0.4294 -0.2022
11719TIP3   OH256571   3.709   4.723  11.950  0.2993 -0.8982 -0.1151
11719TIP3    H156572   3.713   4.682  11.863 -0.0120 -2.6128  0.6402
11719TIP3    H256573   3.716   4.651  12.011 -1.5502  0.0369  1.3050
11720TIP3   OH256574   5.185   3.540   0.247 -0.0988  0.1882 -0.0982
11720TIP3    H156575   5.123   3.560   0.318 -0.1766  0.1642 -0.1595
11720TIP3    H256576   5.242   3.473   0.284 -1.0327 -0.8748 -0.5403
11721TIP3   OH256577   2.003   6.428  10.938 -0.2799  0.0742  0.7040
11721TIP3    H156578   1.927   6.485  10.928 -0.1552  0.0298 -0.6198
11721TIP3    H256579   2.077   6.488  10.950 -0.0227  0.2766 -1.5001
11722TIP3   OH256580   6.674   1.190  14.612  0.0145  0.2471 -0.0401
11722TIP3    H156581   6.744   1.246  14.647  1.8218 -0.3405 -2.4363
11722TIP3    H256582   6.669   1.117  14.673  0.0324  1.3116  1.2769
11723TIP3   OH256583   3.768   0.955  15.284  0.5140  0.1605 -0.2055
11723TIP3    H156584   3.698   0.999  15.236  0.1400 -0.1528  0.0449
11723TIP3    H256585   3.845   1.010  15.271  1.0905 -1.1559 -3.2707
11724TIP3   OH256586   1.164   6.268  13.005  0.5093 -0.1104 -0.6424
11724TIP3    H156587   1.162   6.284  12.910  2.9303  0.2473 -0.6977
11724TIP3    H256588   1.217   6.189  13.014 -0.7216 -0.8614  0.3979
11725TIP3   OH256589   6.513   2.739   1.650 -0.0984 -0.2874 -0.0527
11725TIP3    H156590   6.458   2.802   1.603 -0.3783 -0.4044  0.1123
11725TIP3    H256591   6.603   2.763   1.627  0.1091  2.8041  3.1378
11726TIP3   OH256592   5.867   1.831   4.952 -0.4095 -0.4725  0.1546
11726TIP3    H156593   5.933   1.768   4.923  0.1685 -0.0630  0.5421
11726TIP3    H256594   5.858   1.814   5.046  0.7265  0.8580  0.5492
11727TIP3   OH256595   1.535   6.085  13.546 -0.1256 -0.0692 -0.4047
11727TIP3    H156596   1.628   6.079  13.568 -0.2350 -1.5473 -0.2205
11727TIP3    H256597   1.494   6.016  13.598 -1.5757  1.4840  0.6370
11728TIP3   OH256598   5.799   1.108  16.724  0.4684  0.2772  0.7077
11728TIP3    H156599   5.727   1.133  16.782  0.5422  0.2673  0.8027
11728TIP3    H256600   5.807   1.013  16.736  1.3231  0.4545  1.6394
11729TIP3   OH256601   3.475   2.752   5.856 -0.4501  0.3220  0.6819
11729TIP3    H156602   3.445   2.814   5.922  1.4795  1.4801  0.5517
11729TIP3    H256603   3.568   2.772   5.845 -0.0398 -1.8176 -0.2470
11730TIP3   OH256604   5.014   3.756  12.048  0.3098  0.0621 -0.2275
11730TIP3    H156605   5.052   3.814  12.114  2.9288 -1.4992 -0.2277
11730TIP3    H256606   5.044   3.793  11.965  1.1233 -0.6641 -0.2714
11731TIP3   OH256607   2.778   5.068   4.283  0.0783  0.3796  0.0120
11731TIP3    H156608   2.716   5.104   4.221  0.4313  0.7082 -0.1589
11731TIP3    H256609   2.777   5.129   4.357 -0.0805  0.1816  0.1757
11732TIP3   OH256610   2.815   0.456  15.058 -0.1192  0.4568 -0.5133
11732TIP3    H156611   2.832   0.376  15.108 -2.4729  0.5523  0.5623
11732TIP3    H256612   2.838   0.433  14.968  1.8791 -0.5036  0.2007
11733TIP3   OH256613   5.077   6.505   2.392 -0.0310  0.1310  0.4869
11733TIP3    H156614   4.996   6.548   2.420 -0.6050 -0.4953 -0.1548
11733TIP3    H256615   5.128   6.495   2.472 -2.4089 -3.3052  1.7839
11734TIP3   OH256616   4.682   0.547  13.417  0.1374 -0.1550 -0.1725
11734TIP3    H156617   4.720   0.632  13.395  0.7140 -0.8717 -2.1724
11734TIP3    H256618   4.588   0.559  13.406  0.0838  0.5416  0.8504
11735TIP3   OH256619   1.870   4.681  12.317  0.4773 -0.2603  0.1983
11735TIP3    H156620   1.781   4.662  12.346  0.5827 -0.0796  0.6461
11735TIP3    H256621   1.922   4.684  12.397  0.7560  0.3197  0.0033
11736TIP3   OH256622   3.028   1.763   5.559 -1.1833 -0.0069 -0.1103
11736TIP3    H156623   3.096   1.735   5.619 -1.1170 -1.3318 -0.7652
11736TIP3    H256624   2.973   1.685   5.546 -2.7063  0.9585  0.2321
11737TIP3   OH256625   3.282   3.811  14.112 -0.3184 -0.0892 -0.6052
11737TIP3    H156626   3.327   3.841  14.191 -0.4474  1.2395 -1.0117
11737TIP3    H256627   3.274   3.716  14.124 -2.1748  0.2717  1.9344
11738TIP3   OH256628   3.069   5.812   2.509  0.2922 -0.6132 -0.0095
11738TIP3    H156629   3.105   5.806   2.421  1.1870 -0.2310  0.3149
11738TIP3    H256630   2.990   5.865   2.499 -0.1410 -1.3715 -0.7214
11739TIP3   OH256631   0.428   2.725  16.229  0.3000 -0.3604  0.0364
11739TIP3    H156632   0.514   2.686  16.247  0.8459  1.3250  1.4107
11739TIP3    H256633   0.415   2.787  16.301 -2.0725 -0.5343 -0.1693
11740TIP3   OH256634   0.868   0.593   5.173 -0.7839  0.2707 -0.5654
11740TIP3    H156635   0.830   0.644   5.102 -1.5146 -0.6922 -0.8873
11740TIP3    H256636   0.937   0.649   5.209 -0.9825  1.1162 -1.4663
11741TIP3   OH256637   6.459   5.146  15.887  0.2304 -0.2051  0.6671
11741TIP3    H156638   6.419   5.193  15.961 -0.0088  0.0920  0.3527
11741TIP3    H256639   6.551   5.172  15.889  0.4020 -0.8363  1.3522
11742TIP3   OH256640   0.323   2.212   5.145  0.1946 -0.1254  0.0894
11742TIP3    H156641   0.255   2.244   5.086  0.9242  0.1516 -0.6186
11742TIP3    H256642   0.399   2.197   5.088  0.9516  0.2702  0.9671
11743TIP3   OH256643   6.411   5.170  15.442 -0.4392 -0.3024 -0.1883
11743TIP3    H156644   6.340   5.234  15.445  0.8766  1.1929  0.5458
11743TIP3    H256645   6.465   5.190  15.519  0.5387 -1.6927 -0.4689
11744TIP3   OH256646   6.018   6.081   6.914  0.0619  0.2250 -0.7478
11744TIP3    H156647   5.972   6.161   6.890  0.5948  0.7845  0.0631
11744TIP3    H256648   6.001   6.021   6.841 -1.1803  0.7224 -0.8943
11745TIP3   OH256649   1.569   0.723   3.559 -0.2168  0.3621 -0.8041
11745TIP3    H156650   1.541   0.725   3.650  0.0967  2.2014 -0.7106
11745TIP3    H256651   1.493   0.690   3.511 -0.3275 -0.8006  0.1051
11746TIP3   OH256652   3.226   4.565   0.818 -0.2155  0.0153  0.1598
11746TIP3    H156653   3.262   4.479   0.837  0.5618  0.1673 -0.5628
11746TIP3    H256654   3.139   4.564   0.857  0.8887 -0.0169  2.8038
11747TIP3   OH256655   3.661   6.313   6.075  0.0955  0.3317 -0.2206
11747TIP3    H156656   3.743   6.317   6.125  0.2740 -0.2781 -0.4533
11747TIP3    H256657   3.603   6.259   6.129 -0.0112  0.4058 -0.2614
11748TIP3   OH256658   0.162   2.062   3.961  0.3040  0.2005  0.0935
11748TIP3    H156659   0.254   2.088   3.970  0.0668  1.4434 -0.7232
11748TIP3    H256660   0.166   1.972   3.930  1.3371  0.8954 -2.0201
11749TIP3   OH256661   5.820   4.845   0.591 -0.0072 -0.5014 -0.3196
11749TIP3    H156662   5.729   4.817   0.577  0.5364 -1.6412 -1.8422
11749TIP3    H256663   5.824   4.865   0.685 -1.7241 -0.7870 -0.1405
11750TIP3   OH256664   3.463   5.804  13.057  0.0947  0.4777 -0.7723
11750TIP3    H156665   3.538   5.821  13.000 -0.0488  1.8401 -0.5738
11750TIP3    H256666   3.478   5.858  13.134  1.2193 -2.6721  1.4051
11751TIP3   OH256667   3.101   6.141   4.707 -0.4232  0.5522  0.6557
11751TIP3    H156668   3.082   6.208   4.642  0.0490  0.3312  0.2859
11751TIP3    H256669   3.029   6.147   4.770 -2.7578 -1.4157 -1.6071
11752TIP3   OH256670   6.759   4.518  14.462  0.1131  0.2908  0.4453
11752TIP3    H156671   6.824   4.585  14.442 -1.6561  1.6199 -1.3174
11752TIP3    H256672   6.689   4.533  14.398 -1.4877 -1.6851  1.6078
11753TIP3   OH256673   6.371   5.740   3.840 -0.2359 -0.1520 -0.0561
11753TIP3    H156674   6.386   5.674   3.772 -0.6389 -0.1253 -0.1713
11753TIP3    H256675   6.278   5.733   3.861 -0.6339  1.3286 -1.0911
11754TIP3   OH256676   2.917   4.423  16.008 -0.2820 -0.1572 -0.4345
11754TIP3    H156677   2.962   4.340  15.990 -0.1066  0.1473 -1.4433
11754TIP3    H256678   2.830   4.411  15.970 -0.7786 -0.4167  0.7368
11755TIP3   OH256679   2.548   4.770   4.839  0.3866  0.6961  0.3103
11755TIP3    H156680   2.476   4.768   4.901 -0.0270 -1.7503 -0.1284
11755TIP3    H256681   2.625   4.744   4.890  0.0498 -1.2998 -0.1242
11756TIP3   OH256682   4.598   2.405  16.117 -0.3891 -0.2106 -0.0785
11756TIP3    H156683   4.591   2.495  16.150 -0.3402  0.0782 -0.8501
11756TIP3    H256684   4.657   2.411  16.042 -0.6670 -0.8254 -0.3528
11757TIP3   OH256685   3.973   0.260   2.836  0.9443 -0.2391 -0.4876
11757TIP3    H156686   3.917   0.317   2.888  1.0741 -0.0854 -0.5145
11757TIP3    H256687   4.004   0.315   2.765  2.1254  0.0442  0.2111
11758TIP3   OH256688   0.869   6.566   0.035 -0.1827  0.1510  0.4615
11758TIP3    H156689   0.947   6.581   0.088 -1.3184  0.1638  2.2190
11758TIP3    H256690   0.796   6.571   0.097 -1.4956 -1.2656 -0.8696
11759TIP3   OH256691   1.266   4.419   1.269  0.3710 -0.2534  0.0905
11759TIP3    H156692   1.256   4.512   1.250 -0.4437 -0.2340  0.5610
11759TIP3    H256693   1.237   4.410   1.360  1.3707 -0.8106  0.3653
11760TIP3   OH256694   4.431   4.235  16.947  0.4612  0.4294  0.4339
11760TIP3    H156695   4.386   4.296  16.890  0.3537  1.5519  1.6584
11760TIP3    H256696   4.362   4.184  16.989  0.4596  0.6114  0.6521
11761TIP3   OH256697   5.400   6.062  15.891  0.0686  0.0267  0.0471
11761TIP3    H156698   5.418   6.065  15.985 -1.0524  0.7615  0.2604
11761TIP3    H256699   5.397   5.969  15.870  3.6028 -0.2287  0.0277
11762TIP3   OH256700   2.788   5.770  16.192  0.0191 -0.0707 -0.3508
11762TIP3    H156701   2.700   5.778  16.228  0.3673 -0.4212  0.6135
11762TIP3    H256702   2.804   5.675  16.189  0.1874 -0.0239 -0.9570
11763TIP3   OH256703   4.049   0.812  14.895 -0.4108  0.1780  0.4813
11763TIP3    H156704   4.039   0.820  14.990 -1.1929  1.5013  0.3084
11763TIP3    H256705   3.974   0.759  14.867 -0.9288  0.9081  0.4599
11764TIP3   OH256706   4.940   5.382   2.827 -0.1268 -0.5534 -0.1769
11764TIP3    H156707   5.010   5.338   2.779  0.2010 -0.0343 -0.1810
11764TIP3    H256708   4.942   5.343   2.914  0.3899 -0.3063 -0.0752
11765TIP3   OH256709   3.243   0.230   2.021  0.3832  0.8982 -0.5467
11765TIP3    H156710   3.201   0.237   1.935  0.2646 -0.1666 -0.5903
11765TIP3    H256711   3.204   0.300   2.073 -0.4319  0.7876 -0.9970
11766TIP3   OH256712   4.121   2.154   2.788 -0.0089 -0.0725 -0.0906
11766TIP3    H156713   4.158   2.222   2.732  0.5943  1.0946  1.6259
11766TIP3    H256714   4.182   2.147   2.861 -0.9819 -1.2107  0.6496
11767TIP3   OH256715   2.532   1.848  15.544  0.5889 -0.8161  0.0730
11767TIP3    H156716   2.451   1.884  15.579  0.3327  0.6576 -1.9038
11767TIP3    H256717   2.529   1.755  15.570 -1.2191 -0.5830  0.8915
11768TIP3   OH256718   0.548   2.237  11.781 -0.0185 -0.1734  0.6048
11768TIP3    H156719   0.577   2.182  11.853 -1.9242 -0.0505  1.5068
11768TIP3    H256720   0.598   2.205  11.705 -0.9960 -3.1264  1.0898
11769TIP3   OH256721   1.817   0.304   3.612  0.4913  0.1971  0.0703
11769TIP3    H156722   1.844   0.319   3.521 -0.1898  1.9693  0.1251
11769TIP3    H256723   1.724   0.281   3.606  0.7135 -0.7861  0.2552
11770TIP3   OH256724   5.834   1.125   2.973  0.2290  0.2381  0.0938
11770TIP3    H156725   5.800   1.061   3.036  0.5906  0.3051  0.3579
11770TIP3    H256726   5.839   1.207   3.023  0.7145  0.2452  0.0363
11771TIP3   OH256727   6.720   0.056   1.469  0.3175 -0.5656 -0.1368
11771TIP3    H156728   6.736   0.144   1.503 -1.3521 -0.8994  1.6501
11771TIP3    H256729   6.784   0.001   1.514  0.7589 -0.4406 -0.5883
11772TIP3   OH256730   3.435   2.243   4.785 -0.1285  0.1665  0.2117
11772TIP3    H156731   3.364   2.203   4.735  0.2426 -1.1789  0.7393
11772TIP3    H256732   3.489   2.170   4.814  0.8456  1.0847  0.7954
11773TIP3   OH256733   5.797   6.718  13.259 -0.1640  0.8713  0.0466
11773TIP3    H156734   5.719   6.663  13.260  0.6562 -0.3552  0.8074
11773TIP3    H256735   5.772   6.797  13.307 -0.2428 -0.6333  2.7072
11774TIP3   OH256736   1.831   4.089  15.743 -0.1662  0.3031 -0.0504
11774TIP3    H156737   1.865   4.017  15.690  0.8620  1.7610 -1.4833
11774TIP3    H256738   1.744   4.062  15.769 -0.1406 -1.0729 -1.3197
11775TIP3   OH256739   5.613   5.836  17.139 -0.6062 -0.8637  0.0146
11775TIP3    H156740   5.629   5.823  17.045 -0.5706  1.1173 -0.2907
11775TIP3    H256741   5.519   5.822  17.150 -0.9389  0.6853 -0.6778
11776TIP3   OH256742   1.310   0.170   2.600  0.0224 -0.4887 -0.0997
11776TIP3    H156743   1.309   0.244   2.539  2.3181 -1.9434 -2.0739
11776TIP3    H256744   1.317   0.093   2.544 -0.3715 -2.1035  1.9584
11777TIP3   OH256745   1.743   2.165  11.239 -0.2347 -0.2840 -0.1550
11777TIP3    H156746   1.761   2.094  11.178 -1.2141  0.0154 -0.8074
11777TIP3    H256747   1.829   2.204  11.256  0.2523 -1.3342 -0.1239
11778TIP3   OH256748   5.295   4.673  15.351 -0.3673  0.6165  0.9188
11778TIP3    H156749   5.317   4.760  15.321  0.0378  0.3231  0.3624
11778TIP3    H256750   5.329   4.614  15.284 -0.7070  0.0339  1.2445
11779TIP3   OH256751   0.141   2.510   2.305 -0.3588 -0.0459  0.5067
11779TIP3    H156752   0.197   2.435   2.284 -0.3114  0.1705 -0.1814
11779TIP3    H256753   0.175   2.581   2.250 -1.8740 -0.1600 -0.6376
11780TIP3   OH256754   4.190   1.137   6.048  0.4972 -0.3870 -0.5060
11780TIP3    H156755   4.152   1.202   6.107 -1.3864 -1.0649 -0.8813
11780TIP3    H256756   4.230   1.072   6.106 -0.0382 -0.2926 -0.0194
11781TIP3   OH256757   2.685   6.214  15.121  0.0997 -0.0597  0.1163
11781TIP3    H156758   2.738   6.222  15.200  0.1313  1.3616 -0.0340
11781TIP3    H256759   2.739   6.161  15.062  1.6933  1.8741 -0.2684
11782TIP3   OH256760   4.574   5.016  11.489  0.7025  0.4704  0.2184
11782TIP3    H156761   4.577   5.056  11.402  1.7006  0.7779  0.3787
11782TIP3    H256762   4.486   5.034  11.520  0.0068 -0.4944 -1.1101
11783TIP3   OH256763   3.206   5.576  17.071  0.2474  0.0506  0.2019
11783TIP3    H156764   3.222   5.642  17.139 -0.8045  2.4174 -1.7400
11783TIP3    H256765   3.232   5.618  16.989 -0.6079 -1.9121 -1.1610
11784TIP3   OH256766   3.141   4.862   5.042  0.3408  0.5740  0.2768
11784TIP3    H156767   3.189   4.824   4.969 -0.4175  0.4183 -0.1475
11784TIP3    H256768   3.188   4.943   5.062  0.3473  0.8010 -0.6172
11785TIP3   OH256769   0.959   0.643  15.015 -0.6247 -0.2868 -0.3061
11785TIP3    H156770   0.868   0.637  14.985 -0.0236  0.3680 -2.4242
11785TIP3    H256771   0.961   0.721  15.071 -1.4552 -0.5899  0.1595
11786TIP3   OH256772   1.243   5.995   4.612 -0.0697 -0.4338  0.1302
11786TIP3    H156773   1.323   5.971   4.659  1.7631  1.1733 -1.9543
11786TIP3    H256774   1.222   5.918   4.559  0.2935 -0.7674  0.4660
11787TIP3   OH256775   4.001   3.241  12.899 -0.0874  0.3332 -0.1533
11787TIP3    H156776   4.026   3.155  12.866 -2.2096  0.0098 -1.0241
11787TIP3    H256777   3.950   3.223  12.978 -0.4574  0.7866 -0.2837
11788TIP3   OH256778   6.094   6.366   5.280 -0.0489 -0.2997  0.1317
11788TIP3    H156779   6.146   6.330   5.208  1.8130  0.4524  1.0345
11788TIP3    H256780   6.003   6.345   5.256  0.7333 -4.7277  0.1106
11789TIP3   OH256781   4.789   0.882   0.052  0.5685 -1.2090  0.0370
11789TIP3    H156782   4.721   0.821   0.024 -0.1849 -0.2226 -0.3842
11789TIP3    H256783   4.819   0.923  -0.030 -2.0168  2.0877  0.5058
11790TIP3   OH256784   4.501   2.689  16.016  0.1826  0.5668 -0.4006
11790TIP3    H156785   4.517   2.668  16.108 -0.9154  0.6320 -0.1808
11790TIP3    H256786   4.444   2.618  15.985 -0.9377  1.4892 -0.5231
11791TIP3   OH256787   0.808   0.868   1.742  0.1196 -0.2705 -0.3120
11791TIP3    H156788   0.850   0.897   1.823  0.5912 -1.2713 -0.1861
11791TIP3    H256789   0.815   0.943   1.683  1.5577 -0.1952 -0.0857
11792TIP3   OH256790   4.406   3.825  10.793 -0.9905  0.1059  0.1367
11792TIP3    H156791   4.496   3.806  10.820 -1.0238  0.7754  0.7331
11792TIP3    H256792   4.398   3.920  10.803 -2.2641 -0.1342  1.6707
11793TIP3   OH256793   0.682   2.299  12.063 -0.6008  0.3710 -0.0218
11793TIP3    H156794   0.638   2.362  12.006 -1.1490 -1.5421 -1.8420
11793TIP3    H256795   0.656   2.325  12.151 -2.1367  1.7036 -0.8042
11794TIP3   OH256796   6.303   4.511   2.510  0.1721  0.0895  0.1949
11794TIP3    H156797   6.254   4.474   2.436  0.5595 -2.9342  1.2911
11794TIP3    H256798   6.236   4.529   2.576  0.2056 -2.0836  0.9165
11795TIP3   OH256799   0.072   5.537   5.480 -0.3883  0.1555 -0.3312
11795TIP3    H156800   0.131   5.543   5.556 -1.5919 -0.3142  0.6790
11795TIP3    H256801  -0.010   5.502   5.516 -0.8043 -0.6389 -1.9726
11796TIP3   OH256802   4.835   3.873   0.893  0.0752  0.2792  0.4123
11796TIP3    H156803   4.763   3.879   0.956  0.3620  1.2900  0.6658
11796TIP3    H256804   4.905   3.925   0.933  1.1524 -1.1307  0.4413
11797TIP3   OH256805   6.478   6.449  16.271 -0.4895  1.0645 -0.0793
11797TIP3    H156806   6.405   6.432  16.331 -0.1686 -2.2003 -0.4044
11797TIP3    H256807   6.545   6.386  16.296  0.0487  0.2029 -3.1847
11798TIP3   OH256808   6.674   6.653   1.261  0.7785  0.0822 -0.5991
11798TIP3    H156809   6.769   6.642   1.273  0.9782  2.1567  0.1837
11798TIP3    H256810   6.666   6.727   1.201 -0.3344  0.3922 -0.1014
11799TIP3   OH256811   2.726   4.040  13.691  0.2908 -0.4897 -0.3151
11799TIP3    H156812   2.645   4.000  13.660  0.4294 -0.8253 -0.2499
11799TIP3    H256813   2.720   4.035  13.787  0.6901 -1.1343 -0.3180
11800TIP3   OH256814   5.750   3.675  14.715 -0.0079 -0.4091 -0.1037
11800TIP3    H156815   5.720   3.617  14.645  0.6683 -2.4298  1.1867
11800TIP3    H256816   5.686   3.746  14.717 -1.7984 -1.9178 -0.7401
11801TIP3   OH256817   5.803   2.135   1.574 -0.1720 -0.0265 -0.4697
11801TIP3    H156818   5.779   2.172   1.489  0.7334  0.9134 -0.3470
11801TIP3    H256819   5.816   2.212   1.630 -1.7267 -0.6441  0.8114
11802TIP3   OH256820   4.786   0.497   1.481 -0.3289 -0.0109  0.1776
11802TIP3    H156821   4.760   0.532   1.396 -0.7626  0.9331  0.6912
11802TIP3    H256822   4.870   0.540   1.500 -0.2947 -0.1236  0.2838
11803TIP3   OH256823   2.719   1.904   5.794  0.7496  0.6236  0.3147
11803TIP3    H156824   2.653   1.974   5.800  2.5577  2.3329  1.1895
11803TIP3    H256825   2.724   1.886   5.700  0.7663  2.2201 -0.0309
11804TIP3   OH256826   1.038   1.779  11.598 -0.1307  0.4215 -0.1630
11804TIP3    H156827   1.028   1.697  11.550 -4.4376  1.1496 -0.9458
11804TIP3    H256828   1.131   1.802  11.588  0.3507 -2.2188 -3.4702
11805TIP3   OH256829   3.947   6.493   5.874  0.5547 -0.0198  0.4331
11805TIP3    H156830   3.903   6.550   5.937  1.3160  1.7530 -0.5789
11805TIP3    H256831   3.893   6.414   5.871 -1.2422  1.1496  0.9496
11806TIP3   OH256832   0.292   6.333  15.033 -0.7337  0.3102 -0.1329
11806TIP3    H156833   0.367   6.342  14.975 -0.3880 -0.3862  0.1878
11806TIP3    H256834   0.238   6.265  14.992 -1.7824  1.6048 -0.9613
11807TIP3   OH256835   1.661   1.615   5.795  0.5473  0.0225  0.1143
11807TIP3    H156836   1.718   1.613   5.718  0.5901  0.2035  0.1417
11807TIP3    H256837   1.626   1.704   5.797 -0.1106 -0.2250 -0.1760
11808TIP3   OH256838   3.646   6.560  10.820  0.6115 -0.1303 -0.0802
11808TIP3    H156839   3.568   6.603  10.855 -0.1037 -1.6001  0.2132
11808TIP3    H256840   3.635   6.565  10.725  1.1342  1.3400 -0.0880
11809TIP3   OH256841   6.505   1.424  14.683 -0.4702 -0.2453  0.5471
11809TIP3    H156842   6.526   1.363  14.613  0.4228  1.3705 -0.6772
11809TIP3    H256843   6.562   1.399  14.755  2.4394  1.0972 -1.0864
11810TIP3   OH256844   4.209   3.641   5.953 -0.5446 -0.1433 -0.7379
11810TIP3    H156845   4.253   3.711   6.000  0.7164 -0.5514 -1.2360
11810TIP3    H256846   4.225   3.563   6.006 -2.0175 -0.0731 -0.1368
11811TIP3   OH256847   4.929   2.575   2.844 -0.6392  0.0019  0.0360
11811TIP3    H156848   4.918   2.522   2.923  0.8262  1.4039  1.2374
11811TIP3    H256849   5.021   2.565   2.820 -0.7699  0.5864 -0.7772
11812TIP3   OH256850   4.914   2.307   1.242  0.0264 -0.1822  0.2270
11812TIP3    H156851   5.009   2.317   1.239 -0.0277  0.3127 -2.5468
11812TIP3    H256852   4.889   2.345   1.326  2.1996  0.4535  0.6572
11813TIP3   OH256853   2.344   3.842  12.554  0.4989  0.2962  0.3832
11813TIP3    H156854   2.364   3.898  12.479  2.0365 -0.0883  0.4720
11813TIP3    H256855   2.386   3.759  12.534 -0.4857 -0.3573  0.9380
11814TIP3   OH256856   2.760   3.216  14.277 -0.3284 -0.3143 -0.1799
11814TIP3    H156857   2.797   3.142  14.230  0.9752  0.9640 -1.2768
11814TIP3    H256858   2.677   3.234  14.233  0.0391 -0.2336 -0.8480
11815TIP3   OH256859   4.138   5.285   0.730 -0.3472 -0.2166  0.6162
11815TIP3    H156860   4.129   5.202   0.776 -0.1421 -0.9458 -0.6159
11815TIP3    H256861   4.205   5.268   0.663 -0.8201  0.7273 -0.1236
11816TIP3   OH256862   4.946   3.484  16.614 -0.4316  0.2619  0.2562
11816TIP3    H156863   4.931   3.542  16.539 -1.5349  0.4431  0.6019
11816TIP3    H256864   4.900   3.526  16.686  1.3631  0.5486  1.2803
11817TIP3   OH256865   4.453   2.734   0.352 -0.0823  0.4458  0.0210
11817TIP3    H156866   4.521   2.722   0.286 -0.9041 -0.7492 -0.6571
11817TIP3    H256867   4.413   2.647   0.360  1.1735  0.0422  3.4576
11818TIP3   OH256868   1.815   3.383   3.282  0.1496 -0.1272 -0.2103
11818TIP3    H156869   1.747   3.367   3.347  1.3545 -0.9524  0.8972
11818TIP3    H256870   1.820   3.302   3.232  2.4276 -1.3454  1.7832
11819TIP3   OH256871   2.046   1.372   0.849 -0.0280  0.1921  0.2949
11819TIP3    H156872   1.955   1.391   0.827 -0.1261 -0.0302  0.5020
11819TIP3    H256873   2.048   1.278   0.863 -0.1147  0.3978  1.8779
11820TIP3   OH256874   0.553   4.684   4.972 -0.5029  0.1432  0.1067
11820TIP3    H156875   0.515   4.638   4.897 -1.9259 -1.0830  1.5075
11820TIP3    H256876   0.490   4.754   4.991 -0.3660  0.1856  0.4060
11821TIP3   OH256877   2.309   3.717   1.875  0.1135  0.4141  0.1184
11821TIP3    H156878   2.241   3.714   1.807 -0.2179  0.8665  0.4268
11821TIP3    H256879   2.333   3.809   1.881 -0.2891  0.4638  1.0352
11822TIP3   OH256880   3.399   4.353   3.352 -0.4872  0.2024  0.4066
11822TIP3    H156881   3.353   4.410   3.291 -0.2979 -1.6525 -1.6139
11822TIP3    H256882   3.432   4.281   3.297  0.8780 -0.8761  2.5026
11823TIP3   OH256883   3.136   3.164   4.846  0.0369 -0.4071  0.4473
11823TIP3    H156884   3.221   3.133   4.878 -0.1049  0.7624  2.0872
11823TIP3    H256885   3.158   3.229   4.779  0.4069 -1.0438 -0.0505
11824TIP3   OH256886   3.756   6.038   1.097  0.2684  0.0408 -0.1527
11824TIP3    H156887   3.724   6.102   1.160 -0.9783 -2.2536  1.7192
11824TIP3    H256888   3.701   6.049   1.020 -1.2570 -0.0389  0.8936
11825TIP3   OH256889   1.980   4.596  15.449 -0.1222 -0.4546 -0.8682
11825TIP3    H156890   2.061   4.647  15.448 -0.0870 -0.5022 -0.5463
11825TIP3    H256891   2.009   4.505  15.448 -0.0677 -0.5517  1.8211
11826TIP3   OH256892   6.740   3.584   4.313 -0.2106 -0.2132 -0.0409
11826TIP3    H156893   6.754   3.656   4.375  1.4722 -0.7669  0.2656
11826TIP3    H256894   6.653   3.550   4.335 -0.1598  0.3967  1.1720
11827TIP3   OH256895   3.915   5.232   3.400 -0.4884 -0.8583  0.6036
11827TIP3    H156896   3.982   5.224   3.332  1.0444 -0.0491  1.9482
11827TIP3    H256897   3.881   5.321   3.389  1.8607  0.4094  2.6348
11828TIP3   OH256898   5.779   2.287   5.082  0.0593 -0.1700  0.1109
11828TIP3    H156899   5.777   2.303   4.988 -0.5806 -3.0535 -0.4660
11828TIP3    H256900   5.839   2.213   5.092  0.1982  0.1556  1.9993
11829TIP3   OH256901   5.617   5.103   4.878  0.2641  0.0148 -0.2815
11829TIP3    H156902   5.687   5.056   4.834  1.3403 -0.0182  1.3882
11829TIP3    H256903   5.552   5.119   4.810  1.5725 -0.5697 -1.7129
11830TIP3   OH256904   3.332   4.135   2.015 -0.2304  0.0148 -0.1874
11830TIP3    H156905   3.281   4.061   1.982  0.1621 -0.1588 -0.4109
11830TIP3    H256906   3.348   4.115   2.107 -2.2138  0.9856  0.4262
11831TIP3   OH256907   1.850   5.133  14.502  0.3650  0.4984  0.3925
11831TIP3    H156908   1.816   5.187  14.573 -1.6297 -1.2646  0.8698
11831TIP3    H256909   1.814   5.174  14.423 -0.8666  0.1059  0.7249
11832TIP3   OH256910   3.098   1.787   4.919 -0.4849  0.7535 -0.1361
11832TIP3    H156911   3.093   1.747   5.006  0.6837  1.2708  0.1868
11832TIP3    H256912   3.187   1.822   4.914  0.2162 -1.1481 -2.3662
11833TIP3   OH256913   4.651   0.981  16.132 -0.3152 -0.1177  0.2989
11833TIP3    H156914   4.577   0.971  16.192 -0.9489 -0.4334 -0.5149
11833TIP3    H256915   4.705   0.903  16.149 -1.1193 -0.8466 -0.3773
11834TIP3   OH256916   4.193   3.646  14.441 -0.0218 -0.2157  0.2720
11834TIP3    H156917   4.121   3.601  14.397 -0.4810  0.1526  0.6484
11834TIP3    H256918   4.267   3.636  14.381  0.0756 -2.0564  0.6300
11835TIP3   OH256919   0.545   1.190  13.614  0.1634 -0.0968  0.5605
11835TIP3    H156920   0.627   1.151  13.582 -0.8925 -0.0542 -2.5827
11835TIP3    H256921   0.476   1.136  13.574 -1.3360  1.3330  1.0995
11836TIP3   OH256922   6.325   1.492  16.115 -0.1963  0.1595  0.2592
11836TIP3    H156923   6.394   1.520  16.055 -1.4893  1.3036 -0.7598
11836TIP3    H256924   6.356   1.520  16.201  0.6719  0.5222 -0.1487
11837TIP3   OH256925   1.778   5.793  14.957 -0.5155  0.1210  0.4663
11837TIP3    H156926   1.828   5.711  14.951 -0.0437  0.4630 -0.5304
11837TIP3    H256927   1.831   5.856  14.908 -1.5563  0.6864  0.0491
11838TIP3   OH256928   3.696   1.605   1.392  0.1699  0.4233 -0.5215
11838TIP3    H156929   3.678   1.611   1.298 -0.8365  0.1623 -0.3587
11838TIP3    H256930   3.615   1.569   1.430  1.6522 -2.6469  0.0255
11839TIP3   OH256931   3.765   2.498  11.225 -0.3585 -0.2249 -0.6297
11839TIP3    H156932   3.732   2.580  11.261 -0.8044 -0.6472 -0.0672
11839TIP3    H256933   3.835   2.471  11.283 -0.2503 -0.2707 -0.7789
11840TIP3   OH256934   3.919   2.495   2.997  0.4387  0.8736  0.4799
11840TIP3    H156935   3.852   2.563   3.002 -1.3834 -0.4306 -2.7731
11840TIP3    H256936   3.872   2.414   3.014  0.9401 -0.1223 -2.3004
11841TIP3   OH256937   5.643   6.403   0.752 -0.2893 -0.2676  0.6513
11841TIP3    H156938   5.717   6.346   0.731 -0.8923 -1.1726  0.9170
11841TIP3    H256939   5.595   6.411   0.670  0.7731  1.3675  0.1522
11842TIP3   OH256940   4.725   0.484  17.025 -0.4696  0.1102  1.1510
11842TIP3    H156941   4.704   0.570  17.063  0.2499  0.3631  1.0002
11842TIP3    H256942   4.766   0.435  17.096 -0.7174 -0.0463  1.1878
11843TIP3   OH256943   2.161   1.050   3.724  0.0079  0.2831 -0.1120
11843TIP3    H156944   2.249   1.059   3.761 -0.2577 -0.1613  0.6341
11843TIP3    H256945   2.147   0.956   3.716 -0.5035  0.3419  0.0298
11844TIP3   OH256946   5.946   5.361  17.197 -0.5842 -0.0427 -0.0415
11844TIP3    H156947   5.929   5.270  17.220  0.2802 -0.2191 -0.0653
11844TIP3    H256948   6.040   5.373  17.212 -0.8683  1.1391  0.9692
11845TIP3   OH256949   4.728   2.112   1.245 -0.3813 -0.0649  0.0598
11845TIP3    H156950   4.748   2.020   1.263  0.7078 -0.5643 -3.0166
11845TIP3    H256951   4.813   2.155   1.239 -0.6927  0.3743 -1.8107
11846TIP3   OH256952   2.219   1.016  15.685  0.3916 -0.1704  0.6027
11846TIP3    H156953   2.248   0.928  15.661 -0.1666 -0.2014  0.0230
11846TIP3    H256954   2.123   1.011  15.682  0.3599  0.5795  0.1240
11847TIP3   OH256955   5.771   5.693  10.909 -0.5668 -0.1381  0.5014
11847TIP3    H156956   5.812   5.649  10.835  0.7038 -0.5249  1.4061
11847TIP3    H256957   5.800   5.644  10.985 -1.2622  0.6884  1.3259
11848TIP3   OH256958   4.719   0.336   0.513 -0.4805  0.6329 -0.4919
11848TIP3    H156959   4.748   0.254   0.554 -2.6767 -0.4742 -0.9983
11848TIP3    H256960   4.706   0.395   0.587  1.8620  0.8360 -0.1757
11849TIP3   OH256961   2.846   6.584  13.158 -0.4487 -0.5442  0.9265
11849TIP3    H156962   2.906   6.655  13.140 -0.7103 -0.6915 -0.6720
11849TIP3    H256963   2.901   6.506  13.164 -0.4446 -0.7445 -0.9320
11850TIP3   OH256964   4.316   3.647  12.711 -1.0127  0.3692 -0.1293
11850TIP3    H156965   4.270   3.723  12.745 -2.8509 -0.5957 -0.3164
11850TIP3    H256966   4.376   3.682  12.644 -1.1640  1.7081  0.4232
11851TIP3   OH256967   5.608   0.348  11.274  0.1534  0.1021  0.7401
11851TIP3    H156968   5.668   0.387  11.210  0.7357 -0.6087  0.8527
11851TIP3    H256969   5.627   0.394  11.355 -0.4903  0.9102  0.4496
11852TIP3   OH256970   2.067   2.052   2.086 -0.1561  0.5240  0.7265
11852TIP3    H156971   1.987   2.000   2.078 -0.8391  1.7470 -1.2949
11852TIP3    H256972   2.037   2.138   2.117  0.3830  0.9220  0.1834
11853TIP3   OH256973   2.224   6.486   1.932  0.0292  0.0443  0.5598
11853TIP3    H156974   2.236   6.405   1.981  0.7309 -0.8338 -0.9679
11853TIP3    H256975   2.233   6.459   1.840  0.5737  1.9088  0.0307
11854TIP3   OH256976   0.013   6.681  13.753  0.3086 -0.1026 -0.1539
11854TIP3    H156977  -0.051   6.704  13.821 -0.0533  0.2400 -0.6114
11854TIP3    H256978   0.032   6.764  13.709  2.1284  0.0627  0.8760
11855TIP3   OH256979   2.982   0.729  12.399  0.3635  0.2097 -0.2963
11855TIP3    H156980   3.007   0.757  12.311  0.1213  2.3671  0.2693
11855TIP3    H256981   3.037   0.782  12.457  1.7534 -2.3623  0.9038
11856TIP3   OH256982   0.829   1.531  15.450  0.1708 -0.0830 -0.9482
11856TIP3    H156983   0.765   1.601  15.467  1.2831  0.3948  1.6850
11856TIP3    H256984   0.875   1.561  15.372 -0.3342  1.4307 -0.7140
11857TIP3   OH256985   5.094   1.359   2.940 -0.2299 -0.7453  0.6374
11857TIP3    H156986   5.023   1.388   2.883 -1.0544 -1.7966  1.1124
11857TIP3    H256987   5.082   1.410   3.020 -1.0825 -1.6413  1.0991
11858TIP3   OH256988   5.826   0.233   0.338  0.0285  0.0796 -0.2533
11858TIP3    H156989   5.918   0.253   0.358 -0.5128  2.9143 -0.2401
11858TIP3    H256990   5.789   0.316   0.308 -2.8187 -0.7174  0.7182
11859TIP3   OH256991   2.288   2.089  12.506  0.1603  0.1906 -0.2151
11859TIP3    H156992   2.361   2.057  12.452 -0.4457 -0.3110 -0.7648
11859TIP3    H256993   2.300   2.045  12.590  0.8619  0.6275 -0.0757
11860TIP3   OH256994   0.321   3.447  12.162 -0.4199 -0.0323 -0.3837
11860TIP3    H156995   0.294   3.478  12.076 -0.2879  1.7642  0.1690
11860TIP3    H256996   0.245   3.399  12.196 -0.3843 -0.9529 -1.5682
11861TIP3   OH256997   3.260   0.501   1.547 -0.0589 -0.1833 -0.6781
11861TIP3    H156998   3.311   0.569   1.590  0.0463  0.3343 -1.6011
11861TIP3    H256999   3.173   0.508   1.588  0.4287 -0.7027  0.4989
11862TIP3   OH257000   5.588   4.403  13.651  0.1631 -0.1860  0.4324
11862TIP3    H157001   5.645   4.477  13.635 -0.9013  0.4801 -0.4427
11862TIP3    H257002   5.580   4.359  13.566 -1.1127  0.1158  0.3730
11863TIP3   OH257003   3.097   0.037  14.200 -0.1284 -0.9663 -0.8558
11863TIP3    H157004   3.002   0.034  14.213 -0.3681 -1.1326 -2.5166
11863TIP3    H257005   3.116  -0.034  14.140  0.5146  1.2475 -3.4883
11864TIP3   OH257006   1.038   6.089   3.560 -0.0637  0.4289 -0.4617
11864TIP3    H157007   1.010   6.009   3.515  1.8576 -0.7365  0.2928
11864TIP3    H257008   0.957   6.137   3.575 -1.5455 -2.1370  0.4706
11865TIP3   OH257009   0.046   2.252   0.073  0.2352  0.5242  0.5244
11865TIP3    H157010  -0.024   2.304   0.034  1.1294  0.2947 -1.5289
11865TIP3    H257011   0.114   2.250   0.006  0.7961 -2.1542  1.0618
11866TIP3   OH257012   3.285   4.087  10.646  0.1249 -0.2441  0.1219
11866TIP3    H157013   3.223   4.113  10.714  0.6373  0.6655  0.2557
11866TIP3    H257014   3.369   4.124  10.675  0.3586  0.1410 -0.9943
11867TIP3   OH257015   4.822   6.466  14.639  0.2274 -0.2472  1.6181
11867TIP3    H157016   4.793   6.393  14.585  1.3870  1.2538 -1.2825
11867TIP3    H257017   4.748   6.527  14.640  0.3710 -0.0585  1.2350
11868TIP3   OH257018   6.401   1.030  13.416 -0.1864 -0.0845 -0.7029
11868TIP3    H157019   6.447   0.971  13.356 -1.3550 -0.9943 -0.7184
11868TIP3    H257020   6.464   1.045  13.487  0.9583  0.4704 -1.7813
11869TIP3   OH257021   0.359   0.585   1.178  0.2446  0.3959  0.1932
11869TIP3    H157022   0.281   0.636   1.160 -0.5513 -0.5968  0.7295
11869TIP3    H257023   0.401   0.629   1.252  0.3006  1.0423 -0.2231
11870TIP3   OH257024   0.646   6.635  10.407 -0.3752 -0.7316  0.2829
11870TIP3    H157025   0.585   6.628  10.480  0.7449 -2.8541  1.1093
11870TIP3    H257026   0.711   6.699  10.436 -1.6389  0.8870 -0.2571
11871TIP3   OH257027   1.648   2.763  14.130 -0.2809 -0.2483  0.4716
11871TIP3    H157028   1.683   2.681  14.165 -1.0199 -1.3189 -1.1897
11871TIP3    H257029   1.555   2.762  14.154  0.1429  1.2692  2.4616
11872TIP3   OH257030   4.672   3.758  12.305 -0.2072  0.0481 -0.0646
11872TIP3    H157031   4.671   3.720  12.392 -0.3515  0.6878  0.2187
11872TIP3    H257032   4.667   3.853  12.320  0.8934  0.2257 -0.7249
11873TIP3   OH257033   0.189   6.121   3.448 -0.2425  0.2372  0.3444
11873TIP3    H157034   0.111   6.127   3.503  0.6135 -0.3133  1.6647
11873TIP3    H257035   0.171   6.048   3.388  0.1427 -1.4538  2.1962
11874TIP3   OH257036   1.577   2.695   0.858 -0.0462  0.1783 -0.2098
11874TIP3    H157037   1.482   2.687   0.873 -0.0481 -0.9788 -0.7367
11874TIP3    H257038   1.612   2.609   0.880  0.8625  0.5396 -0.2187
11875TIP3   OH257039   4.377   2.172   4.506 -0.2471  0.1795  0.0316
11875TIP3    H157040   4.340   2.093   4.545 -0.3147  0.7648  1.2019
11875TIP3    H257041   4.412   2.143   4.422 -1.7016 -0.7672 -0.2948
11876TIP3   OH257042   2.393   0.489   0.550 -0.0581 -0.3265  0.1537
11876TIP3    H157043   2.352   0.532   0.626 -0.0159 -1.3494  0.7649
11876TIP3    H257044   2.382   0.396   0.566  1.1010 -0.5835 -0.4768
11877TIP3   OH257045   1.010   4.465   2.608  0.2412  0.0930 -0.3126
11877TIP3    H157046   1.014   4.409   2.686  0.5564  0.5625  0.0093
11877TIP3    H257047   0.916   4.470   2.588 -0.1657  2.2002  1.6844
11878TIP3   OH257048   6.532   4.482  11.364 -0.1270  0.5811  0.5237
11878TIP3    H157049   6.456   4.462  11.418 -0.9797 -0.7090 -1.0551
11878TIP3    H257050   6.505   4.461  11.275  1.6233  1.4551 -0.2770
11879TIP3   OH257051   6.455   5.019   1.880  0.1837  0.1282 -0.2654
11879TIP3    H157052   6.446   5.039   1.973 -2.5277  0.7811 -0.6035
11879TIP3    H257053   6.540   5.056   1.856  2.0338 -2.0183  2.3607
11880TIP3   OH257054   5.840   0.177  13.346  0.0551  0.0464  0.5174
11880TIP3    H157055   5.912   0.220  13.300 -0.8647 -1.0069 -2.0530
11880TIP3    H257056   5.761   0.207  13.301 -1.0104 -0.3209  2.0449
11881TIP3   OH257057   5.840   4.222  14.350 -0.3665  0.0654 -0.2561
11881TIP3    H157058   5.900   4.294  14.333  0.4303 -0.4882  0.1558
11881TIP3    H257059   5.835   4.174  14.268  0.1127 -0.1439 -0.1656
11882TIP3   OH257060   3.723   2.294  14.718  0.0331 -0.2605  0.0176
11882TIP3    H157061   3.701   2.228  14.651  0.3619  0.7295 -1.1025
11882TIP3    H257062   3.685   2.375  14.684 -0.6937  0.0678  1.5637
11883TIP3   OH257063   5.815   0.711  13.541 -0.2383  0.2850 -0.0034
11883TIP3    H157064   5.855   0.776  13.600 -0.3711 -0.1694  0.6029
11883TIP3    H257065   5.722   0.716  13.560 -0.0387 -2.1211  2.2575
11884TIP3   OH257066   3.468   2.834   5.147  0.5616 -0.2978 -0.4101
11884TIP3    H157067   3.463   2.874   5.233 -0.7513 -0.1899 -0.5092
11884TIP3    H257068   3.529   2.889   5.098  0.2115  0.4810  0.0193
11885TIP3   OH257069   2.025   5.994  15.936 -0.1813 -0.4240 -0.4813
11885TIP3    H157070   2.039   6.068  15.995 -2.1558 -1.2014  1.0696
11885TIP3    H257071   2.024   6.033  15.849  1.0880  1.0075  0.0941
11886TIP3   OH257072   2.583   3.261  13.046 -0.5180 -0.2628 -0.7749
11886TIP3    H157073   2.584   3.346  13.089 -1.2192 -0.4218 -0.4331
11886TIP3    H257074   2.675   3.246  13.022 -0.2425  0.1954 -0.0570
11887TIP3   OH257075   5.727   4.902  11.976 -0.1128  0.2619  0.4878
11887TIP3    H157076   5.722   4.828  12.037 -2.2765  1.0246  1.3582
11887TIP3    H257077   5.703   4.865  11.891 -0.0496 -0.2600  0.6945
11888TIP3   OH257078   0.443   0.175   4.274  0.0285 -0.6630  0.0804
11888TIP3    H157079   0.387   0.253   4.278 -2.3123 -2.2713  1.1192
11888TIP3    H257080   0.531   0.210   4.261 -1.1503  2.0421 -1.7039
11889TIP3   OH257081   2.943   4.944   4.116  0.0867 -0.6902  0.6720
11889TIP3    H157082   2.891   4.999   4.175  0.1322  0.7158 -0.5466
11889TIP3    H257083   2.879   4.889   4.071 -0.6159  1.7690 -1.6097
11890TIP3   OH257084   2.536   5.604  16.234 -0.1885 -0.3327 -0.3453
11890TIP3    H157085   2.590   5.554  16.173  0.6055  0.4195 -0.2719
11890TIP3    H257086   2.448   5.598  16.198 -0.0097 -1.2860 -0.6578
11891TIP3   OH257087   6.766   6.388  13.293  0.1591  0.0344 -0.2156
11891TIP3    H157088   6.847   6.385  13.345  0.9009 -1.5787 -1.3928
11891TIP3    H257089   6.742   6.481  13.293  1.4662  0.4232  0.9609
11892TIP3   OH257090   3.296   2.922   4.741  0.1253  0.0668  0.0983
11892TIP3    H157091   3.204   2.915   4.767 -0.2000  1.4669 -0.6202
11892TIP3    H257092   3.339   2.958   4.818  0.0381 -0.3792  0.3604
11893TIP3   OH257093   0.751   4.796  15.978  0.1770 -0.0144 -0.5790
11893TIP3    H157094   0.688   4.851  15.932  1.7810  1.3075 -1.3369
11893TIP3    H257095   0.779   4.732  15.913  1.0994  0.7142 -0.9369
11894TIP3   OH257096   4.755   1.001  12.450 -0.7323  0.0717  0.0548
11894TIP3    H157097   4.748   0.944  12.527  1.4087 -0.5410 -0.1304
11894TIP3    H257098   4.775   0.942  12.378 -2.3189  0.6923 -0.9342
11895TIP3   OH257099   6.566   4.762   5.067  0.1316  0.0922 -0.3833
11895TIP3    H157100   6.471   4.747   5.067 -0.0376  0.9916  0.7369
11895TIP3    H257101   6.604   4.675   5.055 -0.8351 -0.3776 -0.1268
11896TIP3   OH257102   3.054   3.598  12.095 -0.5064 -0.2658  0.2578
11896TIP3    H157103   3.022   3.591  12.005 -0.0151 -1.4941  0.1730
11896TIP3    H257104   2.978   3.629  12.145 -0.7809  0.4199 -0.5643
11897TIP3   OH257105   3.329   5.061  16.619  0.1190  0.2886 -0.1080
11897TIP3    H157106   3.267   5.115  16.668  1.0136  0.1380  1.2292
11897TIP3    H257107   3.412   5.071  16.665  0.1599 -2.9339  0.7420
11898TIP3   OH257108   6.513   3.528   2.629 -0.1181 -0.4951  0.1942
11898TIP3    H157109   6.433   3.476   2.635 -0.2929 -0.0529  2.1660
11898TIP3    H257110   6.492   3.597   2.565 -2.3183  1.2193  2.5697
11899TIP3   OH257111   1.476   0.498   3.909  0.6237 -0.0903 -0.2024
11899TIP3    H157112   1.481   0.591   3.928 -0.2530  0.2370 -1.4355
11899TIP3    H257113   1.567   0.467   3.911  0.8978  0.7241  0.4302
11900TIP3   OH257114   5.953   1.003  14.059  0.4825 -0.5066  0.4052
11900TIP3    H157115   5.915   1.072  14.114 -0.6664  0.3202 -1.3463
11900TIP3    H257116   6.047   1.020  14.062  0.1668  1.9824 -0.9608
11901TIP3   OH257117   0.025   4.802  12.341  0.3573  0.4668  0.2596
11901TIP3    H157118   0.011   4.892  12.313  1.0176  1.0488  1.7197
11901TIP3    H257119  -0.037   4.789  12.412  0.6482 -0.0596  0.4204
11902TIP3   OH257120   0.839   6.273  11.389  0.0655 -0.0881 -0.1726
11902TIP3    H157121   0.910   6.327  11.355  2.2759 -2.5765  0.0805
11902TIP3    H257122   0.872   6.241  11.473 -3.3019  2.1580  2.1937
11903TIP3   OH257123   5.863   6.213   4.922 -0.2945  0.2322 -0.9746
11903TIP3    H157124   5.774   6.192   4.951  0.3572 -1.1069  0.1693
11903TIP3    H257125   5.857   6.213   4.826 -1.7200  1.1294 -0.9140
11904TIP3   OH257126   4.821   3.881   2.780 -0.2520 -0.7091 -0.7993
11904TIP3    H157127   4.782   3.938   2.714 -2.1817  1.1192  1.7157
11904TIP3    H257128   4.853   3.805   2.731 -1.9743  0.3156 -3.7329
11905TIP3   OH257129   3.592   2.408  13.125  0.0249  0.2759 -0.3156
11905TIP3    H157130   3.638   2.477  13.076  0.5092  1.0652  1.1748
11905TIP3    H257131   3.534   2.456  13.184  0.2027 -0.6005  0.5884
11906TIP3   OH257132   5.474   1.727   1.769 -0.2320 -0.3782 -0.3089
11906TIP3    H157133   5.381   1.751   1.773  0.5995  3.6036 -0.2957
11906TIP3    H257134   5.495   1.730   1.676  0.4806  2.1706 -0.1491
11907TIP3   OH257135   1.726   1.928  15.252  0.2983  0.1652 -0.0441
11907TIP3    H157136   1.791   1.870  15.214  0.9753  1.3132 -0.6903
11907TIP3    H257137   1.776   1.990  15.304 -0.5204 -0.6136  1.7549
11908TIP3   OH257138   3.104   2.947   0.152  0.3116 -0.7537  0.3157
11908TIP3    H157139   3.122   2.892   0.076  0.2938  1.8120 -1.6900
11908TIP3    H257140   3.142   3.032   0.130 -0.2838  0.2981  2.9242
11909TIP3   OH257141   2.592   5.376  15.133  0.2501 -0.2090 -0.0638
11909TIP3    H157142   2.507   5.345  15.165  0.3063 -0.0160  0.2834
11909TIP3    H257143   2.605   5.331  15.050  0.3900 -1.1975  0.4850
11910TIP3   OH257144   2.382   0.810   2.094  0.6193 -0.3562 -0.1571
11910TIP3    H157145   2.327   0.875   2.137  0.6990 -0.9055  0.8145
11910TIP3    H257146   2.345   0.800   2.007 -0.6594 -0.5195  0.3914
11911TIP3   OH257147   3.131   6.230  14.461 -0.5428  0.3175  0.7256
11911TIP3    H157148   3.212   6.215  14.510 -0.4270  2.3774  1.2377
11911TIP3    H257149   3.069   6.167  14.498  0.2131  0.2036  1.8566
11912TIP3   OH257150   0.488   0.232   3.459 -0.7323 -0.1771 -0.1473
11912TIP3    H157151   0.583   0.228   3.467 -0.7995 -3.2720  0.0275
11912TIP3    H257152   0.472   0.313   3.410  2.0678 -0.2823 -1.4134
11913TIP3   OH257153   3.888   2.760   3.387 -0.1586 -0.1954  0.0226
11913TIP3    H157154   3.951   2.816   3.343  0.3148 -0.3943  0.4382
11913TIP3    H257155   3.934   2.676   3.399  0.1469  0.1900  1.8884
11914TIP3   OH257156   6.207   2.687   1.615  0.2880  0.4436  0.2261
11914TIP3    H157157   6.250   2.760   1.660 -1.3385  1.5367  0.0934
11914TIP3    H257158   6.169   2.726   1.537  0.4805 -0.8294 -0.5249
11915TIP3   OH257159   0.785   0.249   2.183  0.2539  0.0596  0.1708
11915TIP3    H157160   0.775   0.244   2.088  1.2935  0.8919 -0.0089
11915TIP3    H257161   0.696   0.246   2.217 -0.2280  1.0691 -0.9252
11916TIP3   OH257162   1.744   3.310   0.392 -0.6626 -0.0264 -0.2121
11916TIP3    H157163   1.765   3.397   0.427  0.1558  0.0922 -0.9619
11916TIP3    H257164   1.772   3.249   0.460 -0.3694  0.2620 -0.0700
11917TIP3   OH257165   2.638   2.183  15.475  0.4726 -0.6214 -0.6866
11917TIP3    H157166   2.678   2.106  15.516  0.7825 -0.9247 -1.5438
11917TIP3    H257167   2.578   2.147  15.409  0.5093 -0.1284 -0.9939
11918TIP3   OH257168   2.288   4.350  15.167  0.4356 -0.2831  0.0109
11918TIP3    H157169   2.367   4.297  15.179  1.6166  1.6027  0.8813
11918TIP3    H257170   2.319   4.440  15.166 -1.8585  0.6076  1.7586
11919TIP3   OH257171   0.709   4.675  10.643  0.6122  0.2163 -0.4673
11919TIP3    H157172   0.667   4.590  10.630  1.8012 -0.2512 -1.4722
11919TIP3    H257173   0.707   4.688  10.737  0.6190 -1.0560 -0.2654
11920TIP3   OH257174   4.029   0.363  16.591 -0.5430  0.2185 -0.7890
11920TIP3    H157175   4.017   0.280  16.638 -1.8892  0.5330 -0.5582
11920TIP3    H257176   3.976   0.426  16.640 -0.2590  1.0228 -1.5044
11921TIP3   OH257177   5.080   1.555   3.138  0.3434 -0.4774  0.1694
11921TIP3    H157178   4.985   1.564   3.126  0.5741  0.8041 -0.9328
11921TIP3    H257179   5.104   1.631   3.191  0.9223 -0.0758 -0.6470
11922TIP3   OH257180   6.337   0.695   3.820  0.3143 -0.6479  0.4886
11922TIP3    H157181   6.295   0.623   3.867 -0.3999 -1.1897 -0.9317
11922TIP3    H257182   6.288   0.702   3.739  2.1997 -0.4806 -0.6878
11923TIP3   OH257183   1.103   6.105   1.174 -0.1819  0.1934 -0.2180
11923TIP3    H157184   1.008   6.100   1.183  0.0280 -1.5426  1.8167
11923TIP3    H257185   1.128   6.022   1.133  0.6000 -0.3797  1.3389
11924TIP3   OH257186   3.954   0.065   3.684 -0.2151 -0.2079  0.2786
11924TIP3    H157187   3.917  -0.022   3.670  1.7765 -1.4938  2.3561
11924TIP3    H257188   3.975   0.068   3.777  0.5563  2.2019  0.1005
11925TIP3   OH257189   5.614   1.655   0.557 -0.0795 -0.4383  0.2560
11925TIP3    H157190   5.684   1.699   0.509 -0.4044  0.0538  0.2259
11925TIP3    H257191   5.536   1.666   0.503 -0.3797 -0.1670  0.7354
11926TIP3   OH257192   1.551   2.304  14.446 -0.2085 -0.0837 -0.0180
11926TIP3    H157193   1.502   2.248  14.506 -3.2205  1.1329 -1.1183
11926TIP3    H257194   1.490   2.374  14.424  1.1502  0.1834 -3.5640
11927TIP3   OH257195   1.467   4.300  13.004 -0.0496  0.3387  0.3767
11927TIP3    H157196   1.487   4.392  13.020 -1.5471  0.7096  0.2835
11927TIP3    H257197   1.382   4.302  12.960  0.3671 -1.0465 -0.5245
11928TIP3   OH257198   1.144   2.439   4.883  0.5523  0.0646  0.6200
11928TIP3    H157199   1.060   2.445   4.838  0.5191 -1.9769  0.3044
11928TIP3    H257200   1.209   2.454   4.815  0.4700  1.5610  0.8472
11929TIP3   OH257201   3.597   6.237  14.938 -0.0157  0.1181 -0.6062
11929TIP3    H157202   3.544   6.198  15.008  1.1437  0.0920  0.2835
11929TIP3    H257203   3.543   6.226  14.859 -0.0771 -2.6485 -0.2826
11930TIP3   OH257204   0.922   6.504  16.320 -0.2142  0.1037  0.2680
11930TIP3    H157205   0.977   6.471  16.391 -0.0479  2.2080  1.2030
11930TIP3    H257206   0.833   6.481  16.345  0.0123 -1.0841  0.0293
11931TIP3   OH257207   1.862   6.002   6.653 -0.2696 -0.2057 -0.7531
11931TIP3    H157208   1.785   6.052   6.678  0.3206  0.6445 -0.5845
11931TIP3    H257209   1.833   5.911   6.655 -0.3752 -0.2677  2.9561
11932TIP3   OH257210   6.689   1.845   3.234  0.7401  0.0287 -0.2454
11932TIP3    H157211   6.681   1.941   3.232 -1.4047 -0.1201 -0.6515
11932TIP3    H257212   6.694   1.824   3.328  0.4184  0.4728 -0.1257
11933TIP3   OH257213   5.961   2.149  11.214  0.1632 -0.7108 -0.8579
11933TIP3    H157214   6.043   2.104  11.195  1.1175  0.1973  0.8214
11933TIP3    H257215   5.987   2.241  11.226 -1.3691 -0.1045 -1.8902
11934TIP3   OH257216   3.085   0.793   3.957 -0.3131  0.4390  0.2661
11934TIP3    H157217   3.125   0.880   3.960  3.2148 -0.8501 -2.3437
11934TIP3    H257218   3.096   0.759   4.046 -0.7591  2.1662  1.0376
11935TIP3   OH257219   6.520   2.039  10.696  0.0576 -0.1833 -0.6655
11935TIP3    H157220   6.441   2.078  10.734  1.6930  1.8236  0.9863
11935TIP3    H257221   6.527   2.079  10.609  0.2959  1.2819 -0.0132
11936TIP3   OH257222   2.330   1.322   0.921 -0.2830 -0.0900  0.2978
11936TIP3    H157223   2.304   1.412   0.900 -0.0739  0.0252  0.5323
11936TIP3    H257224   2.253   1.270   0.899 -0.1878  0.0696 -0.4399
11937TIP3   OH257225   6.576   4.179   1.777 -0.0703  0.0932 -0.1718
11937TIP3    H157226   6.568   4.269   1.747  1.0555  0.4633  0.5793
11937TIP3    H257227   6.646   4.181   1.842  1.4901 -1.6649 -1.6291
11938TIP3   OH257228   6.072   1.638  16.152 -0.5485  0.5917  0.0717
11938TIP3    H157229   6.138   1.584  16.196  0.4457  2.1438  0.5279
11938TIP3    H257230   6.110   1.659  16.067 -1.4868 -0.4613 -0.6395
11939TIP3   OH257231   4.270   3.795  15.340 -0.3212 -0.6771  0.5447
11939TIP3    H157232   4.340   3.739  15.372  0.3865  0.8728  1.7733
11939TIP3    H257233   4.311   3.879  15.321 -1.4008 -0.4504 -1.0746
11940TIP3   OH257234   2.790   3.060   4.980  0.0901 -0.7610 -0.2722
11940TIP3    H157235   2.867   3.004   4.994  1.7646  1.6421  0.7279
11940TIP3    H257236   2.772   3.097   5.066 -1.4938 -0.3807 -0.7510
11941TIP3   OH257237   6.545   3.944  15.341  0.2575 -0.4661 -0.3505
11941TIP3    H157238   6.524   4.037  15.334 -0.4979 -0.4277  1.6751
11941TIP3    H257239   6.639   3.940  15.324  0.4025  0.7477  0.0501
11942TIP3   OH257240   4.933   3.500   6.106 -0.0251 -0.5452 -0.2034
11942TIP3    H157241   4.846   3.526   6.075  0.2738 -0.5761 -1.0996
11942TIP3    H257242   4.926   3.406   6.121 -0.8293 -0.1825  2.1012
11943TIP3   OH257243   4.454   6.634   2.906 -0.2724  0.5309  0.1825
11943TIP3    H157244   4.501   6.669   2.981 -0.2869 -1.6896  1.3158
11943TIP3    H257245   4.497   6.672   2.830  0.3357  2.1255  1.2808
11944TIP3   OH257246   6.437   5.121   0.448  0.3059 -0.2405 -0.6448
11944TIP3    H157247   6.357   5.071   0.465 -0.6508  1.4657  0.1631
11944TIP3    H257248   6.409   5.212   0.449  2.3747  0.4565  0.4133
11945TIP3   OH257249   3.352   2.092   2.297  0.2126 -0.0668  0.1247
11945TIP3    H157250   3.315   2.133   2.375 -1.9729  1.1868 -1.4694
11945TIP3    H257251   3.331   2.152   2.225 -0.9880 -2.7597 -1.9769
11946TIP3   OH257252   5.341   1.887   6.262  0.3266 -0.4266 -0.5980
11946TIP3    H157253   5.322   1.809   6.209  1.3720 -1.0738 -0.0500
11946TIP3    H257254   5.405   1.935   6.211 -1.8563  1.2343 -1.9612
11947TIP3   OH257255   2.005   5.589  15.934  0.0449  0.6040  0.5080
11947TIP3    H157256   1.911   5.578  15.925  0.1920 -0.8635  0.5830
11947TIP3    H257257   2.024   5.564  16.024  0.6362 -0.0697  0.2021
11948TIP3   OH257258   4.787   3.886  11.037 -0.3828  0.1992  0.1199
11948TIP3    H157259   4.809   3.952  11.103  0.5172  0.1808 -0.1493
11948TIP3    H257260   4.845   3.813  11.056 -0.4957 -0.0182 -0.3651
11949TIP3   OH257261   6.710   4.944  15.300  0.1465  0.1993  0.1825
11949TIP3    H157262   6.692   5.025  15.251 -1.1938 -1.3642 -2.1608
11949TIP3    H257263   6.625   4.920  15.336  0.3343 -0.6021  0.1010
11950TIP3   OH257264   2.377   3.465   1.930 -0.1318  0.2518 -0.0951
11950TIP3    H157265   2.363   3.553   1.894 -1.6235  0.1232  0.0954
11950TIP3    H257266   2.353   3.474   2.023 -2.0692 -0.7330 -0.4549
11951TIP3   OH257267   5.810   4.899   0.885 -0.6172 -0.0938  0.1944
11951TIP3    H157268   5.717   4.916   0.870 -0.5769  1.1263  1.1141
11951TIP3    H257269   5.844   4.983   0.917  0.9429 -0.3347 -0.7437
11952TIP3   OH257270   4.223   6.327  12.136  0.2570  0.2401 -0.2245
11952TIP3    H157271   4.131   6.325  12.160  0.4427  0.8982  0.5929
11952TIP3    H257272   4.225   6.302  12.044 -0.6614 -0.5349 -0.0449
11953TIP3   OH257273   6.489   0.829   4.080  0.1278 -0.3444 -0.7110
11953TIP3    H157274   6.524   0.880   4.007 -0.6515  0.9919 -0.1757
11953TIP3    H257275   6.535   0.861   4.157 -1.9543  1.2640 -0.0290
11954TIP3   OH257276   0.547   1.479  10.937 -0.0121 -0.1488  0.2676
11954TIP3    H157277   0.525   1.486  10.845 -0.7676 -0.0710  0.4506
11954TIP3    H257278   0.467   1.446  10.979  0.6462 -1.2356  0.7377
11955TIP3   OH257279   4.077   4.749  15.272 -0.5199 -0.2774 -0.1196
11955TIP3    H157280   4.114   4.816  15.214 -1.5176 -0.6542 -1.2234
11955TIP3    H257281   4.123   4.762  15.355 -0.0309  1.1658 -0.5811
11956TIP3   OH257282   2.194   2.825   1.628 -0.1955  0.5239  0.5950
11956TIP3    H157283   2.118   2.867   1.588 -0.9545 -0.8160  0.5571
11956TIP3    H257284   2.231   2.893   1.684 -0.7759  1.5451 -0.2099
11957TIP3   OH257285   3.999   4.092  16.180  0.1738  0.2369 -0.1400
11957TIP3    H157286   4.008   4.082  16.085  1.8319 -0.3303  0.0422
11957TIP3    H257287   3.920   4.042  16.201 -0.5637  0.8716 -1.2837
11958TIP3   OH257288   1.697   0.525   0.322  0.7939  0.2031 -0.2407
11958TIP3    H157289   1.602   0.533   0.313  0.7912 -0.9527 -1.6494
11958TIP3    H257290   1.723   0.602   0.372 -0.7867  0.9975 -0.5780
11959TIP3   OH257291   0.203   1.881  13.140  0.3424  0.2043  0.0742
11959TIP3    H157292   0.225   1.913  13.228 -0.5677  0.2797  0.2859
11959TIP3    H257293   0.183   1.788  13.153  0.4356  0.1588 -0.1034
11960TIP3   OH257294   5.773   1.639   1.691  0.3961  0.1928 -0.6762
11960TIP3    H157295   5.757   1.549   1.721  0.4828  0.7094  1.0211
11960TIP3    H257296   5.698   1.659   1.635  0.9252 -1.2917 -2.0192
11961TIP3   OH257297   3.384   1.740   0.273 -0.3398  0.0281 -0.0410
11961TIP3    H157298   3.444   1.812   0.252 -1.0401  0.5616 -0.2663
11961TIP3    H257299   3.340   1.720   0.191  0.7135 -1.5089 -0.2702
11962TIP3   OH257300   0.093   1.753  11.402  0.0773 -0.1129  0.0184
11962TIP3    H157301   0.177   1.796  11.390 -0.2441  0.7355  0.7019
11962TIP3    H257302   0.074   1.761  11.496 -1.7083  1.5722 -0.4168
11963TIP3   OH257303   0.353   3.683   1.871  0.0105 -0.3982  0.0240
11963TIP3    H157304   0.424   3.623   1.894  0.5370  0.4927  0.8486
11963TIP3    H257305   0.282   3.627   1.841  0.1783 -1.5041  1.5751
11964TIP3   OH257306   6.253   4.752   3.910  0.3638  0.0851  0.2408
11964TIP3    H157307   6.270   4.845   3.891  1.8112 -0.2200 -0.0826
11964TIP3    H257308   6.273   4.743   4.003 -1.0765  0.3549  0.5998
11965TIP3   OH257309   5.445   5.101   3.317  0.1822 -0.4732  0.4953
11965TIP3    H157310   5.414   5.129   3.403  1.6007  1.5935  0.4012
11965TIP3    H257311   5.530   5.144   3.306  0.1987 -0.9317 -1.8068
11966TIP3   OH257312   1.732   6.560  13.235  0.0378  0.0587 -0.4188
11966TIP3    H157313   1.688   6.495  13.180  1.3501 -0.9628 -0.3117
11966TIP3    H257314   1.673   6.572  13.309 -0.0480 -1.3624 -0.2170
11967TIP3   OH257315   2.117   3.877   4.062  0.4878 -0.6361  0.7113
11967TIP3    H157316   2.056   3.849   4.131 -0.4512 -1.4721 -0.4163
11967TIP3    H257317   2.169   3.799   4.043  0.5042 -0.5142  0.2466
11968TIP3   OH257318   6.558   0.500  14.243 -0.3938  0.4335  0.0833
11968TIP3    H157319   6.485   0.450  14.207 -0.8804  2.3656 -1.8292
11968TIP3    H257320   6.636   0.456  14.211 -0.7910  0.2527 -0.6460
11969TIP3   OH257321   0.545   2.381   1.819  0.4573  0.6079 -0.2034
11969TIP3    H157322   0.621   2.327   1.799  1.3409  1.9618 -0.6638
11969TIP3    H257323   0.570   2.469   1.791 -0.9236  1.2709  0.5220
11970TIP3   OH257324   4.988   1.068  15.629 -0.7106  0.1734 -0.6996
11970TIP3    H157325   4.942   1.016  15.695  0.3844 -1.6479 -1.2937
11970TIP3    H257326   4.969   1.159  15.653 -1.3655 -0.4451  1.3737
11971TIP3   OH257327   2.432   2.760   1.333  0.0553  0.3794  0.7497
11971TIP3    H157328   2.441   2.699   1.259 -2.3943 -0.2272  0.8832
11971TIP3    H257329   2.479   2.839   1.305  0.7715 -0.5016 -0.6446
11972TIP3   OH257330   1.786   5.156   5.620  0.4161  0.2075  0.1340
11972TIP3    H157331   1.821   5.234   5.664  0.3588 -0.7704  2.0272
11972TIP3    H257332   1.797   5.086   5.684 -1.7908 -0.8482 -0.5529
11973TIP3   OH257333   0.410   0.542   0.124 -0.0143  0.6840  0.5904
11973TIP3    H157334   0.385   0.450   0.118  2.5880 -0.0844  0.0464
11973TIP3    H257335   0.386   0.568   0.213 -0.6843 -0.5425  0.7887
11974TIP3   OH257336   4.552   6.671  11.776  0.3906 -0.4889 -0.6605
11974TIP3    H157337   4.632   6.634  11.739  0.8079 -1.2769  0.9456
11974TIP3    H257338   4.507   6.597  11.816  0.5752  0.4420  1.4425
11975TIP3   OH257339   1.754   1.381   2.191  0.4009 -0.4735 -0.0308
11975TIP3    H157340   1.775   1.441   2.120  1.2739 -1.3165 -0.5089
11975TIP3    H257341   1.682   1.327   2.157  2.0742 -2.1504 -1.0489
11976TIP3   OH257342   4.318   1.736   2.598  0.7087  0.0476 -0.1141
11976TIP3    H157343   4.291   1.690   2.518 -0.4072 -0.9420  0.7843
11976TIP3    H257344   4.235   1.759   2.641  1.2866  0.5017  0.7838
11977TIP3   OH257345   5.664   5.232   3.376 -0.0770 -0.6058  0.0492
11977TIP3    H157346   5.677   5.246   3.282 -0.0656  0.7348  0.2280
11977TIP3    H257347   5.752   5.230   3.412 -0.0477 -1.9055 -0.0498
11978TIP3   OH257348   0.731   1.392  14.845  0.2070 -0.7479  0.1991
11978TIP3    H157349   0.677   1.338  14.787  0.5960 -1.3139  0.3478
11978TIP3    H257350   0.817   1.349  14.845  0.0210 -1.2096  1.7688
11979TIP3   OH257351   0.461   4.771   4.527 -0.6096  0.2655 -0.2086
11979TIP3    H157352   0.462   4.722   4.609 -0.6798  0.4375 -0.1038
11979TIP3    H257353   0.494   4.709   4.462 -0.1442  0.2630  0.0259
11980TIP3   OH257354   3.261   6.298  16.506 -0.1720  0.8063  0.0488
11980TIP3    H157355   3.341   6.291  16.558 -0.3534  0.7148  0.3174
11980TIP3    H257356   3.278   6.245  16.428 -0.1763  0.3259  0.3674
11981TIP3   OH257357   4.177   1.941  12.342 -0.1516  0.0712 -0.2050
11981TIP3    H157358   4.102   1.969  12.289 -0.1923  0.2508 -0.0538
11981TIP3    H257359   4.217   2.023  12.371  0.6299 -0.0069 -1.0267
11982TIP3   OH257360   5.955   0.916  11.902 -0.1192  0.3985 -0.0406
11982TIP3    H157361   5.970   0.990  11.842 -0.7273 -0.6311 -1.5299
11982TIP3    H257362   5.929   0.844  11.845 -0.3663 -0.7500  1.4576
11983TIP3   OH257363   6.299   1.387   5.013 -0.3464  0.1158  0.2764
11983TIP3    H157364   6.255   1.351   4.936 -0.5776  0.0096  0.4566
11983TIP3    H257365   6.329   1.474   4.986  1.0263 -0.5676 -0.4561
11984TIP3   OH257366   0.965   1.853   5.052 -0.4825  0.2283 -0.0376
11984TIP3    H157367   0.970   1.948   5.063 -0.7185  0.1350  1.0475
11984TIP3    H257368   0.948   1.841   4.958  1.2377  1.1695 -0.5052
11985TIP3   OH257369   6.442   4.306   2.296  0.3679  0.3897 -0.0789
11985TIP3    H157370   6.357   4.336   2.263 -0.2083  0.4058  1.3386
11985TIP3    H257371   6.483   4.385   2.331 -0.2860 -0.0377  1.8116
11986TIP3   OH257372   0.352   3.366  13.483 -0.9964  0.7678  0.1396
11986TIP3    H157373   0.406   3.444  13.498 -1.7808  1.3156  0.1919
11986TIP3    H257374   0.263   3.400  13.480 -1.2813 -0.0315 -0.6223
11987TIP3   OH257375   5.283   5.911   1.467  0.2836 -0.0025 -0.1713
11987TIP3    H157376   5.343   5.964   1.520  0.7016  0.2957 -0.9310
11987TIP3    H257377   5.265   5.834   1.520  3.1472 -1.2349 -0.8223
11988TIP3   OH257378   5.992   1.568   3.873 -0.1903  0.4100  0.1915
11988TIP3    H157379   5.963   1.535   3.958 -1.6746 -0.7719 -0.7343
11988TIP3    H257380   6.050   1.641   3.895 -1.6528  1.0627  2.2074
11989TIP3   OH257381   5.806   4.555   4.813  0.4968  0.7234  0.0370
11989TIP3    H157382   5.736   4.554   4.879 -1.8292 -0.6272 -2.2266
11989TIP3    H257383   5.841   4.644   4.815  0.6624  0.6666  3.1383
11990TIP3   OH257384   0.052   3.541   0.677 -0.1166 -0.9283  0.1845
11990TIP3    H157385   0.139   3.545   0.717 -0.4907 -0.4036  0.9903
11990TIP3    H257386   0.048   3.619   0.621 -0.5430 -0.1933  1.2025
11991TIP3   OH257387   6.384   2.934  15.757 -0.0668  0.1016 -0.1433
11991TIP3    H157388   6.300   2.979  15.764 -0.6119 -0.7524 -1.0739
11991TIP3    H257389   6.362   2.842  15.745  0.9205  0.0701 -2.2162
11992TIP3   OH257390   2.548   1.244  11.086 -0.1021 -0.1051 -0.7840
11992TIP3    H157391   2.529   1.308  11.155 -0.4418  0.1020 -1.0632
11992TIP3    H257392   2.473   1.185  11.087 -0.5716  0.4502 -1.5924
11993TIP3   OH257393   4.328   0.959   4.397 -0.1468  0.4828  0.1018
11993TIP3    H157394   4.254   0.901   4.379  0.5612 -0.5989  0.5722
11993TIP3    H257395   4.311   1.037   4.344 -0.6800 -0.5145 -1.2510
11994TIP3   OH257396   5.656   6.009  16.823 -0.2541  0.3139  0.0241
11994TIP3    H157397   5.581   6.070  16.824  0.4090  1.1459  0.2633
11994TIP3    H257398   5.708   6.037  16.747  0.8062  1.0072  0.9691
11995TIP3   OH257399   0.959   1.815   3.918 -0.4070 -0.1684  0.2684
11995TIP3    H157400   0.977   1.874   3.845  1.8388 -1.5233 -0.3888
11995TIP3    H257401   0.918   1.870   3.984  0.1528  1.7703 -0.9157
11996TIP3   OH257402   5.142   5.460  10.499 -0.1217 -0.3977 -0.2046
11996TIP3    H157403   5.192   5.412  10.433  0.7636  0.7543 -0.4026
11996TIP3    H257404   5.182   5.437  10.582 -0.2251 -0.6364 -0.2217
11997TIP3   OH257405   1.200   2.552   5.256  0.1948  0.1909 -0.3648
11997TIP3    H157406   1.124   2.513   5.213 -0.5381  1.4415 -0.2315
11997TIP3    H257407   1.199   2.514   5.344  0.5919 -0.9111 -0.8167
11998TIP3   OH257408   1.248   6.781   2.259 -0.1388 -0.6664  0.0813
11998TIP3    H157409   1.161   6.819   2.256  0.2205  0.3012  1.3130
11998TIP3    H257410   1.255   6.743   2.346  0.9114 -0.1147  0.2543
11999TIP3   OH257411   5.231   3.757  14.089  0.0114  0.0324 -0.6040
11999TIP3    H157412   5.211   3.728  14.000 -1.8491 -0.4601 -0.0651
11999TIP3    H257413   5.146   3.765  14.131  0.7763  1.5253  0.7616
12000TIP3   OH257414   0.399   6.717  11.131 -0.0259  0.2327  0.4045
12000TIP3    H157415   0.375   6.624  11.126 -1.0549  0.5715 -2.5991
12000TIP3    H257416   0.326   6.757  11.178 -0.8106 -0.1514 -0.4469
12001TIP3   OH257417   4.489   2.887   4.369  0.2239  0.2917  0.0629
12001TIP3    H157418   4.447   2.898   4.454  0.0182 -0.2439  0.0375
12001TIP3    H257419   4.473   2.969   4.323  0.8343  0.8108  0.7493
12002TIP3   OH257420   5.789   2.394   0.136 -0.8655 -0.2430  0.2083
12002TIP3    H157421   5.852   2.335   0.095 -1.1521 -0.7622  0.5144
12002TIP3    H257422   5.708   2.381   0.087 -1.2333 -0.9311  0.9876
12003TIP3   OH257423   6.373   2.569   0.832 -0.1261  0.0335 -0.6257
12003TIP3    H157424   6.429   2.646   0.835 -2.2890  1.6755  0.7327
12003TIP3    H257425   6.409   2.509   0.897  0.7296  0.5258 -0.6403
12004TIP3   OH257426   0.893   4.290  16.572  0.0828 -0.1163 -0.4535
12004TIP3    H157427   0.825   4.330  16.519  1.7701  1.8847 -1.2112
12004TIP3    H257428   0.919   4.212  16.523 -0.8083 -0.2449 -0.7418
12005TIP3   OH257429   3.416   1.107   5.824 -0.6390 -0.0952 -0.6791
12005TIP3    H157430   3.368   1.025   5.839  0.2837 -0.7424 -1.1501
12005TIP3    H257431   3.410   1.154   5.907  0.8658 -1.7417  0.4354
12006TIP3   OH257432   5.323   4.301  14.301  0.9021  0.0721 -0.0395
12006TIP3    H157433   5.399   4.345  14.263  2.1427 -2.0694 -0.1485
12006TIP3    H257434   5.259   4.299  14.230  1.1840  0.8320 -0.3241
12007TIP3   OH257435   5.968   4.762  17.119  0.4219 -0.1268 -0.4250
12007TIP3    H157436   6.024   4.704  17.171  0.2544 -0.6622 -0.8392
12007TIP3    H257437   5.989   4.741  17.028 -1.0353 -0.9358 -0.6058
12008TIP3   OH257438   1.076   0.808   3.466  0.4993  0.1214  0.4171
12008TIP3    H157439   1.152   0.790   3.522  1.4705 -1.4623 -1.2907
12008TIP3    H257440   1.025   0.727   3.469  0.5445  0.0277 -0.8966
12009TIP3   OH257441   0.363   0.954   2.401  0.9618  0.4125  0.3752
12009TIP3    H157442   0.380   0.866   2.366 -0.4950  0.1159  0.3539
12009TIP3    H257443   0.327   1.003   2.327  0.0814  0.4885  0.8421
12010TIP3   OH257444   3.303   3.692  15.896 -0.1077  0.5940 -0.1003
12010TIP3    H157445   3.257   3.773  15.874  0.2063  1.0556  0.8954
12010TIP3    H257446   3.346   3.667  15.814 -0.4146  1.2891 -0.4881
12011TIP3   OH257447   4.027   4.968   2.701 -0.1463  0.0210  0.4043
12011TIP3    H157448   3.946   4.955   2.651  0.1866 -0.5177 -0.0056
12011TIP3    H257449   4.084   4.896   2.673  0.0712 -0.2544  1.5039
12012TIP3   OH257450   3.155   2.515  11.580 -0.1888 -0.0692 -0.4814
12012TIP3    H157451   3.139   2.426  11.612  0.9715 -0.4218 -0.8355
12012TIP3    H257452   3.183   2.564  11.657  0.2697 -0.3036 -0.4979
12013TIP3   OH257453   6.239   5.000   3.045 -0.8139  0.3427 -0.2511
12013TIP3    H157454   6.158   5.035   3.082 -1.3995 -0.5558 -0.6507
12013TIP3    H257455   6.215   4.914   3.011  0.9413 -1.2781  2.2647
12014TIP3   OH257456   1.534   4.059   6.688 -0.2031 -0.2427  0.1053
12014TIP3    H157457   1.497   4.121   6.625 -1.9977 -0.0186  1.3234
12014TIP3    H257458   1.478   3.982   6.680 -0.4736 -0.1972  1.4446
12015TIP3   OH257459   4.396   4.226   3.866  0.1508 -0.2181  0.4687
12015TIP3    H157460   4.340   4.201   3.792  1.0641 -2.7888  0.5202
12015TIP3    H257461   4.367   4.170   3.938 -0.4022  1.9117  1.9684
12016TIP3   OH257462   4.390   5.458  12.766  0.0308 -0.0829  0.1071
12016TIP3    H157463   4.458   5.522  12.789  0.0904 -0.2093  0.2818
12016TIP3    H257464   4.439   5.385  12.727 -0.2124  1.0032 -2.4249
12017TIP3   OH257465   2.377   4.322  15.663  0.6382 -0.2834 -0.3226
12017TIP3    H157466   2.285   4.308  15.639  0.2185  0.8675  0.5477
12017TIP3    H257467   2.389   4.417  15.658  0.9529 -0.1029  2.4263
12018TIP3   OH257468   2.522   6.580   3.825  0.3815  0.2014 -0.0320
12018TIP3    H157469   2.443   6.590   3.879 -0.3514 -0.6348 -0.9130
12018TIP3    H257470   2.507   6.636   3.749  0.2970 -0.5263 -0.5596
12019TIP3   OH257471   6.546   5.900  11.712 -0.2919 -0.2308  0.1786
12019TIP3    H157472   6.453   5.914  11.694 -0.2702 -1.1377 -0.7387
12019TIP3    H257473   6.564   5.813  11.677  0.7588 -0.3304  0.9323
12020TIP3   OH257474   1.722   4.346  15.411 -0.9492  0.3210 -0.2813
12020TIP3    H157475   1.659   4.275  15.401 -2.2030  1.0925  1.5430
12020TIP3    H257476   1.735   4.352  15.506  0.3783  1.4806 -0.5099
12021TIP3   OH257477   0.091   3.406  15.412  0.0024  0.4982 -0.1310
12021TIP3    H157478   0.166   3.357  15.379 -0.6882 -2.1295  1.8087
12021TIP3    H257479   0.128   3.476  15.465  1.1229 -0.5723  0.5406
12022TIP3   OH257480   1.987   3.561   2.779 -0.2992 -0.0946 -0.9705
12022TIP3    H157481   2.070   3.522   2.806 -0.1406  1.3002  0.7714
12022TIP3    H257482   1.924   3.533   2.846 -0.8166  0.2487 -1.3060
12023TIP3   OH257483   0.220   5.206  15.621  0.0269 -0.2320  0.0207
12023TIP3    H157484   0.308   5.171  15.607 -0.0274 -0.3973  0.0883
12023TIP3    H257485   0.162   5.129  15.617 -0.1062 -0.1350  0.0512
12024TIP3   OH257486   2.505   4.636   4.383  0.1076  0.0954 -0.0243
12024TIP3    H157487   2.499   4.552   4.336 -1.3724  0.6043 -0.8013
12024TIP3    H257488   2.545   4.695   4.319  0.2358  0.2308  0.1819
12025TIP3   OH257489   2.321   2.852   4.172  0.1240  0.0973 -0.7008
12025TIP3    H157490   2.375   2.834   4.249  1.9008 -0.4059 -1.9794
12025TIP3    H257491   2.347   2.940   4.145 -0.0300  0.0363 -1.0561
12026TIP3   OH257492   0.103   3.235   5.308  0.3102  0.1074 -0.5322
12026TIP3    H157493   0.131   3.144   5.310  1.9624  0.5946 -0.0672
12026TIP3    H257494   0.009   3.231   5.291  0.3275 -1.6795 -0.3582
12027TIP3   OH257495   2.066   0.122   4.067 -0.3213 -0.4532  0.1875
12027TIP3    H157496   2.032   0.178   4.137  0.7538 -0.2469  0.5639
12027TIP3    H257497   2.048   0.033   4.098 -1.8623 -0.3595 -0.3275
12028TIP3   OH257498   6.481   3.965  12.382  0.0607  0.3939  0.3733
12028TIP3    H157499   6.543   4.013  12.328  2.2520 -1.4660  1.0811
12028TIP3    H257500   6.427   3.917  12.319  1.5845 -0.5623 -0.2722
12029TIP3   OH257501   0.690   0.945   4.813  0.0753 -0.1699 -0.1846
12029TIP3    H157502   0.684   0.930   4.719 -0.4137  1.2522 -0.4071
12029TIP3    H257503   0.613   0.998   4.834 -0.4296 -1.3780  1.2270
12030TIP3   OH257504   1.483   4.278   6.485  0.4268  0.0088 -0.4863
12030TIP3    H157505   1.473   4.374   6.481  1.2644  0.2186  1.4242
12030TIP3    H257506   1.436   4.246   6.408 -0.5497  1.9048 -0.7374
12031TIP3   OH257507   5.987   6.665   1.974  0.5764  0.3622 -0.3465
12031TIP3    H157508   6.079   6.660   1.948  0.6659 -0.3101  0.0584
12031TIP3    H257509   5.958   6.751   1.945  1.0973  0.2478 -1.2516
12032TIP3   OH257510   4.282   6.038   0.528  0.0444  0.0269 -0.1704
12032TIP3    H157511   4.201   6.017   0.575  0.2229  0.6778  0.4439
12032TIP3    H257512   4.259   6.031   0.435 -0.6414 -0.0563  0.0038
12033TIP3   OH257513   5.610   4.624  11.208  0.4954 -0.2158 -0.3873
12033TIP3    H157514   5.560   4.551  11.173  0.9274 -0.4653 -0.4944
12033TIP3    H257515   5.560   4.654  11.284 -0.0557 -0.1549 -0.7678
12034TIP3   OH257516   3.111   6.374   1.996 -0.4081  0.2346  0.2140
12034TIP3    H157517   3.115   6.464   2.030  1.5925 -0.3030  1.5733
12034TIP3    H257518   3.199   6.357   1.962 -0.7740 -1.1918 -0.0717
12035TIP3   OH257519   6.661   6.330   3.927  0.2885 -0.1459 -0.1595
12035TIP3    H157520   6.650   6.255   3.868 -1.2697 -0.6022  0.6613
12035TIP3    H257521   6.742   6.311   3.974  0.7912 -0.4784 -1.1253
12036TIP3   OH257522   2.306   1.693  14.037 -0.3812 -0.4033 -0.6837
12036TIP3    H157523   2.217   1.669  14.011 -0.8052  0.5131 -0.1059
12036TIP3    H257524   2.296   1.734  14.122  0.5244  0.2644 -0.8884
12037TIP3   OH257525   6.580   3.290  14.636 -0.2036 -0.0639 -0.1993
12037TIP3    H157526   6.488   3.278  14.614  0.3208 -1.7318 -1.6916
12037TIP3    H257527   6.600   3.380  14.610 -1.5234  0.5091  0.6816
12038TIP3   OH257528   4.463   1.844  14.142 -0.4040  0.1139  0.2418
12038TIP3    H157529   4.370   1.821  14.134 -0.4758  0.6758 -0.7331
12038TIP3    H257530   4.509   1.770  14.102 -0.5218  0.5579 -0.7461
12039TIP3   OH257531   2.068   2.096   2.876  0.1072 -0.4752  0.3978
12039TIP3    H157532   2.026   2.063   2.797  0.4539 -0.5132  0.2287
12039TIP3    H257533   1.997   2.105   2.939 -0.5740  1.7437 -0.6047
12040TIP3   OH257534   2.189   0.676  10.887 -0.6326  0.8799 -0.9328
12040TIP3    H157535   2.284   0.680  10.894 -0.6743 -0.4294  1.1425
12040TIP3    H257536   2.171   0.588  10.854 -1.1433  1.4238 -2.1954
12041TIP3   OH257537   1.824   2.752   3.927 -0.5794 -0.0492 -0.1216
12041TIP3    H157538   1.834   2.786   4.016  2.0592 -1.7238  0.3365
12041TIP3    H257539   1.800   2.829   3.875 -1.0167  1.2064  1.8125
12042TIP3   OH257540   2.441   2.649   0.907 -0.0957 -0.2509 -0.0205
12042TIP3    H157541   2.416   2.565   0.948 -0.1916 -0.1358  0.1586
12042TIP3    H257542   2.527   2.632   0.868 -0.7130 -0.8382 -1.1877
12043TIP3   OH257543   1.848   3.727  15.245  0.1788  0.0208  0.2034
12043TIP3    H157544   1.865   3.735  15.151  0.3244 -0.1600  0.2139
12043TIP3    H257545   1.812   3.639  15.255  0.2019  0.0249  0.3221
12044TIP3   OH257546   3.353   5.716  14.040  0.4758 -0.1517 -0.0988
12044TIP3    H157547   3.379   5.681  14.125 -1.5960 -3.6414 -0.7056
12044TIP3    H257548   3.409   5.670  13.977  0.5693  0.8382 -0.7676
12045TIP3   OH257549   3.859   0.790   3.092 -0.1552  0.0155 -0.2412
12045TIP3    H157550   3.816   0.719   3.140 -1.6186  0.9531 -0.0927
12045TIP3    H257551   3.872   0.859   3.157 -0.1939  0.4780 -0.7146
12046TIP3   OH257552   5.737   5.788   4.379  0.0012 -0.2899  0.1666
12046TIP3    H157553   5.678   5.715   4.361  2.2559 -1.8824 -1.3033
12046TIP3    H257554   5.775   5.768   4.465 -0.3753 -0.1009  0.3820
12047TIP3   OH257555   3.977   0.518   4.296 -0.1489  0.2002 -0.1888
12047TIP3    H157556   3.974   0.449   4.363 -0.3740  0.2940 -0.1000
12047TIP3    H257557   4.065   0.512   4.258  0.9604  1.8954  1.9379
12048TIP3   OH257558   3.101   6.442   0.644 -0.0336  0.1201 -0.0839
12048TIP3    H157559   3.050   6.479   0.716 -0.3019 -0.7607  0.1854
12048TIP3    H257560   3.146   6.367   0.682 -1.4842 -1.3757 -1.1909
12049TIP3   OH257561   3.234   4.852   0.078 -0.7503 -0.0543 -0.0788
12049TIP3    H157562   3.232   4.876   0.171  0.4964  0.5989 -0.1905
12049TIP3    H257563   3.193   4.925   0.033  0.1581  0.4187 -0.1618
12050TIP3   OH257564   4.826   0.889   0.576  0.0998 -0.0688  0.3676
12050TIP3    H157565   4.902   0.907   0.632 -0.9247 -2.9696  3.0641
12050TIP3    H257566   4.752   0.921   0.626 -0.8136 -2.2037  0.5085
12051TIP3   OH257567   2.906   2.318   0.056  0.4916  0.0021  0.2162
12051TIP3    H157568   2.835   2.383   0.060 -0.3310 -0.7397 -1.3138
12051TIP3    H257569   2.986   2.370   0.066 -0.1938  1.0897  0.2837
12052TIP3   OH257570   2.202   6.624  13.990  0.1057 -0.3952 -0.0028
12052TIP3    H157571   2.179   6.679  13.915  1.3516  0.3643  0.1429
12052TIP3    H257572   2.144   6.653  14.060  2.2140  2.4448  0.7728
12053TIP3   OH257573   0.548   2.498   3.321  0.5628 -0.0284 -0.7462
12053TIP3    H157574   0.516   2.533   3.405  0.4161 -1.1955 -0.2887
12053TIP3    H257575   0.556   2.574   3.265 -0.4168  0.6481 -0.0123
12054TIP3   OH257576   6.600   3.346  10.627 -0.0577  0.4443 -0.3876
12054TIP3    H157577   6.663   3.367  10.557  0.4408  0.0227 -0.0718
12054TIP3    H257578   6.561   3.430  10.650 -0.8524  0.4839 -1.7545
12055TIP3   OH257579   4.360   2.818   1.318  0.2420  0.7635  0.2891
12055TIP3    H157580   4.412   2.834   1.239  2.3844  0.9371  1.6472
12055TIP3    H257581   4.313   2.737   1.300  0.4602  0.9556 -1.2596
12056TIP3   OH257582   0.802   0.011  14.589 -0.1865 -0.5212  0.0541
12056TIP3    H157583   0.739  -0.050  14.550 -0.7457 -0.3118  0.6123
12056TIP3    H257584   0.766   0.098  14.570 -0.7836 -0.4211  1.5271
12057TIP3   OH257585   0.206   4.313  15.468 -0.6217  0.4247 -0.2573
12057TIP3    H157586   0.197   4.330  15.562 -0.4517  2.3001 -0.5461
12057TIP3    H257587   0.231   4.397  15.431  0.8891 -0.6354 -1.7985
12058TIP3   OH257588   1.051   2.804  16.677 -0.1534 -0.1691  0.6745
12058TIP3    H157589   0.990   2.875  16.655  1.1464  0.0559 -3.0649
12058TIP3    H257590   1.130   2.849  16.707  0.2784 -0.0096 -0.6170
12059TIP3   OH257591   3.324   6.334   0.912 -0.4230  0.1478 -0.1692
12059TIP3    H157592   3.387   6.398   0.945 -0.1367 -0.1379 -0.1558
12059TIP3    H257593   3.358   6.310   0.825  1.1457 -2.1800  0.9584
12060TIP3   OH257594   6.666   5.510   3.185  0.3684  0.1559 -0.1591
12060TIP3    H157595   6.716   5.537   3.262 -0.2579  1.3943 -0.1561
12060TIP3    H257596   6.577   5.542   3.202 -0.0049 -0.4114 -0.9640
12061TIP3   OH257597   2.081   0.676  15.134 -0.0816 -0.2274 -0.2815
12061TIP3    H157598   2.113   0.589  15.112  0.0142  0.3938 -3.0263
12061TIP3    H257599   2.093   0.684  15.228  0.9659 -2.7351 -0.1424
12062TIP3   OH257600   4.529   4.804   3.485 -0.5150  0.1556 -0.8435
12062TIP3    H157601   4.481   4.732   3.527  0.9208 -0.0413  0.5520
12062TIP3    H257602   4.463   4.850   3.433 -2.0072 -0.6320  0.2853
12063TIP3   OH257603   5.437   1.083  15.645 -0.2541 -0.7317  0.2399
12063TIP3    H157604   5.384   1.153  15.684  0.8793 -0.6038  1.6380
12063TIP3    H257605   5.390   1.059  15.566 -0.6123  1.7306 -0.3994
12064TIP3   OH257606   3.851   5.806  16.213  0.1436  0.1877  0.1875
12064TIP3    H157607   3.897   5.881  16.176 -0.6705  0.4480 -0.3142
12064TIP3    H257608   3.832   5.750  16.137 -0.7777  0.3108  0.3188
12065TIP3   OH257609   0.544   6.198   0.654  0.7862  0.0994  0.3177
12065TIP3    H157610   0.586   6.282   0.638 -0.2331  1.1222  2.5268
12065TIP3    H257611   0.454   6.210   0.623  0.0551  0.6031  2.4764
12066TIP3   OH257612   0.019   3.859  11.158  0.2185  0.2227  0.1727
12066TIP3    H157613  -0.039   3.878  11.084  0.1505  3.4395  0.8777
12066TIP3    H257614  -0.039   3.857  11.234  0.3505 -2.6100  0.2924
12067TIP3   OH257615   1.595   2.712  15.028 -0.1330  0.1393 -0.3668
12067TIP3    H157616   1.527   2.772  15.060 -1.6382 -1.6731  0.0108
12067TIP3    H257617   1.560   2.625  15.045  1.0913 -0.9013 -2.7284
12068TIP3   OH257618   1.577   4.766  10.854 -0.2862 -0.1936  0.3698
12068TIP3    H157619   1.625   4.840  10.891  0.0159 -0.0046 -0.3935
12068TIP3    H257620   1.645   4.703  10.830 -0.5455 -0.7597  1.0788
12069TIP3   OH257621   2.983   4.060  11.989  0.2416  0.7497 -0.0999
12069TIP3    H157622   2.921   3.987  11.989  0.9665  0.0719  1.4011
12069TIP3    H257623   2.930   4.138  11.974 -0.5433 -0.0803 -1.8021
12070TIP3   OH257624   5.544   6.590   2.611  0.0400 -0.2427  0.4049
12070TIP3    H157625   5.483   6.517   2.601  0.2381 -0.4161  0.4737
12070TIP3    H257626   5.545   6.632   2.525 -0.5658  0.0677  0.5391
12071TIP3   OH257627   4.191   3.201  11.791  0.5367 -1.0066 -0.1939
12071TIP3    H157628   4.102   3.233  11.803  1.1137  0.1769  1.4264
12071TIP3    H257629   4.182   3.118  11.745 -1.2081  0.3584 -2.5005
12072TIP3   OH257630   6.661   3.014  15.419  0.2953 -0.0107  0.1648
12072TIP3    H157631   6.625   2.936  15.377  0.5202  0.4677 -0.9497
12072TIP3    H257632   6.648   3.084  15.354  2.1412  0.4209  0.2115
12073TIP3   OH257633   4.750   3.389   5.792 -0.1880  0.2369  0.1950
12073TIP3    H157634   4.755   3.435   5.876 -1.1896  0.1909  0.2926
12073TIP3    H257635   4.804   3.311   5.805  0.5926  0.8064  0.4081
12074TIP3   OH257636   0.155   3.268   2.967 -0.1296  0.0297 -0.1404
12074TIP3    H157637   0.180   3.303   2.881 -0.9872 -1.0437 -0.8445
12074TIP3    H257638   0.218   3.198   2.983 -1.9377 -2.0109 -1.4622
12075TIP3   OH257639   3.196   3.320   3.805  0.2061 -0.1019 -0.5588
12075TIP3    H157640   3.114   3.345   3.847  0.3786 -2.0144  1.0863
12075TIP3    H257641   3.170   3.267   3.730 -0.0551  0.7766 -1.1086
12076TIP3   OH257642   6.107   1.031   1.412 -0.1190  0.1038  0.0404
12076TIP3    H157643   6.065   1.071   1.488  1.7037 -0.5771  1.4974
12076TIP3    H257644   6.118   0.939   1.437  0.1388 -0.2256 -1.2214
12077TIP3   OH257645   0.356   3.084  14.759  0.2271  1.0744  0.0158
12077TIP3    H157646   0.280   3.034  14.789 -0.2131  0.2087 -2.2903
12077TIP3    H257647   0.319   3.152  14.703  1.0977  0.6534 -1.1185
12078TIP3   OH257648   3.831   0.965   0.356  0.0584 -0.2873 -0.3735
12078TIP3    H157649   3.738   0.941   0.365 -0.1536  0.7364  0.2684
12078TIP3    H257650   3.853   1.009   0.438  1.8007 -2.6096  0.5418
12079TIP3   OH257651   0.818   4.267   1.986  0.6221  0.8935 -0.1706
12079TIP3    H157652   0.754   4.221   1.932  0.5566  0.9542 -0.1437
12079TIP3    H257653   0.770   4.293   2.064  0.5375  1.4368 -0.4019
12080TIP3   OH257654   1.813   2.638  17.088 -0.1468  0.4121  0.0974
12080TIP3    H157655   1.735   2.609  17.135  0.5777  3.5020  3.7184
12080TIP3    H257656   1.883   2.584  17.124 -0.3826 -2.6330 -3.4262
12081TIP3   OH257657   1.074   1.344   1.649  0.4175 -0.1569  1.1571
12081TIP3    H157658   1.162   1.305   1.650  0.5617  0.0672 -0.5145
12081TIP3    H257659   1.091   1.438   1.656  0.4082 -0.0178 -0.4325
12082TIP3   OH257660   6.523   2.856  15.215  0.1958  0.1349  0.3004
12082TIP3    H157661   6.601   2.840  15.162  1.0479  1.1414  1.1987
12082TIP3    H257662   6.471   2.776  15.205  1.2303 -0.4709 -0.4968
12083TIP3   OH257663   4.267   0.451   6.207  0.2446 -0.4601  0.4899
12083TIP3    H157664   4.246   0.467   6.299 -0.1663 -0.2233  0.3553
12083TIP3    H257665   4.302   0.361   6.205 -1.8128 -1.3069  0.5522
12084TIP3   OH257666   3.022   1.731   1.009  0.3297 -0.8129 -0.2001
12084TIP3    H157667   3.098   1.719   0.952  1.3455  0.9910  0.7009
12084TIP3    H257668   3.031   1.662   1.075  0.5766 -1.2965 -0.7328
12085TIP3   OH257669   6.637   6.196  13.521  0.2680  0.2291 -0.0039
12085TIP3    H157670   6.710   6.137  13.503  1.0260  0.8488  0.9160
12085TIP3    H257671   6.658   6.235  13.606 -1.7470 -0.4883  0.8862
12086TIP3   OH257672   5.835   1.022  10.988 -0.6632 -0.4987 -0.1340
12086TIP3    H157673   5.907   1.050  10.932 -1.0355 -1.4826 -1.1278
12086TIP3    H257674   5.756   1.037  10.936 -1.2523  1.0383  1.1279
12087TIP3   OH257675   3.479   5.132   0.873  0.0327 -0.1082 -0.1921
12087TIP3    H157676   3.543   5.154   0.806 -0.5826  0.9086 -0.4667
12087TIP3    H257677   3.527   5.080   0.937  1.1879  0.8020 -0.2924
12088TIP3   OH257678   3.400   0.093  17.044  0.4786  0.4221  0.4083
12088TIP3    H157679   3.387  -0.000  17.062  1.4504 -0.4889 -2.8894
12088TIP3    H257680   3.485   0.113  17.083  0.9165 -0.4854 -0.0442
12089TIP3   OH257681   5.532   4.309   5.027  0.0821  0.0078 -0.1614
12089TIP3    H157682   5.490   4.393   5.007  1.9483  0.4532 -2.6469
12089TIP3    H257683   5.609   4.331   5.079  0.8648 -0.0533 -1.2537
12090TIP3   OH257684   1.697   1.354  15.346 -0.6033 -0.0092  0.1390
12090TIP3    H157685   1.684   1.402  15.428 -0.0486  1.1378 -0.4095
12090TIP3    H257686   1.614   1.365  15.298 -0.0273  1.6217 -0.5585
12091TIP3   OH257687   1.376   4.864   0.131  0.4650  0.4253  0.7112
12091TIP3    H157688   1.281   4.875   0.135  0.4961  0.2991  2.2849
12091TIP3    H257689   1.389   4.797   0.064 -0.5202  0.7226  0.1905
12092TIP3   OH257690   5.949   2.013  15.488 -0.6019 -0.1438 -0.0492
12092TIP3    H157691   6.014   2.020  15.418  0.8465  0.4371  1.2847
12092TIP3    H257692   5.917   2.103  15.500  1.8336  0.5212  2.3819
12093TIP3   OH257693   4.025   4.294   1.696  0.4495  0.0713 -0.2622
12093TIP3    H157694   3.944   4.345   1.688  0.6188  0.5908  1.1391
12093TIP3    H257695   3.995   4.203   1.702  0.0403  0.1622 -0.7973
12094TIP3   OH257696   6.131   5.483  14.197  0.2795 -0.1961 -0.5020
12094TIP3    H157697   6.132   5.552  14.130 -0.1068 -0.2868 -0.6012
12094TIP3    H257698   6.158   5.404  14.151  2.6033  0.2353  0.0118
12095TIP3   OH257699   0.475   6.503  14.024  0.3182  0.2860  0.4668
12095TIP3    H157700   0.539   6.529  13.957 -0.2844  1.4302  0.3140
12095TIP3    H257701   0.399   6.558  14.007 -1.4178 -2.1754 -0.4159
12096TIP3   OH257702   2.678   5.464  15.827 -0.3243 -0.2626 -0.0490
12096TIP3    H157703   2.721   5.419  15.754  0.3184  0.4432 -0.1158
12096TIP3    H257704   2.624   5.531  15.785  2.3250  2.1788  0.1358
12097TIP3   OH257705   1.733   3.655   4.549 -0.3043  0.1709 -0.3262
12097TIP3    H157706   1.825   3.646   4.526 -0.1402 -1.2829  0.7463
12097TIP3    H257707   1.715   3.580   4.605 -1.6326  1.4804  1.1080
12098TIP3   OH257708   3.712   4.503  15.025  0.1837  0.1814 -0.1561
12098TIP3    H157709   3.760   4.570  15.072  0.3487  1.3106 -1.8302
12098TIP3    H257710   3.775   4.432  15.011  0.5709  0.5028 -0.0402
12099TIP3   OH257711   5.397   2.501   0.244  0.0347 -0.1773 -0.5678
12099TIP3    H157712   5.452   2.579   0.246 -0.1908 -0.0226  0.4683
12099TIP3    H257713   5.318   2.529   0.197 -0.1996  0.3386  0.1114
12100TIP3   OH257714   2.435   0.305   3.525  0.7972  0.4584 -0.2149
12100TIP3    H157715   2.438   0.346   3.611  0.8879 -2.0976  1.0884
12100TIP3    H257716   2.502   0.236   3.529 -0.8845 -1.3330 -1.4178
12101TIP3   OH257717   0.831   3.735  14.274 -0.1717  0.1592  0.4934
12101TIP3    H157718   0.786   3.730  14.358  0.4411  1.9799  0.9792
12101TIP3    H257719   0.924   3.727  14.296 -0.0406  0.1489 -0.0617
12102TIP3   OH257720   5.880   5.247   1.676 -0.1037  0.3734 -0.6907
12102TIP3    H157721   5.828   5.300   1.736 -1.3383  1.0724 -2.2776
12102TIP3    H257722   5.881   5.160   1.715 -1.9636  0.4965 -0.2590
12103TIP3   OH257723   4.357   1.480  15.823 -0.2342  0.1292 -0.0542
12103TIP3    H157724   4.349   1.387  15.804  0.4707  0.0477  0.0408
12103TIP3    H257725   4.266   1.511  15.828 -0.4920 -0.6950  0.6462
12104TIP3   OH257726   6.118   1.880  16.824 -0.1399 -0.0336  0.1461
12104TIP3    H157727   6.126   1.787  16.841  1.1443 -0.0543 -0.4307
12104TIP3    H257728   6.198   1.903  16.777 -0.0511  1.5232  0.9838
12105TIP3   OH257729   6.767   2.760   1.986  0.6758  0.1704 -0.1680
12105TIP3    H157730   6.861   2.760   2.006  0.4369  1.3921  1.0871
12105TIP3    H257731   6.726   2.728   2.067  0.0861 -2.6226 -1.4416
12106TIP3   OH257732   5.727   6.385  15.378 -0.1584 -0.6138  0.2968
12106TIP3    H157733   5.678   6.440  15.317 -2.6727 -1.8690  1.0198
12106TIP3    H257734   5.740   6.440  15.455  0.4583  0.0450 -0.2622
12107TIP3   OH257735   0.243   0.299  16.041  0.4061  0.1280  0.5598
12107TIP3    H157736   0.189   0.316  16.118 -1.4810 -1.7919 -0.2397
12107TIP3    H257737   0.181   0.270  15.975  2.3158 -1.0320 -0.7929
12108TIP3   OH257738   2.712   0.105   4.518  0.4966  0.1738  0.0483
12108TIP3    H157739   2.754   0.144   4.441 -2.6427  1.0590 -1.4018
12108TIP3    H257740   2.681   0.020   4.487  1.9556 -0.8955  1.3782
12109TIP3   OH257741   5.439   5.311  12.932  0.7560  0.1541 -0.7872
12109TIP3    H157742   5.450   5.401  12.963  0.8878 -0.1231 -0.0108
12109TIP3    H257743   5.411   5.320  12.841 -0.5649  0.9954 -0.3215
12110TIP3   OH257744   4.205   3.684   1.496  0.0417  0.2761  0.0665
12110TIP3    H157745   4.193   3.608   1.440 -1.2899  0.4625  0.0614
12110TIP3    H257746   4.126   3.736   1.483  0.1842  0.8472  1.2966
12111TIP3   OH257747   1.224   6.488   3.012  0.3775  0.4037  0.3835
12111TIP3    H157748   1.193   6.406   3.049 -1.2255  0.4158 -0.8022
12111TIP3    H257749   1.319   6.480   3.009  0.2545 -1.3156  0.5074
12112TIP3   OH257750   6.210   1.820  14.940 -0.3563 -0.0230 -0.4077
12112TIP3    H157751   6.277   1.819  15.008 -0.3566 -0.1172 -0.4079
12112TIP3    H257752   6.250   1.867  14.867 -0.3854  0.1499 -0.3115
12113TIP3   OH257753   1.117   1.819   3.381 -1.3464  0.1259 -0.5114
12113TIP3    H157754   1.125   1.769   3.462 -0.7732  3.1688  1.5062
12113TIP3    H257755   1.023   1.818   3.361 -1.7329  0.5444  1.1237
12114TIP3   OH257756   2.646   3.858   0.498 -0.5144  0.1192 -0.4414
12114TIP3    H157757   2.575   3.838   0.559  0.9745  1.9370  2.0969
12114TIP3    H257758   2.605   3.911   0.429 -2.1543 -1.5274 -0.7869
12115TIP3   OH257759   6.284   1.900  14.686  0.0277 -0.1772  0.0046
12115TIP3    H157760   6.300   1.805  14.692  0.7372 -0.0274  0.7874
12115TIP3    H257761   6.236   1.911  14.605  1.5779 -1.0120 -1.0922
12116TIP3   OH257762   5.367   4.040  15.410  0.0912  0.0993 -0.1531
12116TIP3    H157763   5.334   4.050  15.499 -2.4037 -1.2197 -0.8124
12116TIP3    H257764   5.338   4.119  15.364 -0.1867 -0.0261 -0.1957
12117TIP3   OH257765   5.057   5.233   5.534  0.1388  0.2707  0.2285
12117TIP3    H157766   5.104   5.150   5.529 -0.9327 -0.2986 -1.5361
12117TIP3    H257767   5.125   5.300   5.522  0.8432 -0.4084  0.3534
12118TIP3   OH257768   6.550   6.080  12.489  0.0308 -0.2400  0.7863
12118TIP3    H157769   6.483   6.114  12.429  0.3869 -3.3728 -1.6742
12118TIP3    H257770   6.501   6.037  12.558 -0.4259  0.8146  1.1332
12119TIP3   OH257771   4.641   2.663  12.899  0.3535 -0.5645 -0.7213
12119TIP3    H157772   4.606   2.751  12.911  1.1371 -0.4925  1.4107
12119TIP3    H257773   4.711   2.655  12.964  0.3056 -2.7493 -0.8455
12120TIP3   OH257774   6.610   2.710  17.100 -0.1950  0.0734  0.5113
12120TIP3    H157775   6.698   2.712  17.061 -0.5680  2.7739 -0.4162
12120TIP3    H257776   6.620   2.757  17.183 -0.6346 -0.2596  0.7580
12121TIP3   OH257777   6.685   6.571   6.424 -0.2593 -0.7238  0.1242
12121TIP3    H157778   6.639   6.604   6.347 -0.6847  0.1643  0.7230
12121TIP3    H257779   6.751   6.638   6.442 -0.6709 -0.5243  0.9567
12122TIP3   OH257780   4.156   2.609   2.897 -0.4385 -0.3430  0.2224
12122TIP3    H157781   4.080   2.552   2.907 -1.0165  0.4615  0.5676
12122TIP3    H257782   4.182   2.630   2.987 -0.4484  0.2068  0.1020
12123TIP3   OH257783   1.777   2.254   3.226 -0.2465 -0.0402  0.1685
12123TIP3    H157784   1.725   2.250   3.146 -0.3784 -0.4711  0.2715
12123TIP3    H257785   1.742   2.329   3.274  0.1192  0.4892 -0.3673
12124TIP3   OH257786   2.586   3.277  15.830 -0.0462  0.2685 -0.2947
12124TIP3    H157787   2.526   3.345  15.799  1.9341  1.8782 -0.8179
12124TIP3    H257788   2.568   3.202  15.774 -0.1169  1.4145 -1.8780
12125TIP3   OH257789   3.070   4.356  11.317  0.3683 -0.1376  0.3256
12125TIP3    H157790   3.019   4.296  11.262 -0.3902  1.4404 -0.7692
12125TIP3    H257791   3.157   4.315  11.323 -0.2793 -1.6104  0.1030
12126TIP3   OH257792   3.160   3.814  10.513  0.4113 -0.9469  0.5407
12126TIP3    H157793   3.188   3.821  10.422 -0.1182 -1.3144  0.3443
12126TIP3    H257794   3.068   3.839  10.512  0.7141  0.2711  1.1820
12127TIP3   OH257795   5.886   5.637  14.413 -0.3075 -0.1962 -0.3454
12127TIP3    H157796   5.801   5.662  14.448  0.0227  0.2484  0.1559
12127TIP3    H257797   5.870   5.555  14.365 -0.7066 -1.0787  1.2254
12128TIP3   OH257798   2.104   5.539   3.860 -0.3013 -0.5869  0.1130
12128TIP3    H157799   2.033   5.530   3.797  0.5728  0.9925 -1.1779
12128TIP3    H257800   2.061   5.553   3.944 -1.5258  1.0120 -0.7541
12129TIP3   OH257801   5.293   4.440   2.155 -0.2301  0.5134 -0.5443
12129TIP3    H157802   5.227   4.381   2.118  0.5809  1.0342 -2.9551
12129TIP3    H257803   5.351   4.382   2.205  0.1261 -0.6766 -2.2555
12130TIP3   OH257804   2.086   1.511   2.005 -0.2290  0.3630 -0.1300
12130TIP3    H157805   2.079   1.426   1.962  0.8945 -0.1146  0.5815
12130TIP3    H257806   1.995   1.534   2.026 -0.5719 -0.5628 -0.5144
12131TIP3   OH257807   0.607   1.863   0.504 -0.2227 -0.2169  0.0672
12131TIP3    H157808   0.547   1.929   0.537 -0.9719 -0.6412 -0.4247
12131TIP3    H257809   0.691   1.909   0.494  0.0629 -0.0714  2.5594
12132TIP3   OH257810   4.968   2.815  15.819 -0.1796 -0.0647  0.3160
12132TIP3    H157811   4.889   2.814  15.874 -2.1071  0.2167 -2.2475
12132TIP3    H257812   4.969   2.903  15.781  0.9683 -0.3125 -0.2545
12133TIP3   OH257813   2.236   4.412  12.047  0.0396  0.0512 -0.4009
12133TIP3    H157814   2.206   4.325  12.074  2.2006 -0.4636  0.5008
12133TIP3    H257815   2.162   4.470  12.068 -0.2915 -1.1112  1.9067
12134TIP3   OH257816   0.479   2.882  12.392 -0.7575  0.1676 -0.0336
12134TIP3    H157817   0.574   2.891  12.394 -0.3677 -2.6577 -0.5391
12134TIP3    H257818   0.455   2.858  12.481 -0.6855 -0.9788 -0.2992
12135TIP3   OH257819   1.373   3.805   5.256  0.1947 -0.3412 -0.4277
12135TIP3    H157820   1.359   3.878   5.317 -4.0895 -0.7025 -0.6864
12135TIP3    H257821   1.442   3.836   5.197 -1.0705  3.3208 -0.2283
12136TIP3   OH257822   0.170   5.292   0.954  0.0434  0.5735  0.2398
12136TIP3    H157823   0.145   5.319   1.042 -0.4289  1.5827 -0.1908
12136TIP3    H257824   0.265   5.285   0.958  0.0375  0.7410  0.7989
12137TIP3   OH257825   2.264   4.195   0.112  0.6836 -0.2894 -0.0548
12137TIP3    H157826   2.256   4.179   0.206  1.2552  1.9731  0.4441
12137TIP3    H257827   2.212   4.274   0.096  1.5960  0.0917 -1.3892
12138TIP3   OH257828   3.487   4.390   6.343  0.1346 -0.1268 -0.4456
12138TIP3    H157829   3.532   4.354   6.267  3.2787 -0.9101  1.5771
12138TIP3    H257830   3.555   4.439   6.390 -1.3724 -0.5155  2.3500
12139TIP3   OH257831   4.189   4.745   5.166  0.1472 -0.2477  0.2318
12139TIP3    H157832   4.218   4.817   5.110  2.2388 -1.4301 -0.3078
12139TIP3    H257833   4.228   4.764   5.251 -0.1739 -0.2322  0.3792
12140TIP3   OH257834   3.824   2.050   5.464 -0.0448 -0.1028  0.1925
12140TIP3    H157835   3.775   2.021   5.541  1.7173 -0.7033  1.1408
12140TIP3    H257836   3.847   1.968   5.419 -0.9684  0.2375 -0.9418
12141TIP3   OH257837   0.794   3.307   0.357  0.2712 -0.0542  0.1807
12141TIP3    H157838   0.823   3.344   0.274  1.9048 -0.8362  0.3472
12141TIP3    H257839   0.728   3.242   0.333  0.5852 -0.1284 -0.4941
12142TIP3   OH257840   5.482   0.641   2.657  1.2097 -0.0354  0.0635
12142TIP3    H157841   5.555   0.637   2.596  0.6164 -0.6432 -0.6241
12142TIP3    H257842   5.514   0.696   2.728  2.1673  0.0972 -0.4456
12143TIP3   OH257843   5.865   4.058  11.400  0.5449  0.3076  0.4143
12143TIP3    H157844   5.850   3.976  11.446 -3.5582  0.9377  0.5805
12143TIP3    H257845   5.911   4.033  11.321  0.6781 -1.9455  1.1345
12144TIP3   OH257846   1.287   4.563   2.802  0.8538  0.8851 -0.3361
12144TIP3    H157847   1.247   4.599   2.723 -0.6630  0.4203  0.1835
12144TIP3    H257848   1.252   4.474   2.808 -0.4429  1.4596  1.7289
12145TIP3   OH257849   1.193   1.435  13.186  0.2380  0.2507  0.3096
12145TIP3    H157850   1.113   1.387  13.209  0.0490  0.0923 -0.6287
12145TIP3    H257851   1.193   1.436  13.090  1.9882 -0.8130  0.2492
12146TIP3   OH257852   0.584   3.684   0.126 -0.2233  0.0152 -0.2926
12146TIP3    H157853   0.556   3.771   0.099 -1.1746  0.0014  0.5907
12146TIP3    H257854   0.503   3.632   0.126  0.2409 -0.7267 -0.2620
12147TIP3   OH257855   2.104   3.315   4.186  0.3583 -0.5345 -0.1390
12147TIP3    H157856   2.136   3.404   4.197 -0.9634 -0.0841  0.3434
12147TIP3    H257857   2.027   3.310   4.243  0.8041 -2.2018  0.3613
12148TIP3   OH257858   5.134   1.496  11.682  0.4749  0.3374  0.9413
12148TIP3    H157859   5.173   1.409  11.684 -0.8402 -0.2753  0.8805
12148TIP3    H257860   5.078   1.497  11.604  0.6144  1.3018  0.8336
12149TIP3   OH257861   5.773   3.462  15.790 -0.1095  0.9982 -0.5038
12149TIP3    H157862   5.821   3.541  15.767  1.0965 -0.1047 -2.0248
12149TIP3    H257863   5.757   3.418  15.706 -1.0844 -0.1900  0.2594
12150TIP3   OH257864   5.014   5.324   6.528 -0.1042 -0.4585 -0.3417
12150TIP3    H157865   4.976   5.405   6.495  0.0621 -0.0738  0.3848
12150TIP3    H257866   4.946   5.258   6.515 -2.1200  0.6900  3.2438
12151TIP3   OH257867   5.721   4.842   3.262  0.5119  0.2066 -0.0354
12151TIP3    H157868   5.701   4.885   3.179 -1.8879 -0.4214  0.1515
12151TIP3    H257869   5.801   4.886   3.293  0.3914  1.7539 -1.7406
12152TIP3   OH257870   3.085   4.379   4.375  0.6616 -0.3339 -0.1826
12152TIP3    H157871   3.082   4.287   4.350 -1.2094  0.6794 -4.7916
12152TIP3    H257872   3.000   4.395   4.417 -0.1862 -0.2807 -1.8225
12153TIP3   OH257873   1.151   2.638  16.476 -0.1100 -0.3320  0.4569
12153TIP3    H157874   1.091   2.644  16.551 -1.2240 -3.1830 -0.1032
12153TIP3    H257875   1.222   2.581  16.507  0.6187  0.3291  0.0411
12154TIP3   OH257876   1.290   0.516  16.537 -0.3540 -0.0210 -0.3380
12154TIP3    H157877   1.353   0.465  16.588 -0.8977 -2.5088 -1.9351
12154TIP3    H257878   1.281   0.467  16.455 -1.6001  2.2804 -1.6639
12155TIP3   OH257879   3.597   3.180   3.066 -0.1555 -0.1231  0.2741
12155TIP3    H157880   3.519   3.136   3.101  0.1820 -0.9379  0.0209
12155TIP3    H257881   3.621   3.243   3.135 -0.5689 -0.4197  0.7028
12156TIP3   OH257882   0.208   5.304   0.368 -0.1259  0.1554  0.0158
12156TIP3    H157883   0.297   5.325   0.340 -0.5562  2.5844  0.2639
12156TIP3    H257884   0.213   5.300   0.464 -0.3289  0.5119  0.0418
12157TIP3   OH257885   4.505   6.440   3.240  0.9537  0.0555  0.1464
12157TIP3    H157886   4.485   6.505   3.307  0.6399  0.2626 -0.1482
12157TIP3    H257887   4.579   6.390   3.276  1.5333  0.8982  0.1515
12158TIP3   OH257888   4.773   5.786  11.596 -0.5705 -1.4246  0.1170
12158TIP3    H157889   4.771   5.753  11.686 -0.3371  1.0833  1.1352
12158TIP3    H257890   4.692   5.835  11.586  0.7359  0.8894  0.1017
12159TIP3   OH257891   3.363   1.143  12.940 -0.3868  0.7524  0.4747
12159TIP3    H157892   3.449   1.185  12.928 -0.7121  1.4669  0.6019
12159TIP3    H257893   3.317   1.200  13.002 -0.8204  0.1689  0.6961
12160TIP3   OH257894   4.416   4.380  11.580  0.0310  0.1608  0.1813
12160TIP3    H157895   4.353   4.416  11.518 -0.5650  1.1587  1.3255
12160TIP3    H257896   4.432   4.291  11.549 -1.7057 -0.0077 -0.3182
12161TIP3   OH257897   1.388   1.157  15.050  0.4362 -0.3532 -0.6304
12161TIP3    H157898   1.334   1.227  15.013 -1.4520 -0.7416  1.1772
12161TIP3    H257899   1.430   1.116  14.974 -0.9367  0.7062 -2.0275
12162TIP3   OH257900   1.924   4.754   0.538 -0.8997  0.0282 -0.3662
12162TIP3    H157901   1.995   4.693   0.557 -1.1615 -0.4013 -0.7580
12162TIP3    H257902   1.857   4.701   0.494 -0.1930  1.0361 -2.8036
12163TIP3   OH257903   5.638   2.541   4.951  0.3843 -0.3710 -0.7824
12163TIP3    H157904   5.675   2.493   4.877  1.9524 -0.8233  0.2259
12163TIP3    H257905   5.711   2.548   5.013 -0.8960 -0.0992  0.7558
12164TIP3   OH257906   6.091   6.121  11.212 -0.2213 -0.7477  0.4031
12164TIP3    H157907   6.175   6.077  11.222 -0.2958 -0.8065  0.7878
12164TIP3    H257908   6.110   6.197  11.157 -0.2658 -1.7759 -1.0968
12165TIP3   OH257909   5.692   3.876  12.460 -0.2733  0.1744  0.1250
12165TIP3    H157910   5.685   3.890  12.555 -0.5901 -0.8056  0.2589
12165TIP3    H257911   5.608   3.839  12.435 -1.3806  3.2235 -1.1007
12166TIP3   OH257912   1.233   1.211  13.671 -0.0784  0.1743  0.0301
12166TIP3    H157913   1.143   1.225  13.701 -0.1260  0.2405 -0.1429
12166TIP3    H257914   1.254   1.289  13.620 -0.1937 -0.1881 -0.5721
12167TIP3   OH257915   0.088   1.389  13.574  0.4005 -0.6577 -0.3782
12167TIP3    H157916   0.076   1.352  13.662  0.3974  0.2674  0.0255
12167TIP3    H257917   0.051   1.477  13.580  4.0950  1.0845 -0.0426
12168TIP3   OH257918   1.783   2.006  16.659  0.3674  0.1144 -0.1116
12168TIP3    H157919   1.815   2.094  16.637 -1.5960  0.9539  0.0964
12168TIP3    H257920   1.820   1.950  16.592  1.0207  1.2584 -0.7467
12169TIP3   OH257921   2.651   3.134  17.042  0.1550  0.3242 -0.0372
12169TIP3    H157922   2.671   3.227  17.039 -0.6327  0.4828 -0.6735
12169TIP3    H257923   2.643   3.108  16.950 -0.8825 -0.0867  0.1547
12170TIP3   OH257924   5.947   5.709  12.646 -0.3601 -0.3725  0.2991
12170TIP3    H157925   5.952   5.801  12.670  1.0840 -0.4979  0.5562
12170TIP3    H257926   5.964   5.708  12.552 -0.5295 -0.3782  0.2660
12171TIP3   OH257927   0.302   3.896  11.163 -0.3878 -0.1303  0.1256
12171TIP3    H157928   0.288   3.926  11.253  0.3699 -0.8339  0.4922
12171TIP3    H257929   0.214   3.870  11.133 -0.4362 -1.2692  1.1828
12172TIP3   OH257930   3.560   2.170  11.801  0.6952 -0.1380  0.0136
12172TIP3    H157931   3.611   2.210  11.730 -2.6233 -0.4902 -2.8755
12172TIP3    H257932   3.582   2.077  11.797  1.8358  0.0847  0.7152
12173TIP3   OH257933   4.302   2.791  14.866 -0.6822  0.5288 -0.3553
12173TIP3    H157934   4.334   2.882  14.865 -1.9904  1.0503  1.2274
12173TIP3    H257935   4.255   2.782  14.783  0.5609  0.8576 -1.1232
12174TIP3   OH257936   3.367   0.690   1.758 -1.0382 -0.4394  0.6562
12174TIP3    H157937   3.400   0.766   1.807 -0.4110  0.4088 -0.9928
12174TIP3    H257938   3.275   0.710   1.743 -0.5035  0.8648 -1.2125
12175TIP3   OH257939   3.625   6.602   2.686 -0.2382  0.0077  0.0814
12175TIP3    H157940   3.614   6.660   2.760  1.3893  0.3331  0.1108
12175TIP3    H257941   3.719   6.584   2.683 -0.6937 -2.9571  0.3207
12176TIP3   OH257942   2.403   3.614  13.461 -0.5265 -0.1496 -0.4041
12176TIP3    H157943   2.492   3.595  13.433 -1.1622  1.1088 -3.6781
12176TIP3    H257944   2.399   3.581  13.551  3.7001  1.2258  0.5394
12177TIP3   OH257945   6.586   2.262  12.679  0.1778  0.2734 -0.3337
12177TIP3    H157946   6.573   2.347  12.638  1.8351  0.0874 -1.3002
12177TIP3    H257947   6.562   2.275  12.771 -1.1683  1.3352 -0.8139
12178TIP3   OH257948   6.460   0.989   0.359 -0.1397  0.2912 -0.5181
12178TIP3    H157949   6.477   1.043   0.281 -0.1314  3.4719  1.4774
12178TIP3    H257950   6.432   0.905   0.324  1.0075  1.1394 -3.9418
12179TIP3   OH257951   2.062   0.815  12.472 -0.2030 -0.1790  0.1275
12179TIP3    H157952   2.149   0.820  12.513 -0.2919 -1.9997  0.6412
12179TIP3    H257953   2.079   0.829  12.379  0.5201  0.3793  0.3326
12180TIP3   OH257954   0.678   2.923   4.791 -0.1127  0.4481 -0.3641
12180TIP3    H157955   0.674   2.852   4.726 -1.1483 -0.7642  0.9497
12180TIP3    H257956   0.707   2.879   4.872  3.1628  2.2620 -0.3977
12181TIP3   OH257957   2.903   3.979   2.396 -0.7874 -0.4362 -0.5926
12181TIP3    H157958   2.961   3.940   2.461  0.0895  1.2441 -0.2928
12181TIP3    H257959   2.960   4.039   2.347 -2.2602  1.3846 -0.2013
12182TIP3   OH257960   5.494   1.889  11.817  0.1605  0.0314 -0.4318
12182TIP3    H157961   5.535   1.820  11.764  0.5967 -0.5877  0.6724
12182TIP3    H257962   5.456   1.949  11.753  1.5612 -0.1364 -1.4660
12183TIP3   OH257963   0.567   6.342  16.654  0.1352 -0.3315  0.1638
12183TIP3    H157964   0.490   6.305  16.612  1.8448 -3.9598 -0.1359
12183TIP3    H257965   0.619   6.378  16.582 -0.5635  0.7806  0.1985
12184TIP3   OH257966   3.318   5.369   0.437 -0.0482 -0.0870  0.3079
12184TIP3    H157967   3.328   5.356   0.343 -1.3137  2.4494 -0.2723
12184TIP3    H257968   3.357   5.455   0.453 -0.9949  0.0921  1.8590
12185TIP3   OH257969   3.937   6.197  16.705  0.1515 -0.0550  0.0228
12185TIP3    H157970   3.926   6.102  16.697  1.1798 -0.3051  1.2145
12185TIP3    H257971   3.886   6.221  16.782 -2.5271  0.8912 -1.8965
12186TIP3   OH257972   4.434   2.776   3.813  0.4344 -0.1402 -0.1204
12186TIP3    H157973   4.439   2.864   3.849 -0.8023  0.8625 -2.1834
12186TIP3    H257974   4.401   2.722   3.885  2.6112  0.7233  1.6369
12187TIP3   OH257975   0.548   1.184  14.438 -0.7192 -0.3614 -0.1463
12187TIP3    H157976   0.557   1.222  14.526  2.1596 -0.5426 -0.2697
12187TIP3    H257977   0.633   1.200  14.397 -2.4901  1.1920 -3.5493
12188TIP3   OH257978   0.159   5.115  16.799 -0.0563  0.1062 -0.7640
12188TIP3    H157979   0.143   5.170  16.876 -1.4417  1.1098 -1.7210
12188TIP3    H257980   0.167   5.026  16.834  0.0297  0.6266  0.5996
12189TIP3   OH257981   2.597   6.111   2.267  0.2977  0.4934 -0.1549
12189TIP3    H157982   2.564   6.188   2.221  0.5886  1.1996  0.7849
12189TIP3    H257983   2.628   6.145   2.351  1.5756 -0.4581 -0.2186
12190TIP3   OH257984   6.256   6.080   2.722 -0.7855  0.3395  0.0007
12190TIP3    H157985   6.300   6.014   2.667  1.8929  0.4985  1.7749
12190TIP3    H257986   6.256   6.159   2.668 -1.4396 -0.3670 -1.0723
12191TIP3   OH257987   2.273   0.601  16.863 -0.0376  0.3157 -0.7390
12191TIP3    H157988   2.308   0.514  16.882  1.0340  1.3977  3.3083
12191TIP3    H257989   2.344   0.646  16.818 -0.0457 -0.4149 -1.5103
12192TIP3   OH257990   6.337   5.117  12.145 -0.3935  0.1082 -0.0819
12192TIP3    H157991   6.311   5.080  12.060 -0.7375  0.0532  0.0473
12192TIP3    H257992   6.255   5.142  12.187 -0.1475  1.5397 -0.3993
12193TIP3   OH257993   4.987   0.628   5.368 -0.3939 -0.0674  0.0584
12193TIP3    H157994   5.060   0.685   5.343 -0.1821  0.3813  1.6220
12193TIP3    H257995   4.919   0.688   5.400 -1.2232 -0.5258 -0.7672
12194TIP3   OH257996   6.508   2.167   5.043 -0.6111  0.4225  0.5447
12194TIP3    H157997   6.536   2.138   4.956 -2.2087 -0.3954  0.2631
12194TIP3    H257998   6.521   2.090   5.098 -2.1947  0.0422  0.4147
12195TIP3   OH257999   3.668   0.156  16.413  0.1016 -0.3174 -0.0204
12195TIP3    H158000   3.668   0.251  16.401  0.9215 -0.4109 -0.9456
12195TIP3    H258001   3.622   0.142  16.495  0.3088  0.9110  0.3272
12196TIP3   OH258002   0.720   0.617  15.217 -0.2662 -0.9393  1.0779
12196TIP3    H158003   0.793   0.626  15.278  1.8504  0.4407 -1.4400
12196TIP3    H258004   0.694   0.708  15.198 -0.0439 -1.2391 -0.8803
12197TIP3   OH258005   0.391   4.328   6.546  0.5773 -0.0080  0.3718
12197TIP3    H158006   0.387   4.423   6.553  0.5583 -0.0753  1.3337
12197TIP3    H258007   0.484   4.309   6.531  0.5801  0.1543  0.1693
12198TIP3   OH258008   1.933   3.965   2.378 -0.2572 -0.0069  0.2146
12198TIP3    H158009   1.871   4.026   2.418 -0.4911  0.9301 -1.4559
12198TIP3    H258010   1.961   3.908   2.449 -2.6289 -0.1254  1.1338
12199TIP3   OH258011   5.215   2.899   2.492 -0.1303 -0.3956 -0.6078
12199TIP3    H158012   5.176   2.970   2.440 -0.3725 -0.5911 -0.6944
12199TIP3    H258013   5.280   2.943   2.547 -0.0048 -0.1593 -0.9394
12200TIP3   OH258014   3.952   0.761   6.593  0.1110 -0.2036 -0.2529
12200TIP3    H158015   3.987   0.845   6.622 -2.9024  1.6979 -1.5377
12200TIP3    H258016   3.857   0.770   6.605 -0.4778 -2.7161 -2.1581
12201TIP3   OH258017   4.958   4.520   1.581 -0.6418  0.2028  0.3651
12201TIP3    H158018   4.920   4.432   1.576  1.0576 -0.5095 -0.6659
12201TIP3    H258019   5.046   4.506   1.617 -1.1459  1.7717  2.4244
12202TIP3   OH258020   3.311   1.165   1.068 -0.5774 -0.1709 -0.2849
12202TIP3    H158021   3.240   1.202   1.015 -0.4383 -0.1549 -0.4592
12202TIP3    H258022   3.298   1.070   1.062 -1.4173 -0.1562  0.8123
12203TIP3   OH258023   3.561   4.803  16.969 -0.3864 -0.0337  0.1276
12203TIP3    H158024   3.610   4.860  17.028 -1.0604  0.3920  0.2891
12203TIP3    H258025   3.574   4.715  17.004 -0.9197  0.2318  1.0111
12204TIP3   OH258026   1.284   0.199  14.861  0.1816 -0.3703  0.7596
12204TIP3    H158027   1.309   0.223  14.951 -0.6588 -3.0671  1.8048
12204TIP3    H258028   1.358   0.148  14.829  0.5897  0.8066 -0.2281
12205TIP3   OH258029   1.219   3.950  15.710 -0.6636 -0.2536 -0.1038
12205TIP3    H158030   1.197   3.991  15.793  0.9357 -1.2121  0.8505
12205TIP3    H258031   1.141   3.899  15.687 -1.4000  0.6120  0.4075
12206TIP3   OH258032   0.164   6.478  12.247 -0.2214  0.7932 -0.1876
12206TIP3    H158033   0.214   6.555  12.220  0.9754  0.0997 -0.0299
12206TIP3    H258034   0.229   6.408  12.253 -0.6202  0.5276  2.9552
12207TIP3   OH258035   3.798   5.002   5.759 -0.0266  0.3776  0.0531
12207TIP3    H158036   3.852   5.032   5.687  1.1246 -1.6046  0.0099
12207TIP3    H258037   3.857   5.000   5.834 -0.9099  1.2897  0.8028
12208TIP3   OH258038   2.930   1.525  12.952  0.0127 -0.1653  0.5876
12208TIP3    H158039   2.936   1.429  12.947 -0.3996 -0.1701  0.1623
12208TIP3    H258040   2.963   1.546  13.040 -1.1046 -0.8104  1.1871
12209TIP3   OH258041   5.414   1.033   4.138  0.3770  1.3687 -0.2287
12209TIP3    H158042   5.339   1.067   4.187  0.6956  0.7767  0.6883
12209TIP3    H258043   5.399   1.064   4.049 -0.5770  1.8816  0.0855
12210TIP3   OH258044   0.611   4.562   5.500  0.7014 -0.7136 -0.2582
12210TIP3    H158045   0.541   4.608   5.547  2.9852  1.2182  1.5171
12210TIP3    H258046   0.606   4.596   5.411 -2.0553 -2.4643 -0.9156
12211TIP3   OH258047   2.869   4.701  16.690  0.3710  0.7094  0.2040
12211TIP3    H158048   2.809   4.651  16.634  1.9242  0.3750 -1.2565
12211TIP3    H258049   2.892   4.777  16.637  1.8064  0.4411  0.4048
12212TIP3   OH258050   6.677   1.198  17.150 -0.7615  0.2138  0.3968
12212TIP3    H158051   6.678   1.111  17.111 -0.6274 -0.4506  1.8400
12212TIP3    H258052   6.770   1.222  17.157 -0.8129  0.7965 -0.6376
12213TIP3   OH258053   6.576   3.649   1.476  0.0200 -0.0708  0.6871
12213TIP3    H158054   6.505   3.710   1.492  0.5500  0.7697 -0.0491
12213TIP3    H258055   6.651   3.685   1.524  1.0715  1.3888 -1.8754
12214TIP3   OH258056   2.809   6.074  12.411  0.2314  0.3895  0.3373
12214TIP3    H158057   2.730   6.109  12.453  0.6841  0.8736  0.8091
12214TIP3    H258058   2.802   6.103  12.320  0.7377  2.0205  0.7758
12215TIP3   OH258059   4.817   3.270   1.408  0.4913  0.2843  0.3561
12215TIP3    H158060   4.848   3.191   1.454  1.6125  1.6063  1.9746
12215TIP3    H258061   4.848   3.259   1.318 -0.2586 -1.5813  0.2803
12216TIP3   OH258062   0.968   5.655   5.102  0.7822  0.0861 -0.0717
12216TIP3    H158063   0.954   5.626   5.012 -0.0291  2.2433 -0.7007
12216TIP3    H258064   0.944   5.748   5.102  2.7200  0.6846  1.9032
12217TIP3   OH258065   5.878   3.268   4.251 -0.7238 -0.2710  0.0720
12217TIP3    H158066   5.827   3.294   4.327  1.4651 -0.7782  1.8059
12217TIP3    H258067   5.847   3.180   4.230 -2.3682  0.4259 -0.6316
12218TIP3   OH258068   6.276   0.648   1.128 -0.1850  0.4791 -0.4508
12218TIP3    H158069   6.320   0.677   1.048  1.2916 -0.4636 -0.0310
12218TIP3    H258070   6.338   0.672   1.198 -1.6419  1.7116  0.4935
12219TIP3   OH258071   5.300   1.872  14.684  0.4617  0.0210 -0.0577
12219TIP3    H158072   5.228   1.878  14.620  0.9682  0.7962 -0.5656
12219TIP3    H258073   5.256   1.875  14.769 -0.1584 -0.1819 -0.3630
12220TIP3   OH258074   5.069   0.466   5.682  0.7461  0.4608 -0.2020
12220TIP3    H158075   5.087   0.402   5.614  2.0559  0.8624 -0.2666
12220TIP3    H258076   5.059   0.549   5.636  1.9826  0.7968  0.0879
12221TIP3   OH258077   2.169   0.993   2.637  0.2178 -0.4147  0.1658
12221TIP3    H158078   2.127   1.072   2.671 -2.4104 -0.8857 -1.7379
12221TIP3    H258079   2.129   0.922   2.687 -0.5572 -0.8059 -0.9883
12222TIP3   OH258080   2.095   6.445  12.539 -0.0350  0.5144  0.0326
12222TIP3    H158081   2.085   6.412  12.628 -0.4307 -0.9881 -0.5411
12222TIP3    H258082   2.006   6.464  12.509  0.0936  1.0006 -0.0521
12223TIP3   OH258083   1.074   1.201   2.391  0.2613 -0.1357  0.5227
12223TIP3    H158084   1.104   1.112   2.412  2.7610  0.4529 -0.2061
12223TIP3    H258085   1.080   1.248   2.474 -1.4818 -0.6845  1.0113
12224TIP3   OH258086   4.635   5.623   3.728  0.1931  0.8770 -0.0355
12224TIP3    H158087   4.586   5.573   3.793  2.3951  0.8869  1.7498
12224TIP3    H258088   4.599   5.712   3.733 -0.1167  0.7159  0.6694
12225TIP3   OH258089   4.319   1.777   5.314  0.3968 -0.1141 -0.1554
12225TIP3    H158090   4.304   1.855   5.367 -0.8356 -0.2511 -0.2522
12225TIP3    H258091   4.260   1.711   5.351  0.2562 -0.5194 -1.0551
12226TIP3   OH258092   1.271   0.598  12.786  0.0155 -0.2600 -0.1201
12226TIP3    H158093   1.207   0.615  12.855  0.9366  1.2841  0.4089
12226TIP3    H258094   1.293   0.506  12.795 -0.4539 -0.2623  1.1634
12227TIP3   OH258095   0.779   5.667  11.660 -0.0804 -0.3975 -0.0724
12227TIP3    H158096   0.740   5.648  11.575  0.2261  0.1263 -0.3319
12227TIP3    H258097   0.863   5.708  11.640 -0.3858  0.5382  0.4773
12228TIP3   OH258098   6.223   5.896   1.931  1.1297 -0.0346 -0.0698
12228TIP3    H158099   6.162   5.862   1.866  0.7603  0.0755  0.2157
12228TIP3    H258100   6.306   5.853   1.911  1.0767  0.1601 -0.7465
12229TIP3   OH258101   5.485   1.273   4.415  0.2031 -0.2010 -0.3575
12229TIP3    H158102   5.410   1.218   4.394  0.0300  0.0865 -0.4984
12229TIP3    H258103   5.484   1.341   4.348 -1.3394  1.7108  1.4572
12230TIP3   OH258104   3.994   6.026  14.510  0.5074 -0.4103  0.3122
12230TIP3    H158105   4.005   5.999  14.419  0.3907 -0.5554  0.3399
12230TIP3    H258106   3.909   5.991  14.535  0.9663 -1.2150  0.7747
12231TIP3   OH258107   0.877   1.457  15.722  0.3951  0.7543 -0.2493
12231TIP3    H158108   0.931   1.533  15.746 -0.1703  1.0983 -0.0360
12231TIP3    H258109   0.827   1.487  15.646 -1.1736  1.2379  0.9266
12232TIP3   OH258110   6.694   4.906   1.451  0.1676 -0.4299  0.0566
12232TIP3    H158111   6.647   4.932   1.372 -0.3380 -3.5265 -0.8004
12232TIP3    H258112   6.635   4.930   1.522 -0.0327  1.0257 -0.5515
12233TIP3   OH258113   1.240   2.208  15.995 -0.0835 -0.4073  0.1600
12233TIP3    H158114   1.162   2.197  15.941  0.4349 -1.0370 -0.4743
12233TIP3    H258115   1.215   2.273  16.061 -0.8125  0.1346 -0.6451
12234TIP3   OH258116   2.229   5.817  15.834 -0.3271  0.0064 -0.1079
12234TIP3    H158117   2.200   5.785  15.748 -0.9954  2.4518 -0.8677
12234TIP3    H258118   2.158   5.875  15.863  1.4598  2.0029  0.4481
12235TIP3   OH258119   5.333   2.705  13.521 -0.0880 -0.6923 -0.3258
12235TIP3    H158120   5.264   2.697  13.588 -0.0233 -0.0838 -0.1797
12235TIP3    H258121   5.403   2.754  13.564  0.2183 -0.8443 -0.6440
12236TIP3   OH258122   5.243   2.232   1.156  0.6695  0.2743  0.1425
12236TIP3    H158123   5.203   2.172   1.093  1.1352  0.0556  0.0484
12236TIP3    H258124   5.283   2.174   1.222  0.7427  0.4910  0.2886
12237TIP3   OH258125   0.496   3.800   4.315 -0.8123  0.3901 -0.0258
12237TIP3    H158126   0.470   3.769   4.402  0.6819  0.1557  0.3720
12237TIP3    H258127   0.416   3.835   4.277 -1.2507  1.7171  1.9729
12238TIP3   OH258128   5.404   4.231   3.495  0.5435 -0.5061  0.3856
12238TIP3    H158129   5.459   4.310   3.495 -0.6933  0.3812  0.3974
12238TIP3    H258130   5.364   4.229   3.582 -0.9807  0.0005 -0.2651
12239TIP3   OH258131   5.251   4.855   0.992 -0.3768  0.0389  0.0755
12239TIP3    H158132   5.272   4.852   1.085  2.2659  4.1770 -0.1096
12239TIP3    H258133   5.182   4.922   0.985  0.4315  0.8022 -0.9791
12240TIP3   OH258134   1.892   0.869  15.535 -0.2582 -0.1513  0.1177
12240TIP3    H158135   1.922   0.781  15.515  2.1891  0.3017  1.3863
12240TIP3    H258136   1.917   0.883  15.627  0.7276  2.2900 -0.4230
12241TIP3   OH258137   3.170   2.956  11.134  0.2424  0.1525  0.2644
12241TIP3    H158138   3.260   2.979  11.109  0.6045 -0.2394  1.1304
12241TIP3    H258139   3.149   3.018  11.204 -0.2423  0.3812 -0.0862
12242TIP3   OH258140   2.721   5.144  14.965  0.9326 -0.4013  0.0212
12242TIP3    H158141   2.806   5.151  15.010  1.1264  1.0051 -0.5267
12242TIP3    H258142   2.667   5.093  15.026  2.2448 -1.6049  0.2399
12243TIP3   OH258143   1.725   4.225   3.590  0.1131  0.1443  0.3589
12243TIP3    H158144   1.771   4.144   3.572 -0.5607 -0.4227  1.1006
12243TIP3    H258145   1.762   4.256   3.673  0.0316  0.3403  0.3235
12244TIP3   OH258146   2.490   1.199  17.092  0.1240 -0.1131 -0.1024
12244TIP3    H158147   2.549   1.254  17.041  0.7788 -1.1062 -0.4362
12244TIP3    H258148   2.427   1.261  17.130  0.7003  0.8348 -0.6458
12245TIP3   OH258149   2.491   1.578   0.751 -0.4628 -0.2462 -0.4730
12245TIP3    H158150   2.412   1.622   0.780 -0.1095  0.0818  0.0183
12245TIP3    H258151   2.561   1.617   0.804 -0.0471 -0.8953 -0.5280
12246TIP3   OH258152   5.146   3.949  15.208 -0.0966  0.1094 -0.3905
12246TIP3    H158153   5.175   3.882  15.146  0.6629 -1.3545  1.4430
12246TIP3    H258154   5.227   3.982  15.248 -0.4768  1.9714 -1.0547
12247TIP3   OH258155   1.778   0.944   3.226  0.7091  0.3816 -0.3035
12247TIP3    H158156   1.785   0.966   3.133 -0.2386 -0.3308 -0.5574
12247TIP3    H258157   1.700   0.991   3.256 -0.8304 -1.8073 -0.6421
12248TIP3   OH258158   1.155   4.446   1.510  0.0903 -0.3508  0.0855
12248TIP3    H158159   1.110   4.516   1.556 -0.7594 -0.9451  0.1839
12248TIP3    H258160   1.218   4.412   1.574 -0.9930 -1.0896  0.8175
12249TIP3   OH258161   1.204   0.184   3.501  0.3635  0.1642 -0.1832
12249TIP3    H158162   1.230   0.141   3.419  0.5328  0.3034 -0.2050
12249TIP3    H258163   1.196   0.276   3.477  0.5478  0.2243 -0.0107
12250TIP3   OH258164   4.841   0.200   3.890  0.0462  0.0230  0.3023
12250TIP3    H158165   4.765   0.159   3.930 -2.2199  1.5790 -2.0742
12250TIP3    H258166   4.870   0.138   3.823 -0.7554  0.4721 -0.4792
12251TIP3   OH258167   2.099   4.992  13.837 -0.8541 -0.4683  0.1772
12251TIP3    H158168   2.065   4.959  13.921  1.6562 -0.9436  1.0872
12251TIP3    H258169   2.170   5.051  13.862 -0.3722 -0.2537 -1.6168
12252TIP3   OH258170   5.298   2.722   1.838  0.4162  0.5948 -0.1189
12252TIP3    H158171   5.206   2.699   1.838  0.8435 -1.3444 -1.8463
12252TIP3    H258172   5.305   2.794   1.775  0.2992 -0.4633 -1.3820
12253TIP3   OH258173   0.830   0.746  14.022 -0.0825 -0.2572 -0.2522
12253TIP3    H158174   0.769   0.679  14.052 -0.4862  0.2097 -0.0290
12253TIP3    H258175   0.868   0.782  14.102  1.3438 -1.3135 -0.4077
12254TIP3   OH258176   5.647   2.853  14.180  0.1063 -0.2411 -0.7463
12254TIP3    H158177   5.587   2.928  14.179 -0.4393 -0.6731 -0.8605
12254TIP3    H258178   5.714   2.878  14.243 -0.8551 -0.2581  0.3284
12255TIP3   OH258179   0.178   5.024   0.426 -0.0173 -0.2550  0.4404
12255TIP3    H158180   0.086   4.998   0.436  0.3740 -1.9125  0.0556
12255TIP3    H258181   0.174   5.110   0.386 -1.4234 -0.7902 -0.6780
12256TIP3   OH258182   4.600   5.855   2.810  0.7211 -0.1463  0.0466
12256TIP3    H158183   4.516   5.834   2.769  0.0445  1.1459  0.6983
12256TIP3    H258184   4.582   5.849   2.904  1.9936 -2.1328  0.2214
12257TIP3   OH258185   3.669   5.238   2.198  0.1553 -0.1869 -0.3237
12257TIP3    H158186   3.719   5.303   2.248  0.9174  0.0309 -1.3317
12257TIP3    H258187   3.677   5.267   2.107 -0.9777 -0.7196 -0.6096
12258TIP3   OH258188   1.834   1.658  13.120 -0.1238 -0.0075  0.4172
12258TIP3    H158189   1.738   1.660  13.132 -0.3457  0.8738 -1.2704
12258TIP3    H258190   1.860   1.575  13.158 -1.5409 -0.2018  1.0640
12259TIP3   OH258191   1.707   1.333   1.844 -0.4380 -0.3340  0.4831
12259TIP3    H158192   1.637   1.396   1.825 -0.4729 -0.1205  1.2686
12259TIP3    H258193   1.782   1.363   1.793 -0.4586  0.3408  0.8393
12260TIP3   OH258194   0.078   5.362  13.578 -0.3214  0.0325 -0.7132
12260TIP3    H158195   0.142   5.433  13.568  1.4952 -1.6375 -1.7026
12260TIP3    H258196   0.007   5.386  13.518  0.9759  0.3077 -2.2142
12261TIP3   OH258197   1.196   1.461  10.637  0.8185  0.0214 -0.2556
12261TIP3    H158198   1.278   1.415  10.655  0.8738 -0.0534 -0.6888
12261TIP3    H258199   1.136   1.391  10.610 -0.0256 -0.2564  2.0367
12262TIP3   OH258200   6.193   1.654   2.176 -0.3956  0.2155  0.6613
12262TIP3    H158201   6.218   1.717   2.107  0.3704 -1.4248 -0.6264
12262TIP3    H258202   6.234   1.689   2.255  2.3536 -0.0099 -0.5370
12263TIP3   OH258203   0.943   4.498   6.278 -0.4735 -0.4459  0.5991
12263TIP3    H158204   0.977   4.507   6.189  0.4664  2.0222  1.1315
12263TIP3    H258205   1.018   4.471   6.330 -0.3909  0.5813  1.0351
12264TIP3   OH258206   3.581   1.462   3.841 -0.2016  0.7687 -1.0404
12264TIP3    H158207   3.640   1.521   3.889 -0.6332  0.8672 -0.6237
12264TIP3    H258208   3.526   1.520   3.789 -2.8367  1.0737  1.7643
12265TIP3   OH258209   0.429   0.657  15.081  0.4493  0.6892  0.5455
12265TIP3    H158210   0.376   0.702  15.146  2.6235  1.2469  2.0610
12265TIP3    H258211   0.431   0.716  15.006  1.5379  2.1892  1.7075
12266TIP3   OH258212   2.415   2.044   4.917  0.0885 -0.6230 -0.0503
12266TIP3    H158213   2.488   2.040   4.854 -0.6572  0.5065 -1.0431
12266TIP3    H258214   2.416   2.135   4.949 -0.8133 -0.6202 -0.0112
12267TIP3   OH258215   0.110   2.671   4.273  0.3344 -0.0698  0.3576
12267TIP3    H158216   0.077   2.716   4.351  0.4754 -0.4604  0.6505
12267TIP3    H258217   0.062   2.710   4.200  0.3019  0.3978  0.6259
12268TIP3   OH258218   3.710   1.774  15.686  0.2474  0.0225 -0.2372
12268TIP3    H158219   3.723   1.864  15.714  1.3361 -0.2590  0.2438
12268TIP3    H258220   3.715   1.723  15.767  0.0103 -0.5055 -0.5468
12269TIP3   OH258221   2.286   0.604   2.290  0.0965 -0.6888  0.2001
12269TIP3    H158222   2.231   0.586   2.214  0.7591 -1.1325 -0.1810
12269TIP3    H258223   2.361   0.652   2.255  1.1280 -2.1617  0.3275
12270TIP3   OH258224   6.738   6.378  14.212 -0.3595  0.2098 -0.1637
12270TIP3    H158225   6.770   6.465  14.235 -0.2711 -0.0288  0.6258
12270TIP3    H258226   6.812   6.320  14.227 -1.1768 -0.3753  1.8931
12271TIP3   OH258227   2.792   1.419   5.106 -0.2971 -0.5880 -0.3796
12271TIP3    H158228   2.860   1.414   5.038  0.3997 -0.2871  0.2792
12271TIP3    H258229   2.723   1.472   5.066  0.0736 -0.4617 -0.8783
12272TIP3   OH258230   4.214   1.242   1.026 -0.2434  0.0733  0.4285
12272TIP3    H158231   4.131   1.237   0.977  1.9603 -1.6081 -3.6447
12272TIP3    H258232   4.209   1.172   1.090 -1.5605 -0.7841 -0.5619
12273TIP3   OH258233   2.125   2.908  11.034  0.5158  0.0382 -0.3747
12273TIP3    H158234   2.064   2.974  11.000  0.5483  0.6502  0.7067
12273TIP3    H258235   2.103   2.828  10.985  0.0879  0.6970 -1.2994
12274TIP3   OH258236   0.805   4.767   5.018 -0.4357  0.2867 -0.0006
12274TIP3    H158237   0.828   4.704   5.087 -2.1517 -0.5389 -0.1389
12274TIP3    H258238   0.720   4.737   4.986  0.7044  0.0904 -3.1451
12275TIP3   OH258239   2.701   1.518  15.168  0.2650  0.1176 -0.4614
12275TIP3    H158240   2.630   1.506  15.232 -0.1659 -1.1181 -1.1424
12275TIP3    H258241   2.663   1.491  15.085  2.0137 -2.2426 -0.5958
12276TIP3   OH258242   1.722   3.641   3.275 -0.4048 -0.3688 -0.0188
12276TIP3    H158243   1.795   3.678   3.226 -0.8973  1.4940  0.6006
12276TIP3    H258244   1.737   3.546   3.272  1.1947 -0.1105 -1.1795
12277TIP3   OH258245   0.745   2.382   4.998  0.2723 -0.1401  0.6319
12277TIP3    H158246   0.829   2.380   5.045  0.0195  1.3339  1.1904
12277TIP3    H258247   0.682   2.345   5.060  0.3833 -0.5687  0.4887
12278TIP3   OH258248   5.784   3.858   3.647  0.3748  0.1701 -0.2175
12278TIP3    H158249   5.757   3.939   3.602 -0.0040  0.0895 -0.1351
12278TIP3    H258250   5.780   3.791   3.579  2.1588  0.4798 -0.6832
12279TIP3   OH258251   5.818   4.530   5.526 -0.1872 -0.1098  0.1632
12279TIP3    H158252   5.739   4.582   5.534 -0.4458 -0.2577 -1.1339
12279TIP3    H258253   5.861   4.563   5.447  0.2465 -1.0591 -0.0183
12280TIP3   OH258254   2.377   4.153  16.441  0.1134  0.3504  0.4949
12280TIP3    H158255   2.466   4.119  16.449 -0.4207 -0.7790  2.0777
12280TIP3    H258256   2.359   4.152  16.347  1.3997 -0.3541  0.2354
12281TIP3   OH258257   2.381   3.114   4.735 -0.6207  0.4879  0.1860
12281TIP3    H158258   2.316   3.138   4.801  0.8408  1.4073  1.3620
12281TIP3    H258259   2.437   3.050   4.779 -0.0385  0.5972 -0.3841
12282TIP3   OH258260   4.275   3.224   0.217  0.0471 -0.3785  0.0865
12282TIP3    H158261   4.313   3.171   0.147 -0.6938 -2.4826  1.1860
12282TIP3    H258262   4.268   3.164   0.291 -2.5975  0.7206  0.8415
12283TIP3   OH258263   0.909   1.002  12.028 -0.0786  0.2656  0.2700
12283TIP3    H158264   0.849   1.077  12.027 -0.3567  0.0767  1.1997
12283TIP3    H258265   0.864   0.937  12.082  1.3155  0.4273  1.7009
12284TIP3   OH258266   3.810   5.792  11.398  0.0147  0.1293  0.2755
12284TIP3    H158267   3.840   5.764  11.311 -0.9049  0.0617 -0.0280
12284TIP3    H258268   3.891   5.805  11.448  0.5265 -1.1560 -0.1659
12285TIP3   OH258269   3.880   1.040  16.348 -0.1363 -0.4687 -0.1933
12285TIP3    H158270   3.897   0.973  16.415 -1.0444 -0.8815 -0.3616
12285TIP3    H258271   3.850   0.991  16.272  0.7742  0.0124 -0.8834
12286TIP3   OH258272   1.709   2.189   4.296 -0.1506 -0.1718  0.0785
12286TIP3    H158273   1.803   2.171   4.291  0.0563  0.8257  0.3046
12286TIP3    H258274   1.669   2.111   4.257  0.7703 -0.5047 -0.2496
12287TIP3   OH258275   5.260   3.038   0.606  0.0407  0.2540  0.1757
12287TIP3    H158276   5.278   3.126   0.573 -1.3117  0.0842 -1.1315
12287TIP3    H258277   5.252   3.049   0.701  2.0552  1.1179  0.2997
12288TIP3   OH258278   4.398   3.649  14.265  0.4551  0.0651 -0.0017
12288TIP3    H158279   4.448   3.730  14.270 -0.4150  0.5470  1.2165
12288TIP3    H258280   4.349   3.656  14.183  0.1327  0.9272  0.2603
12289TIP3   OH258281   6.467   6.001  15.232 -0.0412 -0.0254  0.1497
12289TIP3    H158282   6.454   6.048  15.150 -0.3037 -0.6530 -0.1730
12289TIP3    H258283   6.542   6.045  15.273  1.8209 -1.3272 -1.6510
12290TIP3   OH258284   6.714   2.111   3.265 -0.0406  0.2631 -0.0848
12290TIP3    H158285   6.676   2.195   3.292  0.5607 -0.1521  2.2980
12290TIP3    H258286   6.795   2.104   3.316  0.7557 -1.0563 -1.4487
12291TIP3   OH258287   2.467   3.060  13.584  0.4251 -0.6002 -0.4549
12291TIP3    H158288   2.392   3.119  13.577 -0.0119 -1.3242 -2.5535
12291TIP3    H258289   2.475   3.041  13.677 -2.7726 -1.4393 -0.2520
12292TIP3   OH258290   0.045   6.350   0.445  0.0582  0.2650  0.2845
12292TIP3    H158291   0.064   6.444   0.439  0.1350  0.4002  2.0890
12292TIP3    H258292   0.044   6.332   0.539  1.4386 -1.8299 -0.0360
12293TIP3   OH258293   0.160   5.018   4.982 -0.1317  0.1090  0.4428
12293TIP3    H158294   0.077   4.990   5.021  0.3596 -1.4111  0.4678
12293TIP3    H258295   0.214   5.042   5.057 -0.9046  2.2738  0.3716
12294TIP3   OH258296   2.845   5.107   3.146 -0.2236 -0.4045  0.3259
12294TIP3    H158297   2.840   5.094   3.051 -0.1493 -1.6756  0.4792
12294TIP3    H258298   2.753   5.104   3.175 -0.3193  0.8044  0.2198
12295TIP3   OH258299   1.147   2.002   5.709  0.3752  0.1162 -0.2663
12295TIP3    H158300   1.119   1.969   5.624 -0.0690  1.2378 -0.5704
12295TIP3    H258301   1.066   2.024   5.755  0.5482 -1.3602  0.8501
12296TIP3   OH258302   1.955   2.549   4.799  0.4450  0.3189  0.4245
12296TIP3    H158303   1.894   2.531   4.870  0.2700 -0.4536  0.0876
12296TIP3    H258304   1.899   2.574   4.725  0.5284 -0.3506  0.1268
12297TIP3   OH258305   2.552   5.086   0.089 -0.7408 -0.0597  0.2047
12297TIP3    H158306   2.578   5.054   0.003 -0.7992  0.6153 -0.0778
12297TIP3    H258307   2.625   5.064   0.147  1.2210  3.0400 -0.8423
12298TIP3   OH258308   2.463   5.150   3.830  0.2727  0.5315  0.6030
12298TIP3    H158309   2.500   5.166   3.917 -0.0437 -0.3396  0.9056
12298TIP3    H258310   2.533   5.176   3.769  0.0817  2.2671  1.0529
12299TIP3   OH258311   4.158   2.926   2.387  0.0046  0.3206 -0.7130
12299TIP3    H158312   4.210   2.869   2.331  2.4184  0.0736  1.5711
12299TIP3    H258313   4.094   2.868   2.427  1.8216 -0.7124  0.8575
12300TIP3   OH258314   2.031   3.296  13.714  0.5363 -0.3090 -0.2259
12300TIP3    H158315   2.004   3.387  13.729 -0.0694 -0.4776 -0.2639
12300TIP3    H258316   2.049   3.261  13.802  0.8191 -0.1419 -0.2155
12301TIP3   OH258317   1.831   0.639   2.720  0.0487 -0.1569 -0.4837
12301TIP3    H158318   1.818   0.544   2.720 -0.6312 -0.0751 -0.9887
12301TIP3    H258319   1.746   0.675   2.694  0.5489  0.5479 -1.2287
12302TIP3   OH258320   5.467   0.381   2.930 -0.6835  0.3089 -0.4028
12302TIP3    H158321   5.488   0.335   3.012 -0.1441 -0.4440 -0.9462
12302TIP3    H258322   5.550   0.420   2.903 -0.6130 -0.3003 -1.1076
12303TIP3   OH258323   3.924   1.479   1.404  0.3620  0.4297 -0.6801
12303TIP3    H158324   3.855   1.540   1.375  1.3661  2.1063  0.2948
12303TIP3    H258325   3.945   1.428   1.326 -2.0995 -0.3070 -0.9643
12304TIP3   OH258326   5.843   6.299  16.994  0.1177  0.0524  0.0168
12304TIP3    H158327   5.852   6.389  17.026 -3.1227  0.2679  0.6712
12304TIP3    H258328   5.826   6.247  17.073  0.9903 -0.9989 -0.4610
12305TIP3   OH258329   3.520   2.026   6.210 -0.4380 -0.1306 -0.7574
12305TIP3    H158330   3.500   2.091   6.277  1.4886 -0.8277  0.6008
12305TIP3    H258331   3.491   2.065   6.128 -0.0614  2.1027  0.1109
12306TIP3   OH258332   5.074   2.537  12.764 -0.2290 -0.1251  0.2772
12306TIP3    H158333   5.138   2.572  12.702 -0.8969  0.1759 -0.2468
12306TIP3    H258334   5.026   2.614  12.796 -1.0137 -0.4472 -0.1040
12307TIP3   OH258335   2.892   0.850  17.119 -0.2997 -0.3928  0.2045
12307TIP3    H158336   2.903   0.774  17.177  0.2602  0.6937  1.5918
12307TIP3    H258337   2.979   0.864  17.081 -0.0147  0.4250  1.1161
12308TIP3   OH258338   6.319   4.227   4.424 -0.1866  0.2440 -0.1994
12308TIP3    H158339   6.389   4.278   4.465  0.9674 -0.5662 -1.1188
12308TIP3    H258340   6.238   4.273   4.449  0.8459  3.0744 -1.7332
12309TIP3   OH258341   3.686   0.740   6.551  0.1435 -0.7783 -0.6654
12309TIP3    H158342   3.623   0.812   6.547  0.9122  0.0763  1.3422
12309TIP3    H258343   3.672   0.692   6.469 -2.5195 -0.1505 -0.6926
12310TIP3   OH258344   3.005   4.943   3.292  0.0008 -0.4006 -0.3915
12310TIP3    H158345   3.075   4.950   3.227  0.0372 -1.1657 -0.4487
12310TIP3    H258346   2.929   4.982   3.250  0.7955  2.0933  0.3390
12311TIP3   OH258347   5.576   4.080   6.357 -0.2755  0.6647  0.6995
12311TIP3    H158348   5.521   4.123   6.422 -1.9905  0.4382 -0.5357
12311TIP3    H258349   5.520   4.014   6.317  1.1930 -0.2363  0.0177
12312TIP3   OH258350   1.193   2.274  12.634 -0.2909  0.0897 -0.4268
12312TIP3    H158351   1.203   2.363  12.670  2.8604 -0.1052 -0.5471
12312TIP3    H258352   1.205   2.285  12.539 -1.5768 -0.2771 -0.6448
12313TIP3   OH258353   3.310   2.875   0.354  0.0238  0.5523 -0.7190
12313TIP3    H158354   3.221   2.885   0.319  0.3840 -1.7827 -2.5268
12313TIP3    H258355   3.346   2.964   0.350 -1.7915  1.3368 -1.1586
12314TIP3   OH258356   3.223   4.168  11.882  0.2035 -0.2630 -0.2456
12314TIP3    H158357   3.289   4.165  11.951  0.1124  0.7171 -0.1045
12314TIP3    H258358   3.145   4.131  11.923  0.0630  0.5957  0.2840
12315TIP3   OH258359   1.666   2.979  13.408 -0.5038 -0.3454  0.0858
12315TIP3    H158360   1.726   2.968  13.335  0.6176  0.0979  0.9016
12315TIP3    H258361   1.700   2.919  13.476 -0.2331  0.7956  0.9938
12316TIP3   OH258362   5.980   6.256  11.911  0.0217  0.2740 -0.0418
12316TIP3    H158363   5.960   6.297  11.995  0.3864  1.4515 -0.5120
12316TIP3    H258364   6.075   6.258  11.905 -0.0151  0.4635 -0.6108
12317TIP3   OH258365   0.894   4.960  12.051 -0.6792  0.1265  0.1737
12317TIP3    H158366   0.942   4.902  11.993  0.2162  0.7731  0.2568
12317TIP3    H258367   0.856   5.027  11.993  1.1177  1.4052  0.4006
12318TIP3   OH258368   2.312   5.567   3.075 -0.2078  0.4589  0.2123
12318TIP3    H158369   2.343   5.486   3.034  1.9797  1.4017 -0.0874
12318TIP3    H258370   2.310   5.631   3.004  1.8862  1.6485  1.1566
12319TIP3   OH258371   2.102   5.438  14.783  0.8306 -0.1254  0.7302
12319TIP3    H158372   2.189   5.478  14.786  1.1483 -0.8505  1.6485
12319TIP3    H258373   2.112   5.355  14.829  0.0809 -1.0851 -0.7469
12320TIP3   OH258374   4.178   4.332  17.104 -0.0266 -0.2786 -0.0242
12320TIP3    H158375   4.164   4.414  17.151 -0.0183 -0.4884  0.3478
12320TIP3    H258376   4.169   4.356  17.011  0.7098  0.2853  0.0423
12321TIP3   OH258377   6.479   0.931  16.814  0.1535  0.0287 -0.3349
12321TIP3    H158378   6.474   0.854  16.757 -1.2435 -1.1080  1.2261
12321TIP3    H258379   6.445   1.003  16.761 -0.7366 -0.9094 -1.0653
12322TIP3   OH258380   4.984   4.757   4.825 -0.0846  0.1135  0.1092
12322TIP3    H158381   4.977   4.823   4.894 -0.0149 -2.1437  2.3988
12322TIP3    H258382   5.078   4.743   4.815 -0.1209 -0.4521  0.4919
12323TIP3   OH258383   0.962   2.820  11.564 -0.4686 -0.5089 -0.4411
12323TIP3    H158384   1.012   2.788  11.639  1.6766  2.4371 -0.4241
12323TIP3    H258385   0.991   2.764  11.491  1.3950 -0.1659 -0.0231
12324TIP3   OH258386   3.935   4.494  15.717  0.1088 -0.2681 -0.1870
12324TIP3    H158387   4.024   4.517  15.746  0.0131 -1.3472  1.0673
12324TIP3    H258388   3.892   4.578  15.703  1.4875  0.2844 -1.3899
12325TIP3   OH258389   3.771   5.921  13.041 -0.0300  0.3427 -0.2619
12325TIP3    H158390   3.864   5.921  13.063 -0.3932 -0.3078  1.4488
12325TIP3    H258391   3.767   5.886  12.952  1.3477  0.3150 -0.3348
12326TIP3   OH258392   6.418   1.355   2.099 -0.2612 -0.7605 -0.3907
12326TIP3    H158393   6.411   1.298   2.022  3.0193 -0.7471 -0.8143
12326TIP3    H258394   6.434   1.442   2.063 -1.0484 -0.2912  0.3357
12327TIP3   OH258395   0.072   5.694   4.202 -0.6524 -0.2858 -0.6018
12327TIP3    H158396   0.059   5.724   4.292  1.0556  0.6707 -0.6250
12327TIP3    H258397   0.126   5.615   4.211 -1.5266 -0.9037 -0.7374
12328TIP3   OH258398   4.421   2.642  16.711 -0.0346  0.1602  0.0467
12328TIP3    H158399   4.359   2.659  16.640  0.1378 -0.5356 -0.2828
12328TIP3    H258400   4.420   2.722  16.764 -1.5691 -0.0144  0.3181
12329TIP3   OH258401   1.719   5.981   5.880 -0.1320 -0.6631  0.1018
12329TIP3    H158402   1.799   5.942   5.845  1.0519 -0.1445  2.1005
12329TIP3    H258403   1.738   6.074   5.887 -0.9131 -0.5338  0.6511
12330TIP3   OH258404   4.896   0.283  13.380  0.1315  0.6088 -0.6028
12330TIP3    H158405   4.927   0.202  13.338  0.4743  0.8389 -0.7961
12330TIP3    H258406   4.801   0.277  13.375  0.1652  0.7279 -1.6089
12331TIP3   OH258407   2.891   0.723   2.145  0.0689  0.2422 -0.1581
12331TIP3    H158408   2.823   0.708   2.080  1.0727 -0.4455 -1.1051
12331TIP3    H258409   2.845   0.755   2.222 -1.3751 -0.7249 -0.5817
12332TIP3   OH258410   6.708   6.772   3.235 -1.0546  0.7857  0.3977
12332TIP3    H158411   6.699   6.783   3.140  2.1168 -0.4295 -0.1584
12332TIP3    H258412   6.793   6.809   3.256  0.1787 -2.5806  2.0165
12333TIP3   OH258413   3.549   1.987   5.894 -0.0874 -0.2663 -0.3394
12333TIP3    H158414   3.631   2.011   5.936  0.3836 -1.4833 -0.5408
12333TIP3    H258415   3.564   2.003   5.800  0.0180 -0.7373 -0.4055
12334TIP3   OH258416   0.134   2.382   3.421  0.1166 -0.3863  0.3072
12334TIP3    H158417   0.143   2.471   3.389 -2.3832 -0.0085  0.4037
12334TIP3    H258418   0.085   2.391   3.503  0.8383 -1.7643  0.9194
12335TIP3   OH258419   6.671   1.196   2.663  0.4350  0.0469 -0.5835
12335TIP3    H158420   6.733   1.125   2.678  2.0868  1.5807  0.1851
12335TIP3    H258421   6.723   1.266   2.626 -1.1129  0.9778 -1.1082
12336TIP3   OH258422   6.443   4.304  11.135 -0.1785 -0.3326  0.2979
12336TIP3    H158423   6.457   4.219  11.093 -1.6456 -0.6527  0.3995
12336TIP3    H258424   6.385   4.351  11.076 -1.0197 -0.1955  1.2005
12337TIP3   OH258425   2.185   6.366  16.580 -0.1544 -0.0506  0.4857
12337TIP3    H158426   2.200   6.460  16.581 -1.0616  0.0996  0.8402
12337TIP3    H258427   2.092   6.356  16.560  0.6294 -0.9895 -3.5497
12338TIP3   OH258428   6.534   5.532  12.808 -0.3047 -0.0183 -0.3157
12338TIP3    H158429   6.591   5.477  12.755 -0.3264 -1.3560  0.9998
12338TIP3    H258430   6.450   5.486  12.809 -0.7665  0.7968 -0.3947
12339TIP3   OH258431   5.001   5.420  16.882  0.2389  0.1734 -0.3657
12339TIP3    H158432   4.932   5.360  16.855  2.0258 -0.9162 -2.9136
12339TIP3    H258433   5.077   5.364  16.898  1.3344  1.5354 -0.5816
12340TIP3   OH258434   2.145   5.650  16.695  0.4974  0.3876  1.0253
12340TIP3    H158435   2.140   5.718  16.763  0.3403  1.4786 -0.0535
12340TIP3    H258436   2.064   5.658  16.646  0.9202  0.1045  0.2539
12341TIP3   OH258437   5.800   0.899  11.458 -0.3505  0.3767 -0.2976
12341TIP3    H158438   5.747   0.978  11.472  0.0615  0.6347 -0.1777
12341TIP3    H258439   5.858   0.922  11.385  0.4129  0.5208  0.3383
12342TIP3   OH258440   4.236   2.185  14.683 -0.0039  0.3416  0.0456
12342TIP3    H158441   4.146   2.151  14.686 -0.2945  1.0488 -0.3793
12342TIP3    H258442   4.251   2.204  14.591  1.9896 -3.3792 -0.5695
12343TIP3   OH258443   5.000   2.167  13.610 -0.2078 -0.3820  0.2081
12343TIP3    H158444   4.912   2.134  13.627 -0.5591  0.5854  0.3159
12343TIP3    H258445   5.018   2.226  13.684  0.6688 -0.8277  0.3665
12344TIP3   OH258446   5.282   5.660   1.607  0.4839  0.4367  0.2262
12344TIP3    H158447   5.355   5.598   1.611 -0.6748 -0.9597  0.9970
12344TIP3    H258448   5.295   5.716   1.683 -0.9460 -1.9464  2.4268
12345TIP3   OH258449   1.398   6.730   2.822  0.2333  0.3150  0.2264
12345TIP3    H158450   1.484   6.745   2.861  0.9045 -1.4804 -0.4525
12345TIP3    H258451   1.408   6.758   2.730 -0.0850  0.6056  0.2769
12346TIP3   OH258452   6.539   0.198  15.440  0.0225  0.2660  0.1282
12346TIP3    H158453   6.572   0.206  15.351 -0.9672  1.2619 -0.1764
12346TIP3    H258454   6.447   0.174  15.430  0.1845 -0.7493  0.9156
12347TIP3   OH258455   2.598   5.722  10.931 -0.2683  0.0778  0.1240
12347TIP3    H158456   2.507   5.693  10.934 -0.2995  0.2101  2.4707
12347TIP3    H258457   2.649   5.646  10.961  0.2430  0.4912  0.3211
12348TIP3   OH258458   5.235   5.720  15.273 -1.1543  0.4574  0.1703
12348TIP3    H158459   5.250   5.711  15.179  0.7364  5.1165 -0.2630
12348TIP3    H258460   5.140   5.736  15.280 -1.5862 -1.4388 -0.6637
12349TIP3   OH258461   2.734   0.794  10.407 -0.8648 -0.5546  0.4933
12349TIP3    H158462   2.711   0.753  10.324 -4.0693 -0.1954  1.0462
12349TIP3    H258463   2.739   0.722  10.470 -1.9603 -0.5722  0.5931
12350TIP3   OH258464   2.190   4.312  13.560  0.1581  0.4420 -0.2754
12350TIP3    H158465   2.267   4.262  13.534  0.9481  1.2204  0.4890
12350TIP3    H258466   2.226   4.392  13.599 -1.0010  0.2649  1.2390
12351TIP3   OH258467   4.843   6.293   5.220 -0.8347 -0.4109 -0.2154
12351TIP3    H158468   4.887   6.333   5.294  0.5654 -1.3347 -0.5031
12351TIP3    H258469   4.750   6.312   5.233 -0.5734 -0.2598  1.5600
12352TIP3   OH258470   2.768   6.020   6.102  0.5684 -0.6876  0.4829
12352TIP3    H158471   2.863   6.011   6.095  0.6997  1.6273 -3.3159
12352TIP3    H258472   2.755   6.062   6.188  2.9249 -1.0454  1.0993
12353TIP3   OH258473   4.119   0.591  11.996 -0.3114 -0.2722 -0.4724
12353TIP3    H158474   4.105   0.497  12.008 -1.2998 -0.1661 -0.6613
12353TIP3    H258475   4.038   0.622  11.955  0.3333  0.5196 -1.1919
12354TIP3   OH258476   4.537   1.151  13.872 -0.5374  0.0243  0.3688
12354TIP3    H158477   4.513   1.077  13.816 -2.2560 -0.6379  1.8765
12354TIP3    H258478   4.573   1.110  13.951  0.2150  0.8789  0.4859
12355TIP3   OH258479   1.348   5.622   3.867 -0.1915  0.5017 -0.2863
12355TIP3    H158480   1.340   5.648   3.958  1.6538  0.1665  0.0046
12355TIP3    H258481   1.442   5.628   3.848 -0.4367 -0.2131 -1.9189
12356TIP3   OH258482   1.819   2.737  14.449 -0.0319 -0.1623 -0.2688
12356TIP3    H158483   1.739   2.694  14.480  0.4836  0.2114  1.7485
12356TIP3    H258484   1.851   2.680  14.380  0.1023 -2.5748  1.6266
12357TIP3   OH258485   5.639   3.781  15.612 -0.7031 -0.3903 -0.3458
12357TIP3    H158486   5.613   3.830  15.534 -1.5666  0.7674  0.6315
12357TIP3    H258487   5.558   3.744  15.647 -0.6955  0.9254  1.1853
12358TIP3   OH258488   6.664   2.103  13.087  0.1555 -0.3664  0.4786
12358TIP3    H158489   6.630   2.069  13.170 -0.6445 -0.9585 -0.0690
12358TIP3    H258490   6.737   2.044  13.065  1.8228  1.0989  1.8161
12359TIP3   OH258491   4.403   2.594  13.791 -0.1716 -0.0610 -0.1399
12359TIP3    H158492   4.428   2.503  13.778  0.1525  0.1179 -0.8209
12359TIP3    H258493   4.326   2.591  13.848  0.4199 -0.7045  0.6355
12360TIP3   OH258494   1.590   0.579   4.806  0.0966 -0.0879 -0.4030
12360TIP3    H158495   1.636   0.658   4.777 -0.2078 -0.2181 -1.2966
12360TIP3    H258496   1.505   0.585   4.763 -0.0052 -0.7925 -0.3079
12361TIP3   OH258497   3.808   2.834   2.421  0.1889  0.1875  0.2000
12361TIP3    H158498   3.801   2.870   2.332  2.2175  1.6556  0.5639
12361TIP3    H258499   3.742   2.881   2.471 -0.6836 -0.3494 -0.4195
12362TIP3   OH258500   0.971   2.370   4.567 -0.2457 -0.1617 -0.1617
12362TIP3    H158501   1.014   2.284   4.558  0.1878 -0.0090  0.3766
12362TIP3    H258502   1.034   2.432   4.530 -0.0404  0.0529  0.5383
12363TIP3   OH258503   3.226   3.688   5.118 -0.1279  0.2718 -0.2224
12363TIP3    H158504   3.300   3.725   5.071 -0.1631  0.2241 -0.3165
12363TIP3    H258505   3.246   3.702   5.210  0.9288 -1.4871 -0.1534
12364TIP3   OH258506   0.047   5.565   0.495  0.4453 -0.3360  0.6397
12364TIP3    H158507   0.122   5.597   0.445  1.7834 -2.5921  1.0569
12364TIP3    H258508   0.008   5.498   0.440 -0.6160  0.0512  0.9015
12365TIP3   OH258509   4.804   3.319  11.328  0.1990 -0.8807  0.4459
12365TIP3    H158510   4.806   3.404  11.285 -0.7012 -0.8660  0.4172
12365TIP3    H258511   4.887   3.278  11.304  0.0023 -0.6055 -0.7665
12366TIP3   OH258512   4.895   4.914  15.054  0.5660  0.6052 -0.3363
12366TIP3    H158513   4.982   4.949  15.069 -0.1404  1.2112  3.1258
12366TIP3    H258514   4.888   4.838  15.112 -0.9333  0.0647 -1.1538
12367TIP3   OH258515   6.444   3.726   5.388  0.2417  0.1117  0.0623
12367TIP3    H158516   6.392   3.795   5.347 -1.0647 -1.3517 -0.9033
12367TIP3    H258517   6.507   3.772   5.443 -1.1563  2.0206  0.1627
12368TIP3   OH258518   4.757   0.668  15.657  0.2358  0.4719  0.1630
12368TIP3    H158519   4.731   0.686  15.747  0.4963 -1.7513  0.7470
12368TIP3    H258520   4.788   0.577  15.659 -1.4052 -0.2596 -2.5121
12369TIP3   OH258521   4.560   5.648  12.819 -0.0611  0.6932 -0.5142
12369TIP3    H158522   4.502   5.722  12.798  0.4007  1.1332 -0.2733
12369TIP3    H258523   4.615   5.637  12.741 -1.1123 -0.3701 -1.1391
12370TIP3   OH258524   3.770   0.889   1.100  0.3781  0.1544  0.2670
12370TIP3    H158525   3.728   0.970   1.130  0.7852 -0.3347  2.3416
12370TIP3    H258526   3.862   0.913   1.088 -0.0654  0.7944 -2.5697
12371TIP3   OH258527   0.331   2.728  16.968 -0.1328 -0.4804 -0.1448
12371TIP3    H158528   0.343   2.822  16.962 -3.5981  0.0355 -1.3917
12371TIP3    H258529   0.384   2.692  16.897 -0.4247  0.7463 -1.0178
12372TIP3   OH258530   5.336   4.394  14.000 -0.4209  0.0541  0.1830
12372TIP3    H158531   5.344   4.365  13.909 -2.0750  0.5297 -0.1487
12372TIP3    H258532   5.397   4.467  14.007 -0.6019  0.3099 -0.6975
12373TIP3   OH258533   1.838   2.608  15.574 -0.2980 -0.3017  0.1224
12373TIP3    H158534   1.890   2.689  15.579  1.7292 -1.4992 -0.1292
12373TIP3    H258535   1.831   2.591  15.480  1.0150 -1.4042  0.1932
12374TIP3   OH258536   5.470   3.549  14.500 -0.6947  0.1568  0.3122
12374TIP3    H158537   5.440   3.627  14.453 -1.5589  0.2238  0.9570
12374TIP3    H258538   5.390   3.501  14.522 -0.2510 -0.3056  0.9640
12375TIP3   OH258539   3.077   0.907   2.670 -0.1546  0.5617 -0.3752
12375TIP3    H158540   2.986   0.932   2.686  0.0725  0.7852  0.6583
12375TIP3    H258541   3.075   0.856   2.590 -1.0693  1.3267 -0.8592
12376TIP3   OH258542   4.319   2.813  10.771  0.0897 -0.5755 -0.2152
12376TIP3    H158543   4.224   2.806  10.762  0.0400  0.0484 -0.2560
12376TIP3    H258544   4.332   2.878  10.841  0.4880 -0.8031 -0.0695
12377TIP3   OH258545   6.043   4.247   2.550 -0.2703 -0.2672  0.6658
12377TIP3    H158546   6.136   4.245   2.528  0.4156  0.3626  3.1563
12377TIP3    H258547   6.018   4.155   2.558  0.0503 -0.4449 -0.2827
12378TIP3   OH258548   1.093   4.092   3.204 -0.4066 -0.3055  0.0747
12378TIP3    H158549   1.171   4.066   3.154 -1.0232 -1.4888 -0.3057
12378TIP3    H258550   1.117   4.077   3.295 -0.5488 -1.7116 -0.1057
12379TIP3   OH258551   0.996   4.396  15.168 -0.9644  0.2274  0.0276
12379TIP3    H158552   0.990   4.311  15.125 -1.3935 -0.1168  0.7551
12379TIP3    H258553   0.994   4.376  15.261  0.1469  0.9502  0.2202
12380TIP3   OH258554   5.189   5.092  15.973  0.3203  0.1244  0.0910
12380TIP3    H158555   5.259   5.103  16.037  0.3196  1.3799 -0.1026
12380TIP3    H258556   5.228   5.117  15.889 -0.1380  0.0900 -0.1380
12381TIP3   OH258557   2.087   2.909   5.021  0.0381 -0.2295  0.2871
12381TIP3    H158558   2.121   2.847   4.957  1.1760  1.7726 -1.1398
12381TIP3    H258559   2.164   2.942   5.067 -0.2860  1.5250 -0.3354
12382TIP3   OH258560   2.508   4.821   3.778 -0.1516 -0.1675  0.4328
12382TIP3    H158561   2.492   4.728   3.763 -1.1258  0.2056 -1.2021
12382TIP3    H258562   2.518   4.857   3.690 -0.1023  1.3149  1.0221
12383TIP3   OH258563   0.701   1.956   5.274 -0.4883  0.3556 -0.4113
12383TIP3    H158564   0.634   1.970   5.340  0.3014 -0.8348  0.7031
12383TIP3    H258565   0.696   1.862   5.254 -1.1051  0.7798 -2.5156
12384TIP3   OH258566   1.868   0.043   3.863 -0.0224 -0.1659  0.6308
12384TIP3    H158567   1.799   0.097   3.902 -1.0372  0.1465 -1.4414
12384TIP3    H258568   1.940   0.105   3.846  0.0372 -0.1090  1.0802
12385TIP3   OH258569   5.604   6.068   0.874 -0.1140  0.5224  0.0316
12385TIP3    H158570   5.530   6.119   0.906 -0.4768 -0.2230  0.4067
12385TIP3    H258571   5.567   5.984   0.850  0.7147 -0.1352  0.9707
12386TIP3   OH258572   3.768   1.371   2.225  0.2360  0.5691 -0.0600
12386TIP3    H158573   3.700   1.307   2.248  1.3388 -0.3952  0.6195
12386TIP3    H258574   3.725   1.456   2.236 -0.8760 -0.0073  0.2942
12387TIP3   OH258575   4.152   6.264   1.936  0.1706 -0.2391 -0.6394
12387TIP3    H158576   4.199   6.347   1.948 -1.4895  0.3838  2.8722
12387TIP3    H258577   4.126   6.264   1.844  3.4707  1.2313 -1.7480
12388TIP3   OH258578   0.272   6.145   3.816 -0.6939 -0.5563  0.5088
12388TIP3    H158579   0.240   6.055   3.808 -3.3069  0.2775  0.6961
12388TIP3    H258580   0.198   6.199   3.791  1.0388  1.5835 -0.2974
12389TIP3   OH258581   0.969   5.705  14.679 -0.3930  0.4010 -0.5362
12389TIP3    H158582   1.004   5.619  14.658 -1.5720 -0.2518  0.0486
12389TIP3    H258583   0.932   5.696  14.767  0.0822  1.7095 -0.1661
12390TIP3   OH258584   6.072   3.892   0.990 -0.1756  0.0244  0.5449
12390TIP3    H158585   6.003   3.828   0.976 -0.6838  0.6078  0.3149
12390TIP3    H258586   6.136   3.874   0.921 -0.7580  0.3486 -0.0907
12391TIP3   OH258587   2.094   6.622  15.152  0.5752  0.2421 -0.2073
12391TIP3    H158588   2.027   6.677  15.193 -0.5712 -1.2715  0.0387
12391TIP3    H258589   2.057   6.597  15.068  0.8736 -0.5020 -0.1271
12392TIP3   OH258590   0.735   3.155   3.327  0.3687  0.0587 -0.6264
12392TIP3    H158591   0.748   3.064   3.300  3.3113 -0.6224  2.4075
12392TIP3    H258592   0.790   3.205   3.266 -0.0387 -0.3316 -1.3393
12393TIP3   OH258593   6.564   3.287   1.082  0.1245  0.6240 -0.3807
12393TIP3    H158594   6.574   3.304   1.176 -1.3074 -0.2437 -0.0452
12393TIP3    H258595   6.592   3.369   1.040 -0.0922  1.3558  0.8432
12394TIP3   OH258596   1.724   1.140  16.605 -0.9144  0.4314 -0.3396
12394TIP3    H158597   1.701   1.226  16.572 -0.6603  0.5830 -0.1300
12394TIP3    H258598   1.653   1.083  16.576 -2.9795  1.3336  2.5227
12395TIP3   OH258599   4.684   6.304  13.151  0.3757 -0.0791 -0.0158
12395TIP3    H158600   4.689   6.218  13.111  0.3089  0.7239 -1.8755
12395TIP3    H258601   4.770   6.343  13.136  0.6139 -0.0321  1.3608
12396TIP3   OH258602   0.271   2.225  12.988 -0.1321 -0.4796 -0.9155
12396TIP3    H158603   0.256   2.243  13.081 -0.5430  0.1165 -1.0883
12396TIP3    H258604   0.366   2.224  12.978 -0.0868 -0.4990 -0.5022
12397TIP3   OH258605   5.418   5.588  12.989  0.1868  0.0340  0.4541
12397TIP3    H158606   5.438   5.572  13.081 -1.7265 -2.5022  0.5417
12397TIP3    H258607   5.351   5.656  12.990 -1.5782 -1.6189  1.2030
12398TIP3   OH258608   2.180   0.458  13.960  0.0603  0.4557  0.4769
12398TIP3    H158609   2.174   0.424  13.871  2.3759 -0.6611  0.6726
12398TIP3    H258610   2.233   0.538  13.951  1.5727 -0.4502  0.9691
12399TIP3   OH258611   3.237   1.816   2.065 -0.5551 -0.6345 -0.3054
12399TIP3    H158612   3.147   1.789   2.083 -0.4779 -1.5459 -1.2167
12399TIP3    H258613   3.266   1.858   2.146 -2.0869  0.4877 -0.3045
12400TIP3   OH258614   2.253   3.750   4.397  0.2615 -0.2416 -0.0957
12400TIP3    H158615   2.267   3.695   4.474 -3.5549 -1.2564  0.0683
12400TIP3    H258616   2.235   3.687   4.326 -1.9497  0.6627 -0.4175
12401TIP3   OH258617   0.427   2.216  16.867 -0.4407 -0.7833 -0.8380
12401TIP3    H158618   0.515   2.185  16.888 -0.1226  1.1158  1.0150
12401TIP3    H258619   0.430   2.233  16.773  1.0757 -1.0415 -0.8750
12402TIP3   OH258620   2.040   1.781  16.964 -0.0247 -0.1851  0.1091
12402TIP3    H158621   1.968   1.737  17.010  1.0769  0.5207  2.7247
12402TIP3    H258622   2.017   1.774  16.871 -2.4449 -1.6993  0.7167
12403TIP3   OH258623   0.469   2.074  16.479 -0.1691 -0.0115  0.1720
12403TIP3    H158624   0.425   2.153  16.509 -0.6083  0.6670 -2.0800
12403TIP3    H258625   0.561   2.099  16.469 -0.2178  0.0723 -0.0676
12404TIP3   OH258626   2.926   2.517   3.150 -0.1309  0.1685 -0.1102
12404TIP3    H158627   2.886   2.568   3.220  2.0954  1.3127  0.3980
12404TIP3    H258628   3.011   2.558   3.135  0.7143 -1.8828 -1.4173
12405TIP3   OH258629   6.458   4.647  16.825  0.0797  0.4277  0.2577
12405TIP3    H158630   6.512   4.580  16.866 -2.3564 -1.1638  1.1190
12405TIP3    H258631   6.499   4.665  16.741  2.5487  0.2281  1.3514
12406TIP3   OH258632   2.028   4.987  10.382  0.1219 -0.2832 -0.1332
12406TIP3    H158633   1.964   5.025  10.442  0.1183 -2.0928  1.0827
12406TIP3    H258634   1.977   4.956  10.308 -0.2430 -0.4552  0.1865
12407TIP3   OH258635   1.211   4.698   0.845  0.2696 -0.2638  0.4423
12407TIP3    H158636   1.263   4.775   0.820 -0.3806  0.3070  0.8174
12407TIP3    H258637   1.134   4.735   0.887 -0.0514 -1.1338  0.6162
12408TIP3   OH258638   5.346   6.446   5.273  0.1987 -0.5315 -0.0628
12408TIP3    H158639   5.281   6.501   5.316  0.1799 -2.2689  2.4079
12408TIP3    H258640   5.407   6.507   5.233 -1.7983  1.1707 -0.7063
12409TIP3   OH258641   4.286   4.098  16.116  0.0615  0.6290  0.1706
12409TIP3    H158642   4.204   4.055  16.139  0.3601  0.2374  0.5398
12409TIP3    H258643   4.297   4.082  16.023 -0.2919  0.7036  0.1143
12410TIP3   OH258644   1.727   5.857   2.949 -0.3932  0.1789 -0.2121
12410TIP3    H158645   1.705   5.789   2.885  0.8255 -0.0352 -0.4187
12410TIP3    H258646   1.645   5.871   2.997 -0.5132 -1.9158  0.2817
12411TIP3   OH258647   4.132   0.285   0.111  0.6181 -0.2538  0.2363
12411TIP3    H158648   4.164   0.213   0.165 -0.6275  0.0003  1.3633
12411TIP3    H258649   4.037   0.286   0.126  0.4156  0.6641 -0.9398
12412TIP3   OH258650   3.555   3.775  13.533 -0.3892 -0.1692 -0.1366
12412TIP3    H158651   3.575   3.828  13.611 -0.0264  0.3425 -0.5693
12412TIP3    H258652   3.464   3.797  13.512 -0.1257  0.5835 -0.5360
12413TIP3   OH258653   5.133   4.005   0.893  0.2934  0.2518  0.1374
12413TIP3    H158654   5.224   4.017   0.920  1.0838 -0.0228 -2.2106
12413TIP3    H258655   5.086   4.076   0.938  1.5147  0.0626  1.8438
12414TIP3   OH258656   4.268   0.638   3.680  0.8023  0.2360  0.2615
12414TIP3    H158657   4.198   0.701   3.699 -1.3759 -1.7201 -0.8303
12414TIP3    H258658   4.305   0.616   3.766  0.3566  1.5628  0.8179
12415TIP3   OH258659   5.919   4.227  13.402 -0.6747 -0.5067 -0.1716
12415TIP3    H158660   5.882   4.285  13.335 -1.3972 -0.7971 -0.0359
12415TIP3    H258661   5.934   4.144  13.356  0.5255 -0.1618 -0.4101
12416TIP3   OH258662   6.507   3.095   3.769 -0.0022  0.2730 -0.3678
12416TIP3    H158663   6.562   3.170   3.788 -0.9999  1.1571 -0.8305
12416TIP3    H258664   6.487   3.103   3.676  0.8830 -1.2738 -0.7170
12417TIP3   OH258665   4.231   6.520  14.997  0.5301 -0.1496  0.1195
12417TIP3    H158666   4.213   6.514  15.091  1.0652 -0.0437  0.2326
12417TIP3    H258667   4.162   6.577  14.963  0.7829  0.4486  0.5833
12418TIP3   OH258668   1.474   5.013  15.125  0.0046  0.6664 -0.1490
12418TIP3    H158669   1.465   5.000  15.220  0.6422 -0.1686 -0.1939
12418TIP3    H258670   1.429   4.937  15.087  0.4404  0.5864 -0.5018
12419TIP3   OH258671   1.367   6.674  14.720  0.3977 -0.6861 -0.3708
12419TIP3    H158672   1.272   6.661  14.726  0.4094 -0.9256 -0.6659
12419TIP3    H258673   1.396   6.682  14.810  0.2450 -1.7406 -0.2161
12420TIP3   OH258674   5.173   3.559  12.637  0.1220 -0.0684 -0.1937
12420TIP3    H158675   5.240   3.490  12.634  0.4812  0.2381  0.5416
12420TIP3    H258676   5.171   3.595  12.548 -0.6241 -1.5303 -0.8067
12421TIP3   OH258677   3.884   1.582  14.639 -0.3685  0.2922 -0.0616
12421TIP3    H158678   3.930   1.653  14.594 -0.3947  0.1938 -0.2464
12421TIP3    H258679   3.926   1.576  14.725  0.8175 -0.6242 -0.6673
12422TIP3   OH258680   3.747   5.925   3.943  0.3603  0.3696  0.6142
12422TIP3    H158681   3.741   5.939   4.037  1.3153  0.2499  0.6943
12422TIP3    H258682   3.831   5.883   3.929 -0.1045 -0.3278 -0.2176
12423TIP3   OH258683   1.484   2.270   1.897  0.2074  0.1750  0.2561
12423TIP3    H158684   1.522   2.351   1.933 -0.9781  1.3655 -1.0624
12423TIP3    H258685   1.556   2.230   1.847  0.3874  1.2446 -0.3760
12424TIP3   OH258686   2.837   1.467  12.453  0.2255 -0.0682  0.4778
12424TIP3    H158687   2.756   1.512  12.429  0.0455 -1.1186 -0.9744
12424TIP3    H258688   2.878   1.444  12.369  2.1191  0.5660  1.1712
12425TIP3   OH258689   4.421   1.349   2.595 -0.0162  0.3536  0.1675
12425TIP3    H158690   4.456   1.424   2.643  0.9355 -1.7048  2.9777
12425TIP3    H258691   4.498   1.298   2.572 -0.6662  0.0585 -1.4189
12426TIP3   OH258692   3.882   1.526  14.295  0.1864 -0.1413 -0.0782
12426TIP3    H158693   3.959   1.551  14.244  0.5339 -0.3078  0.3611
12426TIP3    H258694   3.903   1.441  14.332  0.2930  0.3511  1.0444
12427TIP3   OH258695   6.063   5.452   0.226 -0.4934  0.1388 -0.2324
12427TIP3    H158696   6.070   5.542   0.259 -1.0005  0.4785 -1.0114
12427TIP3    H258697   5.968   5.435   0.225 -0.6574  0.7736 -3.0857
12428TIP3   OH258698   0.599   5.111   0.215 -0.1079  0.1133 -0.6974
12428TIP3    H158699   0.571   5.138   0.127  0.3638 -0.1880 -0.9442
12428TIP3    H258700   0.687   5.075   0.202 -0.7695 -1.6708 -0.3893
12429TIP3   OH258701   2.992   2.125   3.433 -0.8961  0.3037 -0.3865
12429TIP3    H158702   3.061   2.096   3.373 -1.5821  1.7260 -1.9554
12429TIP3    H258703   3.022   2.210   3.465 -0.5928 -0.3939  1.2516
12430TIP3   OH258704   4.783   1.862  12.916  0.4196 -0.3518 -0.0917
12430TIP3    H158705   4.777   1.939  12.973 -1.8316 -1.0368  0.7308
12430TIP3    H258706   4.876   1.849  12.902  0.8915  1.8357  0.6922
12431TIP3   OH258707   6.774   0.802   0.319  0.3637  0.1682  0.3868
12431TIP3    H158708   6.731   0.860   0.382 -1.0376  0.5916 -0.9182
12431TIP3    H258709   6.786   0.720   0.366 -1.8040  0.0730  0.8420
12432TIP3   OH258710   3.811   3.474   0.648 -0.3517  0.1396 -0.4131
12432TIP3    H158711   3.849   3.554   0.610  0.0775  0.6460  0.9833
12432TIP3    H258712   3.887   3.428   0.686 -0.7692 -0.2632 -0.0570
12433TIP3   OH258713   3.011   3.475  13.911 -0.4093 -0.4352  0.2661
12433TIP3    H158714   3.023   3.380  13.907 -0.0362 -0.4823  1.8855
12433TIP3    H258715   3.085   3.510  13.862 -0.8510 -0.9730 -0.8191
12434TIP3   OH258716   4.544   3.960  15.888 -0.1493  0.0999 -0.2015
12434TIP3    H158717   4.634   3.938  15.913 -0.1246 -0.2257 -0.5812
12434TIP3    H258718   4.550   3.986  15.796 -0.0798  2.2316  0.3377
12435TIP3   OH258719   5.562   2.961  12.344 -0.1527  0.0670 -0.2320
12435TIP3    H158720   5.488   2.901  12.342  0.1591 -0.3171 -0.7307
12435TIP3    H258721   5.569   2.993  12.254  1.0914 -0.9280 -0.5206
12436TIP3   OH258722   4.036   5.226  16.351  0.2119  0.5779 -0.7568
12436TIP3    H158723   4.116   5.175  16.343  0.2765  0.3506  0.9174
12436TIP3    H258724   4.054   5.290  16.420 -1.0391  0.4857 -0.3057
12437TIP3   OH258725   5.647   2.027  13.957  0.1443  0.4982  0.1250
12437TIP3    H158726   5.606   1.979  13.885 -0.0013  0.0137  0.5231
12437TIP3    H258727   5.733   2.052  13.922  0.9194 -1.5030  0.4393
12438TIP3   OH258728   1.094   0.662   4.440 -0.1027  0.0660 -0.5694
12438TIP3    H158729   1.004   0.684   4.416 -0.7813  0.0511  1.7099
12438TIP3    H258730   1.085   0.605   4.517  1.8532  0.3154 -0.1106
12439TIP3   OH258731   4.955   1.413   5.309 -0.4865 -0.3061 -0.0283
12439TIP3    H158732   4.868   1.383   5.281 -0.1286  0.0458 -1.5643
12439TIP3    H258733   5.007   1.416   5.229  0.1455  2.2531  0.3831
12440TIP3   OH258734   1.197   6.386   4.064  0.0062  0.1632 -0.5688
12440TIP3    H158735   1.132   6.378   4.134  0.9830  0.7368  0.4397
12440TIP3    H258736   1.146   6.383   3.983 -1.4265  1.8304  0.2084
12441TIP3   OH258737   5.625   3.762  13.577 -0.4539  0.4303  0.1492
12441TIP3    H158738   5.684   3.799  13.512 -2.7751  1.9318 -1.2317
12441TIP3    H258739   5.546   3.741  13.528 -0.3912 -3.7793  1.4408
12442TIP3   OH258740   5.095   5.106   1.299 -0.1160  0.8047 -0.0967
12442TIP3    H158741   5.146   5.071   1.373 -0.9890  1.1519  0.6855
12442TIP3    H258742   5.161   5.126   1.232  0.4782 -1.9860 -0.4745
12443TIP3   OH258743   3.610   6.323   5.407  0.3883  0.2836  0.2725
12443TIP3    H158744   3.606   6.229   5.424 -0.2691  0.3156  0.3395
12443TIP3    H258745   3.664   6.359   5.477  1.3360 -0.1419 -0.2192
12444TIP3   OH258746   2.536   2.753   1.735  0.1189 -0.6448  0.1078
12444TIP3    H158747   2.518   2.845   1.750  1.7891 -0.3195  0.2356
12444TIP3    H258748   2.471   2.707   1.788  1.0676  0.4622  2.3566
12445TIP3   OH258749   5.360   1.909  10.818  0.2564 -0.4152 -0.1605
12445TIP3    H158750   5.324   1.877  10.736  0.6664  0.3694 -0.6556
12445TIP3    H258751   5.447   1.943  10.796  0.5842 -0.6692  0.6902
12446TIP3   OH258752   3.005   2.856  15.985 -0.4790  0.2312 -0.1415
12446TIP3    H158753   3.037   2.796  15.917 -0.1466  0.2733 -0.0236
12446TIP3    H258754   2.994   2.940  15.939  0.3586  0.4244 -0.0100
12447TIP3   OH258755   6.419   5.328   4.210 -0.1227 -0.1291  0.2650
12447TIP3    H158756   6.328   5.356   4.204 -0.1215 -0.0783  0.4812
12447TIP3    H258757   6.419   5.237   4.180 -0.0557  0.2336 -0.9099
12448TIP3   OH258758   4.062   5.077   2.195  0.3285  0.2437  0.7345
12448TIP3    H158759   3.987   5.056   2.251  0.7397 -1.5565  0.6432
12448TIP3    H258760   4.136   5.081   2.256  0.4444  0.3163  0.5896
12449TIP3   OH258761   6.036   1.468   0.217 -0.0099 -0.2525 -0.8012
12449TIP3    H158762   6.112   1.524   0.234 -0.3864 -0.0259  0.1935
12449TIP3    H258763   6.012   1.488   0.127  0.4423  0.4826 -0.7697
12450TIP3   OH258764   4.393   1.604   1.959  0.0809 -0.7376 -0.2467
12450TIP3    H158765   4.318   1.548   1.980 -0.5796  0.7417  1.7008
12450TIP3    H258766   4.458   1.584   2.027  0.4103 -0.1693 -0.3893
12451TIP3   OH258767   6.750   2.883  12.676  0.2676  0.1774 -0.0474
12451TIP3    H158768   6.706   2.924  12.751  1.4074  0.4868  0.4765
12451TIP3    H258769   6.723   2.936  12.601  0.6299  1.0611  0.4252
12452TIP3   OH258770   2.634   3.565   0.195  1.0971  0.0108 -0.8296
12452TIP3    H158771   2.662   3.591   0.107  1.1121  0.7790 -0.6047
12452TIP3    H258772   2.694   3.611   0.253  1.1279 -0.5460 -0.4107
12453TIP3   OH258773   5.298   1.615  14.450  0.3337 -0.1414  0.1109
12453TIP3    H158774   5.271   1.680  14.515  0.0349  0.5539 -0.6866
12453TIP3    H258775   5.333   1.542  14.502 -0.0101  0.3405  1.0465
12454TIP3   OH258776   1.527   5.485  16.402  0.1528  0.4726  0.6508
12454TIP3    H158777   1.557   5.488  16.493 -0.0154 -0.6135  0.7468
12454TIP3    H258778   1.508   5.576  16.381  0.9930  0.8488  1.4358
12455TIP3   OH258779   1.235   5.129   3.815  0.3760 -0.5319  0.2107
12455TIP3    H158780   1.329   5.146   3.808  0.1902  0.6194  0.3355
12455TIP3    H258781   1.200   5.206   3.860 -0.5912 -1.0665  0.3879
12456TIP3   OH258782   1.069   3.818   2.841  0.3525 -0.0648 -0.0678
12456TIP3    H158783   1.039   3.773   2.920 -0.8797 -0.5641 -0.7966
12456TIP3    H258784   1.157   3.783   2.825 -0.1671 -1.4292 -0.0306
12457TIP3   OH258785   4.928   6.389  12.442  0.6438  0.0947 -0.5647
12457TIP3    H158786   4.961   6.308  12.480 -1.2275  0.2970  1.6919
12457TIP3    H258787   4.857   6.363  12.384  0.5656  0.0815 -0.4614
12458TIP3   OH258788   0.200   5.333   0.653  0.2626  0.2015 -0.0930
12458TIP3    H158789   0.189   5.414   0.701  0.5485 -1.0827  2.2651
12458TIP3    H258790   0.154   5.267   0.705 -0.0810 -1.1687 -1.9931
12459TIP3   OH258791   5.429   4.468  11.047 -0.7800 -0.0400  0.1190
12459TIP3    H158792   5.364   4.416  11.094  0.1024  0.4570  1.9659
12459TIP3    H258793   5.451   4.414  10.971 -0.7224 -1.8658  1.3617
12460TIP3   OH258794   2.478   3.346  14.808 -0.7192  0.6286 -0.2207
12460TIP3    H158795   2.517   3.333  14.894 -2.0913  1.5078  0.5705
12460TIP3    H258796   2.465   3.440  14.801  0.4975  0.7166 -1.9341
12461TIP3   OH258797   4.705   3.197  12.331  0.4443  0.2321 -0.2512
12461TIP3    H158798   4.749   3.128  12.381  2.3226  0.7375 -1.1251
12461TIP3    H258799   4.667   3.153  12.256  0.4042 -0.0487 -0.0666
12462TIP3   OH258800   1.054   2.677  11.329 -0.0895 -0.1743  0.1830
12462TIP3    H158801   0.984   2.649  11.270 -1.6699 -0.3696  2.0467
12462TIP3    H258802   1.106   2.598  11.343  0.4918 -0.0512 -1.1577
12463TIP3   OH258803   5.748   3.820  12.108 -1.6173 -0.3734  0.2357
12463TIP3    H158804   5.826   3.765  12.101 -1.0217  0.6071 -1.5341
12463TIP3    H258805   5.694   3.777  12.174  0.1778 -1.3693  1.1184
12464TIP3   OH258806   0.180   6.583  14.708  0.1295  0.0705 -0.3501
12464TIP3    H158807   0.113   6.649  14.726 -2.2144 -2.0253 -0.9931
12464TIP3    H258808   0.258   6.615  14.755 -1.7717  1.7260  1.9031
12465TIP3   OH258809   0.770   6.180  16.739  0.2711  0.1417 -0.4960
12465TIP3    H158810   0.717   6.254  16.711  0.2903  0.1707 -0.4559
12465TIP3    H258811   0.802   6.142  16.657 -1.5825 -1.2085 -0.6507
12466TIP3   OH258812   1.371   3.076   6.078  0.4579  0.7200  0.3398
12466TIP3    H158813   1.415   3.122   6.149  1.8312  0.4319 -0.2940
12466TIP3    H258814   1.316   3.011   6.121  2.0757 -0.1716  1.1381
12467TIP3   OH258815   0.743   0.590  17.086 -0.0692  0.8640 -0.1607
12467TIP3    H158816   0.709   0.524  17.025  1.3199  0.1959 -0.2368
12467TIP3    H258817   0.706   0.673  17.054 -2.5594  0.0899  0.4422
12468TIP3   OH258818   4.648   6.058  11.084 -0.3511 -0.4055  0.0467
12468TIP3    H158819   4.583   6.086  11.149 -0.0833  2.2573 -0.7047
12468TIP3    H258820   4.596   6.032  11.009 -0.6043 -1.3751  0.5446
12469TIP3   OH258821   4.037   1.713  16.000 -0.2384 -0.7447  0.4147
12469TIP3    H158822   3.971   1.682  16.062  0.2020 -2.0135  0.2818
12469TIP3    H258823   4.110   1.742  16.055 -0.7573  0.3584  0.5497
12470TIP3   OH258824   0.023   1.555  15.940  0.4528  0.3579  0.5085
12470TIP3    H158825  -0.010   1.465  15.943 -1.6513  1.0719  0.2380
12470TIP3    H258826   0.068   1.560  15.856 -1.0744  0.0505 -0.3773
12471TIP3   OH258827   0.396   0.552  13.830 -0.5822  0.9332  0.3122
12471TIP3    H158828   0.410   0.646  13.820 -1.0324  0.9273 -0.4664
12471TIP3    H258829   0.301   0.542  13.839 -0.6196  0.4889 -0.4865
12472TIP3   OH258830   5.959   5.565  14.673  0.7216 -0.7720 -0.2372
12472TIP3    H158831   6.021   5.632  14.703 -0.4322 -0.1290  0.8167
12472TIP3    H258832   5.946   5.585  14.580  0.4867  0.4197  0.0333
12473TIP3   OH258833   2.556   2.314   5.271 -0.4492  0.3694 -0.6884
12473TIP3    H158834   2.644   2.277   5.270 -1.0187 -1.0953 -0.0842
12473TIP3    H258835   2.546   2.349   5.359 -1.2403 -1.5717  0.0606
12474TIP3   OH258836   4.891   1.375   2.745 -0.2814  0.2237 -0.2498
12474TIP3    H158837   4.827   1.427   2.794 -0.0694 -0.4253  0.7363
12474TIP3    H258838   4.859   1.376   2.655 -0.5804  1.5893 -0.1497
12475TIP3   OH258839   6.645   2.214  16.118  0.0022  0.3562 -0.4355
12475TIP3    H158840   6.687   2.228  16.203  0.7512 -0.1295 -0.7161
12475TIP3    H258841   6.553   2.196  16.140  0.3252 -0.4518  0.3224
12476TIP3   OH258842   0.606   0.686   0.661  0.1385  0.0936 -0.3156
12476TIP3    H158843   0.543   0.743   0.618 -0.2596 -1.0534 -1.3115
12476TIP3    H258844   0.619   0.725   0.747 -0.2606  1.5639 -0.8843
12477TIP3   OH258845   1.213   5.336  15.198  0.8356 -0.4506  0.5872
12477TIP3    H158846   1.238   5.385  15.276  1.1275 -1.9772  1.4998
12477TIP3    H258847   1.297   5.320  15.153  0.5365  1.8167 -0.9901
12478TIP3   OH258848   1.352   0.225  15.126 -0.0386  0.3676  0.4102
12478TIP3    H158849   1.303   0.183  15.197 -0.8601  0.3659 -0.1348
12478TIP3    H258850   1.389   0.303  15.166 -0.5037  0.3709  0.8494
12479TIP3   OH258851   5.328   4.087  13.059 -0.1884  0.2633 -0.1684
12479TIP3    H158852   5.319   4.133  12.975 -0.9614  1.0777  0.3375
12479TIP3    H258853   5.280   4.005  13.046 -0.9055  0.6911 -0.3158
12480TIP3   OH258854   5.130   5.177  17.116  0.6393  0.1565  0.1809
12480TIP3    H158855   5.179   5.203  17.038  1.7791 -0.9407  0.4934
12480TIP3    H258856   5.119   5.082  17.106  0.8760 -0.0088  1.3852
12481TIP3   OH258857   3.155   3.920  13.582 -0.1929  0.1620 -0.1850
12481TIP3    H158858   3.214   3.977  13.632 -0.0713  0.5495 -0.7575
12481TIP3    H258859   3.092   3.887  13.647 -0.2078  0.8797  0.1710
12482TIP3   OH258860   5.477   0.766  14.666  0.0660  0.1674  0.1216
12482TIP3    H158861   5.553   0.817  14.637 -0.8732  0.1566 -2.6321
12482TIP3    H258862   5.418   0.831  14.704 -0.3575  0.9465 -1.7371
12483TIP3   OH258863   5.882   2.274  10.697  0.0494 -0.3729 -0.2601
12483TIP3    H158864   5.895   2.256  10.604 -1.7697 -0.2759 -0.5636
12483TIP3    H258865   5.964   2.247  10.738  0.9776 -0.1837 -1.9118
12484TIP3   OH258866   4.511   2.920  16.324  0.2237  0.0792 -0.6788
12484TIP3    H158867   4.508   2.944  16.231 -1.2141 -1.1300 -0.9856
12484TIP3    H258868   4.488   2.999  16.371 -1.1675  0.1900 -1.4841
12485TIP3   OH258869   4.543   0.409   6.093  0.0524 -0.0805 -0.2320
12485TIP3    H158870   4.514   0.326   6.132 -1.2249  0.6968  0.5858
12485TIP3    H258871   4.637   0.412   6.111  0.4763 -2.0790 -1.7424
12486TIP3   OH258872   3.394   3.205   1.681  0.4610 -0.0120  0.1744
12486TIP3    H158873   3.452   3.135   1.652 -1.9328 -2.2439  0.3804
12486TIP3    H258874   3.323   3.207   1.616  1.0402  3.1984 -0.5575
12487TIP3   OH258875   6.051   3.293   5.389  0.9726 -0.0392  0.5642
12487TIP3    H158876   5.999   3.348   5.330 -0.0720 -0.2023  1.2945
12487TIP3    H258877   6.006   3.300   5.473  0.9755 -1.7910  0.7517
12488TIP3   OH258878   4.290   5.276  12.535 -0.4015  0.3823  0.1826
12488TIP3    H158879   4.327   5.237  12.614 -1.0327 -2.2031 -0.7136
12488TIP3    H258880   4.208   5.316  12.566  0.2822  1.1226  1.1334
12489TIP3   OH258881   0.427   1.489  13.844 -0.4645 -0.4023 -0.1601
12489TIP3    H158882   0.431   1.504  13.938  1.4216 -0.5957 -0.1580
12489TIP3    H258883   0.393   1.571  13.808  0.4843  0.3348  0.5742
12490TIP3   OH258884   2.238   4.715  15.445  0.2078  0.6270 -0.5623
12490TIP3    H158885   2.272   4.802  15.424  2.3666  0.0764  0.3814
12490TIP3    H258886   2.286   4.656  15.387  0.6010 -0.1325  0.4971
12491TIP3   OH258887   5.403   3.707   4.296  0.3191 -0.1229 -0.3003
12491TIP3    H158888   5.338   3.636   4.297 -0.0681  0.2259 -0.5147
12491TIP3    H258889   5.380   3.759   4.219  2.0092 -1.0711 -1.5392
12492TIP3   OH258890   5.306   0.385  16.728 -0.2995 -0.7197 -0.1177
12492TIP3    H158891   5.211   0.383  16.727 -0.3079 -2.4315 -1.7432
12492TIP3    H258892   5.332   0.361  16.639  1.6849  2.3213 -0.5323
12493TIP3   OH258893   6.762   5.604   0.755 -0.2988 -0.3937  0.4310
12493TIP3    H158894   6.710   5.523   0.756 -0.2550 -0.4196  1.1664
12493TIP3    H258895   6.804   5.604   0.670  1.0071 -1.9962  1.0298
12494TIP3   OH258896   0.555   3.680  16.301  0.5495  0.6202  0.2305
12494TIP3    H158897   0.555   3.775  16.302  0.2770  0.6379 -0.7453
12494TIP3    H258898   0.618   3.656  16.233  0.1187  0.1238 -0.0067
12495TIP3   OH258899   4.661   2.644   1.330  0.6563 -0.1273  0.3173
12495TIP3    H158900   4.596   2.682   1.271 -0.0089  0.5207  1.4415
12495TIP3    H258901   4.614   2.629   1.412  1.8942  0.2954  1.1318
12496TIP3   OH258902   3.277   0.020   1.306 -0.1176  0.0239  0.2055
12496TIP3    H158903   3.197   0.071   1.313 -0.9121 -1.1825  0.3024
12496TIP3    H258904   3.302   0.003   1.397  0.5405  0.8119  0.1824
12497TIP3   OH258905   1.021   0.824   3.024 -0.3373  0.0197  0.3403
12497TIP3    H158906   0.931   0.798   3.005  0.3081 -1.2027 -1.3326
12497TIP3    H258907   1.032   0.907   2.977 -0.6596  0.2845  0.7336
12498TIP3   OH258908   0.169   3.345   6.235 -0.0633 -0.7201 -0.0056
12498TIP3    H158909   0.159   3.311   6.146 -0.6152 -1.4836  0.3322
12498TIP3    H258910   0.096   3.405   6.247  0.5399  0.1008 -0.3786
12499TIP3   OH258911   4.492   5.372   3.876 -0.4928 -0.4539  0.1504
12499TIP3    H158912   4.412   5.364   3.824 -0.9884  2.7614  0.2420
12499TIP3    H258913   4.462   5.399   3.962  0.6629  1.9789 -0.1403
12500TIP3   OH258914   3.683   4.037   2.031 -0.3952 -0.4693 -0.5544
12500TIP3    H158915   3.761   3.984   2.046 -0.5578 -2.1391 -4.4507
12500TIP3    H258916   3.611   3.984   2.065 -0.1442 -0.5459 -0.1362
12501TIP3   OH258917   1.282   0.732  13.752  0.1546  0.0169 -0.5836
12501TIP3    H158918   1.192   0.762  13.739 -0.3480 -0.7340  0.9985
12501TIP3    H258919   1.331   0.813  13.769 -0.0057  0.5290 -2.2615
12502TIP3   OH258920   2.628   5.001  12.931  0.1005  0.7132 -0.5170
12502TIP3    H158921   2.668   4.955  12.858 -0.3120 -0.4166 -0.0486
12502TIP3    H258922   2.569   5.065  12.889 -0.1572  0.0605 -1.1713
12503TIP3   OH258923   4.124   4.020  13.766 -0.0133  0.2032  0.0278
12503TIP3    H158924   4.177   4.099  13.760 -0.0575  0.1714 -1.1556
12503TIP3    H258925   4.078   4.016  13.682 -2.4182  0.5629  1.2623
12504TIP3   OH258926   5.022   2.297   4.951  0.1445  0.6956  0.0876
12504TIP3    H158927   5.066   2.234   5.009 -2.0831 -1.4778 -0.3820
12504TIP3    H258928   5.012   2.376   5.004  3.4000  0.9228  0.5846
12505TIP3   OH258929   5.537   2.078  16.592 -0.2760 -0.4984 -0.3822
12505TIP3    H158930   5.519   2.076  16.498  2.5407 -0.3977 -1.0060
12505TIP3    H258931   5.552   2.170  16.612 -0.4087 -0.5749  0.0756
12506TIP3   OH258932   2.013   4.409   1.131 -0.3605 -0.2768 -0.2162
12506TIP3    H158933   2.022   4.385   1.039 -0.8051 -0.9925 -0.0776
12506TIP3    H258934   1.945   4.477   1.131 -0.0450  0.0444 -0.4609
12507TIP3   OH258935   6.262   0.409  11.277  0.0523  0.2303  0.4196
12507TIP3    H158936   6.260   0.433  11.370  0.9553  2.2060 -0.0143
12507TIP3    H258937   6.189   0.456  11.238  0.9476  1.1585 -0.2040
12508TIP3   OH258938   1.731   0.421  12.160  0.3835 -0.1180  0.4226
12508TIP3    H158939   1.797   0.479  12.199 -0.6712  0.2317  1.7776
12508TIP3    H258940   1.678   0.392  12.234 -1.5123  0.2848 -0.7093
12509TIP3   OH258941   2.117   2.759   4.797  0.1104  0.0789  0.1675
12509TIP3    H158942   2.132   2.774   4.704 -0.3022  0.5217  0.1703
12509TIP3    H258943   2.048   2.692   4.800 -0.5666  0.7642  0.1477
12510TIP3   OH258944   6.622   0.835   4.301  0.2607  0.1581  0.3718
12510TIP3    H158945   6.702   0.854   4.254 -0.2950 -0.4756 -0.8802
12510TIP3    H258946   6.633   0.745   4.333 -0.0959 -0.0618 -0.1189
12511TIP3   OH258947   3.146   4.983  10.797  0.4716  0.1592 -0.4510
12511TIP3    H158948   3.094   5.055  10.833  0.6412 -0.2121  0.5663
12511TIP3    H258949   3.082   4.924  10.758  0.2431  0.2999 -0.2893
12512TIP3   OH258950   4.171   1.405   6.732  0.7112  0.0996  0.2648
12512TIP3    H158951   4.240   1.468   6.714  1.3488 -0.9176 -1.0710
12512TIP3    H258952   4.128   1.391   6.647 -0.2842 -0.2666  0.8096
12513TIP3   OH258953   3.801   2.609   0.218 -0.5275  0.3211  0.0533
12513TIP3    H158954   3.847   2.569   0.291  0.8243 -0.5097 -1.1958
12513TIP3    H258955   3.785   2.699   0.245  0.7515  0.2809  1.0244
12514TIP3   OH258956   5.489   1.447  13.869  0.2284  0.4184 -0.1365
12514TIP3    H158957   5.469   1.533  13.906  0.1523  0.2349  0.2605
12514TIP3    H258958   5.520   1.465  13.780 -0.5271  0.8014 -0.3323
12515TIP3   OH258959   5.158   5.650  11.310  0.1451 -0.3900  0.3914
12515TIP3    H158960   5.075   5.654  11.357  0.8252  1.0320  1.5166
12515TIP3    H258961   5.225   5.649  11.378  1.1033  0.0152 -0.5206
12516TIP3   OH258962   1.356   2.834  12.056 -0.0981  0.1654  0.0534
12516TIP3    H158963   1.298   2.888  12.002 -2.4519 -1.8086  0.4065
12516TIP3    H258964   1.387   2.766  11.997  0.8156  0.4259  0.2144
12517TIP3   OH258965   1.565   1.173  14.498 -0.0018 -0.3221  0.4462
12517TIP3    H158966   1.475   1.172  14.528  0.3923 -1.0655  1.6847
12517TIP3    H258967   1.601   1.089  14.526  1.3794  0.3919  0.9318
12518TIP3   OH258968   5.880   5.978  14.505 -0.0879  0.0301 -0.2918
12518TIP3    H158969   5.878   5.900  14.560  2.6900  0.1133  0.0538
12518TIP3    H258970   5.858   6.050  14.564  1.9158  0.0026  0.5356
12519TIP3   OH258971   0.999   3.096  11.986 -0.4240  0.0429  0.5030
12519TIP3    H158972   0.948   3.097  11.905 -0.4544 -2.5827  0.4066
12519TIP3    H258973   1.086   3.068  11.959 -1.0543 -3.5164  1.5127
12520TIP3   OH258974   0.268   0.882  15.732 -0.0719 -0.2804 -0.4348
12520TIP3    H158975   0.351   0.927  15.749 -1.2417  2.8084 -2.1021
12520TIP3    H258976   0.218   0.891  15.814 -0.0942  1.1557 -0.5778
12521TIP3   OH258977   3.399   0.905  12.195 -0.0830 -0.2500  0.4561
12521TIP3    H158978   3.458   0.887  12.268  0.6132  0.7505  0.1606
12521TIP3    H258979   3.340   0.973  12.227  0.3577  0.3447  0.0429
12522TIP3   OH258980   4.534   6.519  15.193  0.3649 -0.0448  0.1128
12522TIP3    H158981   4.505   6.609  15.181  0.0966 -0.0166  0.9130
12522TIP3    H258982   4.453   6.469  15.207  0.4806 -0.4791 -0.6958
12523TIP3   OH258983   4.479   2.021  15.760 -0.3611 -0.5767 -0.6429
12523TIP3    H158984   4.480   1.925  15.764  2.9791 -0.7547 -2.2770
12523TIP3    H258985   4.479   2.041  15.667  1.4541  0.9118 -0.3725
12524TIP3   OH258986   0.079   0.477  14.668 -0.4067  0.0298  0.1220
12524TIP3    H158987   0.036   0.409  14.617  0.2649  1.1374 -2.0219
12524TIP3    H258988   0.117   0.536  14.603  0.3576  1.6167  1.9101
12525TIP3   OH258989   3.474   3.113  10.758  0.6473  0.4322  0.4887
12525TIP3    H158990   3.429   3.083  10.679  0.1078 -0.8704  1.2727
12525TIP3    H258991   3.427   3.192  10.784 -0.2490 -0.0842  0.4621
12526TIP3   OH258992   6.538   1.577   2.466 -0.0340 -0.3525  0.0817
12526TIP3    H158993   6.540   1.615   2.553  0.6939 -1.0989  0.4037
12526TIP3    H258994   6.550   1.651   2.407 -0.0516  0.0960  0.6292
12527TIP3   OH258995   0.426   1.562   0.053 -0.1356  0.2175  0.1257
12527TIP3    H158996   0.407   1.655   0.041  0.9803  0.2387 -2.1479
12527TIP3    H258997   0.440   1.530  -0.036 -0.1172 -2.0502  0.9001
12528TIP3   OH258998   5.236   0.477  14.974 -0.1555 -0.4551  0.4976
12528TIP3    H158999   5.152   0.481  15.020 -0.5482 -0.6158 -0.2045
12528TIP3    H259000   5.218   0.429  14.893  0.2667  0.8731 -0.4162
12529TIP3   OH259001   6.371   2.653   2.467 -0.3855  0.1957  0.2563
12529TIP3    H159002   6.354   2.597   2.543  0.0268  0.2111  0.3627
12529TIP3    H259003   6.413   2.730   2.504 -0.0782  0.1515 -0.0003
12530TIP3   OH259004   4.012   2.777   1.760  0.1513  0.6830  0.2279
12530TIP3    H159005   3.930   2.818   1.788 -0.0410  0.7066 -0.3365
12530TIP3    H259006   4.053   2.842   1.703  0.5028  0.6232  0.4124
12531TIP3   OH259007   6.357   4.625  14.351 -0.7746  0.5189 -0.0888
12531TIP3    H159008   6.345   4.683  14.426 -0.3175  0.2361  0.2076
12531TIP3    H259009   6.308   4.546  14.373  0.4396 -0.0893  0.5110
12532TIP3   OH259010   6.170   6.600   1.605  1.0271 -0.3212  0.3130
12532TIP3    H159011   6.226   6.576   1.531  0.1479  0.9023 -0.7877
12532TIP3    H259012   6.081   6.586   1.574  0.5534  2.1450  0.3757
12533TIP3   OH259013   2.239   0.961   3.431  0.0809 -0.1792 -0.2198
12533TIP3    H159014   2.193   1.033   3.387  0.1079 -0.2226 -0.3185
12533TIP3    H259015   2.175   0.890   3.432  0.3316 -0.4165 -0.8394
12534TIP3   OH259016   1.893   5.602   1.720  0.4162 -0.2284  0.5771
12534TIP3    H159017   1.815   5.640   1.760  0.6246 -0.0982  0.8598
12534TIP3    H259018   1.943   5.566   1.793  0.3638 -0.7912  0.3423
12535TIP3   OH259019   6.353   4.546   2.855  0.1980 -0.3267 -0.2021
12535TIP3    H159020   6.404   4.626   2.843 -0.6932  0.5256  1.2895
12535TIP3    H259021   6.273   4.562   2.805 -0.9022  0.6738  1.7618
12536TIP3   OH259022   3.271   3.856   1.004 -0.3878  0.2605  0.1082
12536TIP3    H159023   3.200   3.866   0.941 -0.9358 -0.8230  0.5363
12536TIP3    H259024   3.240   3.902   1.082 -1.0170 -0.9438  0.5906
12537TIP3   OH259025   6.229   0.126  11.341 -0.3580  0.5806 -0.2789
12537TIP3    H159026   6.197   0.179  11.414 -2.0218  1.4729 -1.5888
12537TIP3    H259027   6.267   0.190  11.280  2.6263 -0.2888  0.4662
12538TIP3   OH259028   5.003   0.540  15.128 -0.4934  0.1092 -0.0390
12538TIP3    H159029   4.975   0.592  15.204 -2.3952  1.3691 -1.5009
12538TIP3    H259030   4.942   0.466  15.126  0.9436 -1.1643  0.8665
12539TIP3   OH259031   5.391   2.068   1.386 -0.0807 -0.1778 -0.5587
12539TIP3    H159032   5.297   2.053   1.391 -0.1165  0.3528  0.7223
12539TIP3    H259033   5.409   2.136   1.451  1.4650 -1.7403  0.7928
12540TIP3   OH259034   0.083   2.920  16.076 -0.5440  0.3014  0.2636
12540TIP3    H159035   0.071   2.851  16.142 -2.3269  0.3585  0.0593
12540TIP3    H259036   0.139   2.880  16.009 -0.0503 -0.3115  1.0298
12541TIP3   OH259037   0.802   1.556  11.579  0.2236 -0.0103 -0.6019
12541TIP3    H159038   0.891   1.558  11.545 -0.0559  1.0541 -1.3002
12541TIP3    H259039   0.811   1.578  11.672  0.9883 -2.9357  0.1199
12542TIP3   OH259040   2.549   1.548  12.460  0.0532 -0.2571 -0.0838
12542TIP3    H159041   2.540   1.454  12.445 -0.8059  0.0136 -1.4884
12542TIP3    H259042   2.483   1.587  12.403  0.5830  1.2115  0.2775
12543TIP3   OH259043   3.954   4.628   0.911  0.5665 -0.1186  0.3618
12543TIP3    H159044   4.044   4.600   0.895  0.6990  0.4840  0.0553
12543TIP3    H259045   3.961   4.696   0.978  0.2870 -0.4571  0.7416
12544TIP3   OH259046   6.600   3.077   5.091 -0.5407 -1.0293 -0.4713
12544TIP3    H159047   6.613   3.148   5.155  1.3663 -0.3753 -1.5016
12544TIP3    H259048   6.635   2.999   5.135  2.5820 -0.2400 -1.2645
12545TIP3   OH259049   6.269   4.178  11.458  0.9641  0.1285 -0.2662
12545TIP3    H159050   6.364   4.165  11.460  1.2466  1.5748 -1.6142
12545TIP3    H259051   6.258   4.270  11.433 -0.7959  0.0027 -0.1097
12546TIP3   OH259052   6.536   6.211  14.290 -0.2684  0.8088 -0.2592
12546TIP3    H159053   6.458   6.265  14.306  0.9633  2.5533  0.1417
12546TIP3    H259054   6.604   6.274  14.266  1.1866 -0.6001 -0.0025
12547TIP3   OH259055   5.754   5.837  16.227 -0.3013  0.3642  0.4104
12547TIP3    H159056   5.735   5.746  16.204  1.9370  0.4506 -2.4153
12547TIP3    H259057   5.672   5.883  16.210 -1.3913 -1.0462  1.6240
12548TIP3   OH259058   5.828   3.038   3.303  0.1785  0.0544  0.4093
12548TIP3    H159059   5.899   3.041   3.239  1.1115  0.7829  1.4442
12548TIP3    H259060   5.776   2.961   3.278  1.2035 -0.3654 -0.4960
12549TIP3   OH259061   4.404   2.959  15.607 -0.5498  0.1878 -0.0942
12549TIP3    H159062   4.406   2.952  15.702  0.2599  1.4055  0.0020
12549TIP3    H259063   4.495   2.950  15.580 -0.8302 -0.6774 -0.8147
12550TIP3   OH259064   0.742   2.970   1.597 -0.0796  0.4038  0.2291
12550TIP3    H159065   0.737   3.011   1.510  0.4983  0.0213  0.0063
12550TIP3    H259066   0.815   2.908   1.590  0.3550  0.7830  1.1657
12551TIP3   OH259067   4.978   0.035  12.721  0.4887  0.4652 -0.1962
12551TIP3    H159068   4.986  -0.018  12.800  2.2901  0.3576 -0.4285
12551TIP3    H259069   5.067   0.063  12.701 -0.2608  2.6893 -0.7130
12552TIP3   OH259070   2.155   6.137   4.270  0.2459 -1.0253  0.5401
12552TIP3    H159071   2.147   6.082   4.348 -2.0223 -1.2081  0.2414
12552TIP3    H259072   2.069   6.177   4.260  0.8045 -0.1800 -1.2842
12553TIP3   OH259073   0.586   0.478   4.122 -0.2539  0.0258  0.3132
12553TIP3    H159074   0.555   0.522   4.202 -1.1258 -0.4654  0.2637
12553TIP3    H259075   0.657   0.534   4.090 -0.1494  0.4388  1.2167
12554TIP3   OH259076   0.945   0.067   2.604 -0.2015  0.5258  0.4043
12554TIP3    H159077   0.924   0.120   2.682  0.2483  2.2075 -0.5616
12554TIP3    H259078   0.943  -0.023   2.635 -2.9635  0.9225  1.7193
12555TIP3   OH259079   6.104   2.945   0.632 -0.4927  0.3858  0.5934
12555TIP3    H159080   6.111   2.987   0.546 -2.8458  0.9227  0.5870
12555TIP3    H259081   6.015   2.909   0.634 -0.5142  0.4188  2.8215
12556TIP3   OH259082   2.065   4.091   0.745  0.3908  0.0801  0.7123
12556TIP3    H159083   2.031   4.005   0.770 -1.7310  0.8713  0.7749
12556TIP3    H259084   2.022   4.110   0.661  0.6800  1.1588  0.7950
12557TIP3   OH259085   5.850   5.667   6.361 -0.3942 -1.1565  0.5561
12557TIP3    H159086   5.820   5.748   6.403 -1.4943 -1.5053  0.4857
12557TIP3    H259087   5.946   5.672   6.365 -0.4351  0.1709  0.5024
12558TIP3   OH259088   0.776   0.599   2.810 -0.9950  0.2743 -0.3268
12558TIP3    H159089   0.827   0.589   2.729  0.6004  0.8998  0.5555
12558TIP3    H259090   0.791   0.689   2.837  0.4892 -0.5448  1.8885
12559TIP3   OH259091   6.761   1.940   4.951 -0.0605  0.0730 -0.0757
12559TIP3    H159092   6.699   1.962   4.882 -1.1743 -1.6323  0.3116
12559TIP3    H259093   6.847   1.943   4.908 -0.0786  4.3400 -0.1677
12560TIP3   OH259094   2.881   4.776   0.942 -0.3354 -0.2822 -0.0054
12560TIP3    H159095   2.958   4.744   0.991  0.5429  1.3449 -0.2697
12560TIP3    H259096   2.879   4.722   0.864  1.0495  0.1629 -0.3869
12561TIP3   OH259097   2.940   5.942  15.393  0.1380  0.1339 -0.3428
12561TIP3    H159098   3.010   5.900  15.444 -0.5376 -0.2229  0.3163
12561TIP3    H259099   2.953   5.911  15.304  0.5308 -0.3093 -0.1333
12562TIP3   OH259100   2.337   5.176   0.991 -0.0236 -0.3100 -0.1173
12562TIP3    H159101   2.413   5.179   1.049  0.1120 -2.9700 -0.0668
12562TIP3    H259102   2.374   5.160   0.904 -0.4794 -0.8435 -0.2148
12563TIP3   OH259103   0.262   2.276  12.296 -0.3820  0.2343  0.2157
12563TIP3    H159104   0.335   2.288  12.358 -1.0763 -0.6276  1.2271
12563TIP3    H259105   0.187   2.317  12.340 -1.0503 -1.0455  0.2949
12564TIP3   OH259106   0.405   3.401   2.878  0.0226 -0.6988  0.6048
12564TIP3    H159107   0.354   3.474   2.843  2.1485  0.2158 -0.7227
12564TIP3    H259108   0.433   3.352   2.801  1.2082 -1.1421  1.3006
12565TIP3   OH259109   2.181   2.960   0.629  0.0474 -0.1530  0.1589
12565TIP3    H159110   2.160   2.914   0.548  1.9112 -0.0639 -0.4157
12565TIP3    H259111   2.154   3.050   0.614 -1.3802 -0.5161  0.3858
12566TIP3   OH259112   2.205   6.434  14.440  0.5508 -0.0606  0.5635
12566TIP3    H159113   2.126   6.448  14.388  0.0466  1.7347  1.7300
12566TIP3    H259114   2.277   6.437  14.377 -0.0801  1.6099 -0.1104
12567TIP3   OH259115   0.667   2.671  16.319 -0.8963  0.0132 -0.4057
12567TIP3    H159116   0.716   2.735  16.370  1.7879 -2.6347  0.6596
12567TIP3    H259117   0.722   2.657  16.241 -0.6473 -1.9470  0.0793
12568TIP3   OH259118   3.086   5.797   6.498  0.5624  0.5513  0.1967
12568TIP3    H159119   3.059   5.725   6.556  2.0607 -0.3665 -0.1987
12568TIP3    H259120   3.006   5.848   6.486 -0.4217 -0.7211  0.9508
12569TIP3   OH259121   5.341   3.341  12.617  0.7419 -0.8064  0.6537
12569TIP3    H159122   5.259   3.301  12.645  0.1632  0.7210  1.2642
12569TIP3    H259123   5.408   3.278  12.643 -0.1818 -1.8360  0.6296
12570TIP3   OH259124   4.677   0.667   2.013 -0.0257  0.1671  0.2020
12570TIP3    H159125   4.582   0.667   2.027 -0.1602  3.1459 -0.1233
12570TIP3    H259126   4.688   0.628   1.926 -1.0019  0.2504  0.0224
12571TIP3   OH259127   4.970   0.118   1.911 -0.5648 -0.1695 -0.4606
12571TIP3    H159128   4.958   0.191   1.851 -1.6449 -0.9139 -1.1877
12571TIP3    H259129   5.063   0.094   1.902 -0.0431  1.4664  0.2503
12572TIP3   OH259130   3.352   3.925  11.182  0.1856  0.1434  0.7742
12572TIP3    H159131   3.337   3.872  11.104  0.1106 -0.6042  1.2932
12572TIP3    H259132   3.359   4.015  11.149 -0.8795 -0.0340  0.0175
12573TIP3   OH259133   3.198   5.974   1.705 -0.0061 -0.4283 -0.3288
12573TIP3    H159134   3.147   6.012   1.634 -0.1590  0.8870  0.4572
12573TIP3    H259135   3.257   6.044   1.733  0.7240 -1.2293  0.2132
12574TIP3   OH259136   1.968   2.301   1.180 -0.1054 -0.6097 -0.1344
12574TIP3    H159137   1.959   2.279   1.272  1.5635  1.6980  0.6859
12574TIP3    H259138   1.886   2.345   1.157  0.4815  1.2965  1.1235
12575TIP3   OH259139   4.343   0.765  14.131  0.4623 -0.0222 -0.0462
12575TIP3    H159140   4.387   0.836  14.178 -0.3865  0.6438 -0.2218
12575TIP3    H259141   4.375   0.772  14.042  1.9263 -1.1649  0.3480
12576TIP3   OH259142   5.652   5.476   2.606  0.1196  0.4370  0.1227
12576TIP3    H159143   5.716   5.406   2.594 -2.1460 -1.9797  1.3535
12576TIP3    H259144   5.667   5.508   2.695  0.4002  0.7205 -0.0256
12577TIP3   OH259145   0.935   4.163   3.468  0.4998  0.0074 -0.5572
12577TIP3    H159146   1.030   4.176   3.471  0.5173 -0.2481  1.1687
12577TIP3    H259147   0.923   4.069   3.484 -0.0702  0.3634  1.4083
12578TIP3   OH259148   4.123   6.348  11.807  0.1748  0.6180  0.5593
12578TIP3    H159149   4.073   6.307  11.878 -0.2515  1.2714  0.6400
12578TIP3    H259150   4.100   6.296  11.730  1.8711 -1.1209  1.1302
12579TIP3   OH259151   4.119   2.957   4.398  0.7857  0.2268 -0.4498
12579TIP3    H159152   4.044   3.014   4.418  0.3536 -0.8681  1.2473
12579TIP3    H259153   4.158   2.938   4.483  1.5850 -1.1028 -1.0853
12580TIP3   OH259154   4.876   0.572  12.566 -0.4610 -0.6246  0.3849
12580TIP3    H159155   4.910   0.488  12.538 -0.3523 -0.7871  0.9851
12580TIP3    H259156   4.807   0.593  12.503 -0.4401 -1.1293  0.1947
12581TIP3   OH259157   4.875   5.979  11.222 -0.5004 -0.1163 -0.2931
12581TIP3    H159158   4.801   6.017  11.175  0.2116 -0.3214 -1.6653
12581TIP3    H259159   4.949   6.035  11.197  0.1520 -1.0788 -0.5735
12582TIP3   OH259160   0.986   1.224  16.184  0.0574 -0.2596  0.3743
12582TIP3    H159161   0.951   1.302  16.140 -0.6065 -0.9313 -0.3240
12582TIP3    H259162   1.017   1.169  16.112  0.7616 -0.5302  0.8798
12583TIP3   OH259163   5.279   3.810  15.007 -0.4680 -1.0245  0.3727
12583TIP3    H159164   5.370   3.801  15.037 -0.4758 -0.1743  0.6695
12583TIP3    H259165   5.277   3.893  14.960 -0.8736 -1.5098 -0.4821
12584TIP3   OH259166   0.980   6.094   4.538 -0.5203 -0.2034  0.6902
12584TIP3    H159167   0.986   6.095   4.443 -0.5575  1.6545  0.6726
12584TIP3    H259168   1.065   6.060   4.567 -0.7306 -1.3668  0.0143
12585TIP3   OH259169   5.117   2.782  15.592  0.1763  0.1598  0.9253
12585TIP3    H159170   5.043   2.819  15.544 -0.3297 -0.3164  1.3405
12585TIP3    H259171   5.090   2.784  15.684  0.3277 -0.8346  0.9927
12586TIP3   OH259172   4.574   1.592  14.113  0.1113  0.1726  0.5291
12586TIP3    H159173   4.667   1.578  14.134  0.7766  0.4447 -1.8647
12586TIP3    H259174   4.542   1.505  14.089  0.0227  0.2194  0.4789
12587TIP3   OH259175   3.103   2.916  10.507  0.0631 -0.2286  0.3596
12587TIP3    H159176   3.173   2.975  10.477  0.9418 -0.7427  1.3568
12587TIP3    H259177   3.038   2.975  10.547 -0.4201  0.3151 -1.1510
12588TIP3   OH259178   5.886   3.551   4.396 -0.1834  0.5026  0.1595
12588TIP3    H159179   5.802   3.561   4.351  0.4435  1.6047 -0.8129
12588TIP3    H259180   5.951   3.567   4.328  0.8301 -0.6267  0.8358
12589TIP3   OH259181   3.476   0.807  14.378 -0.3249 -0.2783  0.0541
12589TIP3    H159182   3.553   0.772  14.422 -0.0057  0.1870 -0.1196
12589TIP3    H259183   3.476   0.900  14.400  0.3891  0.1781 -1.6657
12590TIP3   OH259184   4.811   0.904  14.594 -0.3071  0.2382  0.4649
12590TIP3    H159185   4.890   0.885  14.544  0.5400  0.2245  1.7528
12590TIP3    H259186   4.758   0.959  14.536  0.0427 -0.8338 -0.9131
12591TIP3   OH259187   6.230   6.077  16.000 -0.0557 -0.1026 -0.0135
12591TIP3    H159188   6.135   6.075  16.012  0.0305 -0.5697  0.6724
12591TIP3    H259189   6.258   6.160  16.038 -0.1861  0.0335 -0.2127
12592TIP3   OH259190   1.222   1.196   2.153  1.3148 -0.6438 -0.3380
12592TIP3    H159191   1.147   1.202   2.213  0.5184 -1.8079 -1.1709
12592TIP3    H259192   1.298   1.210   2.209  0.5729 -1.4037  0.9115
12593TIP3   OH259193   5.158   0.627  12.449 -0.8118  0.2846  0.2251
12593TIP3    H159194   5.104   0.694  12.491 -1.0704 -0.2119  0.6955
12593TIP3    H259195   5.182   0.665  12.364 -0.9701  0.9622  0.4761
12594TIP3   OH259196   0.102   1.852  16.681  0.2472 -0.0487 -0.2106
12594TIP3    H159197   0.030   1.789  16.689  1.7612 -1.8959 -0.5471
12594TIP3    H259198   0.061   1.929  16.641 -1.1801 -1.7642 -2.2848
12595TIP3   OH259199   5.970   3.982   5.296 -0.0513 -0.0055  0.3293
12595TIP3    H159200   5.933   4.021   5.217  0.5280  1.8618  0.8978
12595TIP3    H259201   6.055   4.026   5.305 -0.9162  1.3225  2.9995
12596TIP3   OH259202   0.184   3.165  11.190  0.7447  0.0806 -1.3328
12596TIP3    H159203   0.204   3.224  11.263 -0.1799  0.0519 -1.0372
12596TIP3    H259204   0.197   3.219  11.112  0.1393  0.6199 -1.0745
12597TIP3   OH259205   1.400   0.209   1.457 -0.5664  0.3335  0.5223
12597TIP3    H159206   1.379   0.130   1.407  0.5224  0.9254 -0.9417
12597TIP3    H259207   1.332   0.213   1.524 -1.2946 -1.2387 -0.0546
12598TIP3   OH259208   2.867   4.392   1.493  0.1616 -0.6378 -0.7090
12598TIP3    H159209   2.831   4.446   1.563 -1.9435 -1.7806 -0.8448
12598TIP3    H259210   2.810   4.408   1.418  2.4776  0.7210 -2.3277
12599TIP3   OH259211   6.073   3.239   3.744  0.1961  0.0404  0.7326
12599TIP3    H159212   6.009   3.285   3.690  0.4857  0.1748  0.5021
12599TIP3    H259213   6.096   3.161   3.694 -0.4150 -0.4444  1.1979
12600TIP3   OH259214   0.633   5.429   3.008 -0.6265 -0.4510  0.2939
12600TIP3    H159215   0.612   5.339   3.034 -3.6621  0.6125  2.0467
12600TIP3    H259216   0.560   5.456   2.952 -0.5802  1.3652  1.0368
12601TIP3   OH259217   5.441   0.256  16.513 -0.1842 -0.7273  0.4030
12601TIP3    H159218   5.429   0.298  16.427 -0.0421 -0.7088  0.3918
12601TIP3    H259219   5.534   0.266  16.531 -0.3510 -0.0266  0.9208
12602TIP3   OH259220   0.574   3.082  16.601 -0.5252  0.0207  0.0359
12602TIP3    H159221   0.583   3.097  16.695 -0.7842  0.2413  0.0285
12602TIP3    H259222   0.601   3.164  16.561  0.5166 -0.3960 -0.1329
12603TIP3   OH259223   0.780   0.014  16.044  0.3869 -0.2453  0.2002
12603TIP3    H159224   0.687  -0.007  16.036  0.3126  0.5016 -1.3706
12603TIP3    H259225   0.785   0.071  16.121 -0.3227 -0.8694  0.7285
12604TIP3   OH259226   0.929   1.640   0.021 -0.1801  0.5459  0.0992
12604TIP3    H159227   1.012   1.681  -0.004  0.0926 -0.1509 -0.1652
12604TIP3    H259228   0.864   1.684  -0.034 -0.2806  2.4160  1.6164
12605TIP3   OH259229   0.741   3.224   4.376 -0.1373  0.0330 -0.2492
12605TIP3    H159230   0.652   3.250   4.401 -0.1755 -1.3741  1.2126
12605TIP3    H259231   0.759   3.146   4.429  1.7541 -0.0542 -0.9584
12606TIP3   OH259232   2.741   2.831  13.067 -0.1468  0.1980 -0.0317
12606TIP3    H159233   2.694   2.770  13.125 -1.4403  1.5695  0.4310
12606TIP3    H259234   2.683   2.840  12.991 -0.1432  1.1336  0.0747
12607TIP3   OH259235   1.552   3.288   3.320 -0.2301  0.5231  0.6163
12607TIP3    H159236   1.467   3.245   3.330 -0.3929 -0.4846 -3.4915
12607TIP3    H259237   1.531   3.375   3.286  0.3379  0.2396 -0.5009
12608TIP3   OH259238   0.499   0.989  16.184  0.0471  0.1896 -0.7172
12608TIP3    H159239   0.566   1.001  16.252 -0.3801 -0.8448 -0.1014
12608TIP3    H259240   0.544   0.939  16.116 -0.3575 -1.4688  0.1723
12609TIP3   OH259241   4.622   5.919  10.540  0.2308 -0.4273  0.0762
12609TIP3    H159242   4.696   5.978  10.526  0.9327 -1.1237  0.6753
12609TIP3    H259243   4.552   5.975  10.573  0.4814  0.2506 -0.5219
12610TIP3   OH259244   0.871   1.168  14.834  0.0304 -0.3686  0.3230
12610TIP3    H159245   0.829   1.098  14.883 -2.7762  0.7687 -0.2408
12610TIP3    H259246   0.938   1.124  14.781 -2.7603 -3.0066 -1.3587
12611TIP3   OH259247   3.662   4.478   3.421 -0.2402  0.4070 -0.0770
12611TIP3    H159248   3.640   4.571   3.430 -0.8669  0.3421 -0.8977
12611TIP3    H259249   3.691   4.468   3.331  0.4740 -0.0671  0.1990
12612TIP3   OH259250   4.460   2.569   0.978 -0.5381 -0.3381 -0.3191
12612TIP3    H159251   4.482   2.483   0.941 -1.6254 -0.5635 -0.4525
12612TIP3    H259252   4.371   2.586   0.949 -0.6710  0.4202  0.4896
12613TIP3   OH259253   1.761   0.235   0.250 -0.3967 -0.1573 -0.1095
12613TIP3    H159254   1.743   0.329   0.261  0.3345  0.5710 -3.6477
12613TIP3    H259255   1.732   0.195   0.331  1.7791  3.4192  2.7413
12614TIP3   OH259256   5.886   0.783  15.306  0.1338 -0.2251 -0.3223
12614TIP3    H159257   5.829   0.773  15.382  1.9867 -1.2342  0.9769
12614TIP3    H259258   5.839   0.846  15.250 -0.4593  2.0272  2.4647
12615TIP3   OH259259   3.191   6.542   0.164  0.1242  0.9160 -0.2832
12615TIP3    H159260   3.262   6.594   0.201  1.5661 -0.0517 -1.5454
12615TIP3    H259261   3.145   6.507   0.240  1.4311  1.0359  0.6030
12616TIP3   OH259262   3.615   6.162   1.313 -0.0383 -0.5800 -1.0026
12616TIP3    H159263   3.689   6.193   1.366 -0.0730  0.5698 -1.6092
12616TIP3    H259264   3.584   6.084   1.360  0.7371 -0.3311 -0.0297
12617TIP3   OH259265   1.398   4.394   0.337 -0.5330 -0.3883  0.6813
12617TIP3    H159266   1.318   4.343   0.346 -1.0699  0.5347  1.3848
12617TIP3    H259267   1.429   4.406   0.427 -0.5879  0.7632  0.5630
12618TIP3   OH259268   4.706   3.999  12.686  0.2622  0.0232  0.2210
12618TIP3    H159269   4.666   4.012  12.771 -0.5388 -0.2729 -0.1010
12618TIP3    H259270   4.755   4.080  12.669  1.6293 -0.4585  1.5783
12619TIP3   OH259271   0.675   1.206   0.097  0.3083  0.6823 -0.7086
12619TIP3    H159272   0.627   1.257   0.163  2.8719  1.3349  0.8509
12619TIP3    H259273   0.724   1.272   0.047  3.1934 -0.0151  0.9247
12620TIP3   OH259274   0.117   0.182  12.738 -0.3698  0.4165  0.7167
12620TIP3    H159275   0.152   0.264  12.705 -1.1666  0.5103  0.0529
12620TIP3    H259276   0.152   0.115  12.678 -1.0654  0.4776  0.2292
12621TIP3   OH259277   5.176   4.920   4.053 -0.0366  0.3472  0.6512
12621TIP3    H159278   5.215   4.915   3.966  1.8225  1.5605  1.3634
12621TIP3    H259279   5.145   4.831   4.070  0.4713 -0.1489 -0.8198
12622TIP3   OH259280   0.687   2.163  11.543 -0.5871 -0.4449 -0.3651
12622TIP3    H159281   0.749   2.210  11.488  0.5203 -0.3877  0.8715
12622TIP3    H259282   0.733   2.084  11.569 -0.1826  0.5345  2.2049
12623TIP3   OH259283   4.638   4.775  11.955 -0.1906  0.3284 -0.1122
12623TIP3    H159284   4.548   4.758  11.980 -1.5595  0.2448 -4.2470
12623TIP3    H259285   4.633   4.853  11.899  1.4736 -1.7717 -3.5748
12624TIP3   OH259286   3.104   0.005  13.166  0.2337 -0.2693 -0.1917
12624TIP3    H159287   3.090   0.049  13.082 -0.7630  2.2924  1.2095
12624TIP3    H259288   3.199  -0.010  13.170  0.2440 -0.8349 -1.9164
12625TIP3   OH259289   1.159   2.440   5.489 -0.0355 -0.1989  0.0398
12625TIP3    H159290   1.214   2.363   5.504  1.0864  0.6891  0.7410
12625TIP3    H259291   1.097   2.441   5.561  0.0542 -0.3574  0.1185
12626TIP3   OH259292   4.721   5.652   4.177  0.2144  0.0921 -0.5598
12626TIP3    H159293   4.711   5.584   4.111  1.0131  1.2488 -1.9495
12626TIP3    H259294   4.800   5.627   4.226 -0.4831 -0.8652  0.0979
12627TIP3   OH259295   4.949   3.926   4.576 -0.4852  0.2090  0.2530
12627TIP3    H159296   4.890   3.968   4.513  1.9564  1.2983 -1.4508
12627TIP3    H259297   4.942   3.833   4.556 -0.1268  0.4995 -1.3262
12628TIP3   OH259298   6.579   3.763   4.096  0.1961  0.0633 -0.9803
12628TIP3    H159299   6.602   3.771   4.189 -0.3576  0.4146 -0.8700
12628TIP3    H259300   6.556   3.670   4.085 -1.8315  0.4191 -0.2519
12629TIP3   OH259301   5.161   6.117  14.670 -0.2297 -0.5542  0.2728
12629TIP3    H159302   5.194   6.032  14.698 -2.0202 -1.2160  0.4971
12629TIP3    H259303   5.114   6.098  14.589  0.1428  0.3978 -0.1791
12630TIP3   OH259304   1.107   4.893   4.122  0.1629 -0.0478  1.0820
12630TIP3    H159305   1.094   4.987   4.109  0.0182 -0.3618 -1.4282
12630TIP3    H259306   1.042   4.869   4.189 -0.0366  1.5466  1.5101
12631TIP3   OH259307   1.336   2.269  15.120 -0.5301 -0.4122  0.2945
12631TIP3    H159308   1.367   2.201  15.180  2.6036  0.9434  0.4015
12631TIP3    H259309   1.241   2.273  15.136 -0.9852 -4.9278 -0.0449
12632TIP3   OH259310   5.507   6.791   3.903  0.4865 -0.4094 -0.0847
12632TIP3    H159311   5.531   6.874   3.945  0.6820 -0.9364  0.8839
12632TIP3    H259312   5.477   6.736   3.975  0.5896 -1.2625 -0.6784
12633TIP3   OH259313   4.608   0.336   5.790 -0.4636 -0.3954 -0.2895
12633TIP3    H159314   4.535   0.275   5.797  0.0131 -1.0333 -0.7045
12633TIP3    H259315   4.664   0.315   5.865 -1.0409  0.5652  0.4256
12634TIP3   OH259316   2.018   4.503   4.488 -0.1971  0.7855  0.2404
12634TIP3    H159317   1.961   4.477   4.561 -2.0929  0.6752 -1.1995
12634TIP3    H259318   2.057   4.421   4.457  0.2637  0.7777  0.8193
12635TIP3   OH259319   0.199   3.185   4.015 -0.0208 -0.2279 -0.7481
12635TIP3    H159320   0.133   3.240   4.059  1.6786  0.7289  0.7576
12635TIP3    H259321   0.187   3.098   4.053  1.1986  0.5079  1.5570
12636TIP3   OH259322   2.973   0.830  16.625 -0.2229 -0.7407  0.4856
12636TIP3    H159323   2.910   0.884  16.672  0.8167 -0.0116  1.0988
12636TIP3    H259324   2.976   0.866  16.537 -1.7321 -1.7217  0.0025
12637TIP3   OH259325   0.246   4.695  15.090  1.2127  0.2052 -0.4194
12637TIP3    H159326   0.244   4.600  15.080  0.4495 -0.0574  1.6728
12637TIP3    H259327   0.315   4.724  15.030  1.3061 -1.6241 -1.2737
12638TIP3   OH259328   4.791   0.250  10.819 -0.1268 -0.2813 -0.2587
12638TIP3    H159329   4.723   0.299  10.772 -0.0666  0.2486  0.1975
12638TIP3    H259330   4.799   0.168  10.771 -0.8651 -0.2137 -0.5092
12639TIP3   OH259331   4.141   2.129   1.959 -0.4567  0.0169  0.0370
12639TIP3    H159332   4.101   2.147   1.874 -0.4690  1.5383  0.3442
12639TIP3    H259333   4.100   2.047   1.988 -2.8833  1.1523  0.0254
12640TIP3   OH259334   5.837   4.686  11.737  0.7597  0.3388  0.5955
12640TIP3    H159335   5.792   4.613  11.779  0.0876  0.9760  1.0041
12640TIP3    H259336   5.930   4.661  11.736  0.5007 -0.6348  0.4691
12641TIP3   OH259337   5.950   5.644   3.208  0.0646  0.1065 -0.2364
12641TIP3    H159338   5.857   5.656   3.189 -0.1715 -1.1436  0.0550
12641TIP3    H259339   5.986   5.733   3.208 -0.9379  0.5422 -1.2764
12642TIP3   OH259340   6.441   1.633   5.840 -0.2819 -0.4102  0.7599
12642TIP3    H159341   6.347   1.646   5.825 -0.0001  1.3190  0.3538
12642TIP3    H259342   6.479   1.634   5.752 -0.0371 -2.8522  0.7715
12643TIP3   OH259343   0.629   6.327  15.255  0.3160 -0.4836  0.2319
12643TIP3    H159344   0.597   6.237  15.250 -0.0527 -0.3702  0.5653
12643TIP3    H259345   0.724   6.317  15.269 -0.0189 -0.8612  2.6158
12644TIP3   OH259346   1.399   0.994  13.787  0.1630 -0.2267 -0.6109
12644TIP3    H159347   1.365   1.080  13.763  1.1482  1.4484  3.2293
12644TIP3    H259348   1.344   0.966  13.860  0.9322 -2.0817 -0.6916
12645TIP3   OH259349   1.798   0.244   2.953  0.7232  0.5205 -0.1603
12645TIP3    H159350   1.873   0.188   2.937  1.2543  0.6841  1.6007
12645TIP3    H259351   1.773   0.275   2.866  1.6224 -0.8708 -0.9561
12646TIP3   OH259352   0.111   4.566  11.787 -0.1017  0.0748 -0.2129
12646TIP3    H159353   0.138   4.617  11.863 -0.3252  1.2342 -0.8849
12646TIP3    H259354   0.135   4.621  11.712 -0.5819 -0.6995 -0.9486
12647TIP3   OH259355   6.023   1.139  14.715  0.4716 -0.2628  0.3897
12647TIP3    H159356   6.051   1.149  14.624 -0.9669 -0.8451 -0.1374
12647TIP3    H259357   6.027   1.228  14.751  1.7658 -0.1443 -0.0092
12648TIP3   OH259358   6.263   1.805  14.154  0.0187 -0.4553 -0.0432
12648TIP3    H159359   6.347   1.774  14.187 -0.0167 -1.8784 -1.1610
12648TIP3    H259360   6.198   1.758  14.207 -0.0762  0.2411  0.4663
12649TIP3   OH259361   4.254   6.380   3.092 -0.1355  0.0916  0.3589
12649TIP3    H159362   4.334   6.400   3.139 -0.0009  1.0529 -0.2366
12649TIP3    H259363   4.224   6.297   3.128  0.4228  0.3730  1.5051
12650TIP3   OH259364   2.869   2.910  14.503 -0.9932 -0.3280  0.0942
12650TIP3    H159365   2.907   2.997  14.514 -3.1992  0.5782  0.9730
12650TIP3    H259366   2.779   2.926  14.474 -1.9046 -2.2486  1.6421
12651TIP3   OH259367   1.278   3.988  11.552 -0.3428  0.5174 -0.0925
12651TIP3    H159368   1.292   3.896  11.528 -0.3434  0.2907  0.7448
12651TIP3    H259369   1.300   4.037  11.472 -1.3508 -0.2637 -0.8847
12652TIP3   OH259370   2.752   4.593  12.877 -0.1182  0.0611  0.0489
12652TIP3    H159371   2.673   4.551  12.909  1.5844 -0.4102  4.2501
12652TIP3    H259372   2.794   4.528  12.821 -1.4667 -0.5717 -0.2617
12653TIP3   OH259373   2.827   0.151  14.774 -0.5198  0.1727  0.3156
12653TIP3    H159374   2.795   0.115  14.856 -0.6012 -0.4135  0.0354
12653TIP3    H259375   2.819   0.078  14.711  0.8930  0.1550  0.1186
12654TIP3   OH259376   5.647   5.796  15.442 -0.1928  0.0384  0.1556
12654TIP3    H159377   5.677   5.886  15.456 -0.5890  0.2402 -0.2698
12654TIP3    H259378   5.596   5.775  15.521  0.6043 -0.1167  0.6375
12655TIP3   OH259379   4.214   1.516  13.456  0.1040  0.6323  0.0527
12655TIP3    H159380   4.126   1.487  13.432  0.4932 -1.0231  0.5302
12655TIP3    H259381   4.200   1.583  13.523 -0.7845  0.2632  0.2425
12656TIP3   OH259382   0.387   3.296  13.777  0.0638 -0.0251  0.8362
12656TIP3    H159383   0.296   3.266  13.774 -0.2295  0.6248  2.4219
12656TIP3    H259384   0.412   3.304  13.685 -2.3453  2.2633  0.2441
12657TIP3   OH259385   6.508   0.675  11.370  0.7607  0.0748 -0.5000
12657TIP3    H159386   6.561   0.738  11.420  0.2971  0.1183 -0.0556
12657TIP3    H259387   6.548   0.590  11.390 -0.1886 -0.0562  0.9763
12658TIP3   OH259388   6.425   5.293  14.195 -0.3235 -0.0835 -0.4619
12658TIP3    H159389   6.393   5.288  14.285  0.0765 -0.6759 -0.3461
12658TIP3    H259390   6.432   5.387  14.177  0.2137  0.0395  0.3535
12659TIP3   OH259391   6.529   4.416   4.681 -0.1298  0.2934 -0.7876
12659TIP3    H159392   6.607   4.363   4.694  0.0928  0.8338  0.1748
12659TIP3    H259393   6.540   4.455   4.594  0.1833 -0.4187 -1.0727
12660TIP3   OH259394   3.372   4.439   5.243 -0.2951  0.0691 -0.1461
12660TIP3    H159395   3.408   4.398   5.164 -0.0898  0.1998 -0.1216
12660TIP3    H259396   3.287   4.397   5.255 -0.5312  0.3806 -0.6997
12661TIP3   OH259397   5.917   3.559  15.184 -0.5376  0.3851 -0.5724
12661TIP3    H159398   6.006   3.571  15.219 -0.2434 -0.9616 -0.8009
12661TIP3    H259399   5.930   3.514  15.100 -1.3574  1.7168 -1.4489
12662TIP3   OH259400   2.458   3.483  14.286 -0.3525  0.1930 -0.0229
12662TIP3    H159401   2.516   3.468  14.211 -0.8759  0.2030 -0.4320
12662TIP3    H259402   2.386   3.535  14.251 -0.9388 -0.3617  0.3289
12663TIP3   OH259403   3.886   5.047  11.734  0.2591  1.1256  0.4762
12663TIP3    H159404   3.852   4.960  11.711 -0.9201  1.7584 -0.2939
12663TIP3    H259405   3.886   5.094  11.651 -0.2467  2.2284  1.0866
12664TIP3   OH259406   6.487   1.057   2.477  0.0033  0.0425 -0.1064
12664TIP3    H159407   6.521   1.105   2.553  3.4448 -0.7184 -1.0073
12664TIP3    H259408   6.465   1.125   2.413 -1.6395  0.6246  1.0180
12665TIP3   OH259409   1.770   2.789  16.470  0.2622 -0.5144 -0.1573
12665TIP3    H159410   1.823   2.755  16.542  1.8229 -0.6206 -1.2947
12665TIP3    H259411   1.805   2.877  16.454 -0.5285 -0.2300 -0.3489
12666TIP3   OH259412   5.580   4.774   0.482  0.0753 -0.4448  0.6034
12666TIP3    H159413   5.561   4.868   0.489 -0.4737 -0.4663 -0.4734
12666TIP3    H259414   5.600   4.761   0.389  0.0150 -1.4197  0.7246
12667TIP3   OH259415   1.207   2.509  12.751 -0.6833 -0.3715 -0.0305
12667TIP3    H159416   1.281   2.549  12.797  1.1048 -1.7769 -1.5047
12667TIP3    H259417   1.174   2.578  12.694 -1.0084  0.4878  1.1547
12668TIP3   OH259418   2.135   2.638   1.304  0.1180  0.2694 -0.0121
12668TIP3    H159419   2.039   2.629   1.305  0.2198 -1.0308  0.8283
12668TIP3    H259420   2.157   2.644   1.211 -0.7584  0.2227 -0.2386
12669TIP3   OH259421   2.973   6.633  11.536 -0.3152 -0.3812 -0.1049
12669TIP3    H159422   3.049   6.583  11.505 -0.9826 -1.0985 -0.6246
12669TIP3    H259423   2.970   6.709  11.478 -0.4263 -0.7332 -0.5679
12670TIP3   OH259424   2.011   0.080   2.875 -0.5744 -0.1190 -0.1165
12670TIP3    H159425   2.070   0.123   2.814 -2.7722 -0.4072 -2.5918
12670TIP3    H259426   2.056  -0.002   2.897  1.4699  1.1872  0.9078
12671TIP3   OH259427   5.972   2.718  16.915 -0.0074  0.1726  0.0393
12671TIP3    H159428   6.055   2.694  16.958  1.0639  0.7084 -1.6527
12671TIP3    H259429   5.946   2.799  16.959  1.1903  0.8398 -0.4421
12672TIP3   OH259430   3.026   1.672  11.107 -0.2369  0.1792  0.0200
12672TIP3    H159431   3.035   1.643  11.198 -2.4893  0.0069  0.2435
12672TIP3    H259432   3.006   1.765  11.113 -2.4556 -0.2313 -0.1152
12673TIP3   OH259433   2.843   4.932   1.756 -0.3542  0.1280  0.6531
12673TIP3    H159434   2.770   4.898   1.808 -0.6695 -1.1178 -0.5311
12673TIP3    H259435   2.898   4.855   1.738  0.4915  0.7841  0.3277
12674TIP3   OH259436   1.058   1.124   1.028  0.2711 -0.0093 -0.4716
12674TIP3    H159437   1.069   1.057   0.961  1.8959  1.1626 -1.4517
12674TIP3    H259438   0.995   1.186   0.989  0.6828  0.3111 -0.6364
12675TIP3   OH259439   1.190   4.074  11.087 -0.1336  0.2310 -0.0929
12675TIP3    H159440   1.285   4.067  11.092 -0.0707  1.7462  2.4088
12675TIP3    H259441   1.167   4.028  11.005  2.6637 -0.4586 -0.6039
12676TIP3   OH259442   6.069   3.121   0.360 -0.3577  0.6301  0.5303
12676TIP3    H159443   6.112   3.071   0.290 -0.3263  0.6827  0.5126
12676TIP3    H259444   5.977   3.094   0.355  0.0076 -1.0926  1.9128
12677TIP3   OH259445   2.254   6.099  12.114 -0.7137 -0.7042 -0.3179
12677TIP3    H159446   2.311   6.030  12.147 -0.4494 -0.6187 -0.5870
12677TIP3    H259447   2.212   6.135  12.192 -0.5448 -0.8951 -0.1365
12678TIP3   OH259448   1.904   6.376  17.023 -0.3943 -0.3007  0.0931
12678TIP3    H159449   1.955   6.299  17.047 -1.0074 -0.6087  0.4187
12678TIP3    H259450   1.819   6.341  16.994 -0.4256  0.2038 -0.4470
12679TIP3   OH259451   4.184   1.558  16.316  0.1202  0.2211 -0.1830
12679TIP3    H159452   4.183   1.652  16.298  0.9024 -0.0797 -2.0222
12679TIP3    H259453   4.198   1.518  16.230  0.5013 -1.5420  0.6699
12680TIP3   OH259454   1.586   6.720  12.935  0.4783  0.2051 -0.6001
12680TIP3    H159455   1.630   6.711  13.020  1.0864  0.7463 -0.8460
12680TIP3    H259456   1.507   6.666  12.943  0.7643 -0.1244  0.1454
12681TIP3   OH259457   5.597   4.750  15.182 -0.0920  0.3052  0.6425
12681TIP3    H159458   5.621   4.659  15.167 -0.5876  0.0466  1.3740
12681TIP3    H259459   5.595   4.789  15.094 -0.2275 -0.4744  0.2934
12682TIP3   OH259460   4.974   2.134   4.129 -0.0065 -0.3003  0.2695
12682TIP3    H159461   5.028   2.078   4.185  1.0361  0.2500 -0.1644
12682TIP3    H259462   5.004   2.223   4.147  0.0055 -0.0733 -0.8021
12683TIP3   OH259463   5.184   2.776   5.834 -0.3464  0.0055 -0.1367
12683TIP3    H159464   5.133   2.808   5.909  1.4345 -0.2321  1.2374
12683TIP3    H259465   5.123   2.780   5.760 -2.0639  0.5742  1.2437
12684TIP3   OH259466   3.478   4.499   4.380  0.3685 -0.0009 -0.0492
12684TIP3    H159467   3.474   4.403   4.378 -0.1264 -0.0151  0.9783
12684TIP3    H259468   3.565   4.519   4.414 -0.2276 -0.1434  1.6664
12685TIP3   OH259469   1.311   6.219  13.699  0.7986  0.6336 -0.4242
12685TIP3    H159470   1.278   6.154  13.637  1.8929  0.0478 -0.4037
12685TIP3    H259471   1.323   6.171  13.781 -0.4233  1.3539  0.2256
12686TIP3   OH259472   0.761   4.531  12.140 -0.0310 -0.2069  0.2938
12686TIP3    H159473   0.819   4.463  12.173  0.0503  0.6023  1.8792
12686TIP3    H259474   0.727   4.574  12.218 -1.8819  0.0877 -0.6211
12687TIP3   OH259475   0.420   0.693   2.351  0.3671 -0.1108  0.2340
12687TIP3    H159476   0.477   0.674   2.425 -0.0866 -1.4218  0.2773
12687TIP3    H259477   0.391   0.607   2.320  0.3758  0.4151 -1.3359
12688TIP3   OH259478   4.544   2.259  16.980  0.4430 -0.1600 -0.0843
12688TIP3    H159479   4.553   2.333  16.920  0.6275 -0.1011  0.0137
12688TIP3    H259480   4.634   2.229  16.994  0.3944 -0.2180  0.1056
12689TIP3   OH259481   5.625   1.146   3.282  0.4671  0.1582 -0.1411
12689TIP3    H159482   5.643   1.209   3.212  3.0645 -0.5250 -0.2045
12689TIP3    H259483   5.666   1.184   3.359  0.6989 -0.7155  0.1767
12690TIP3   OH259484   4.327   6.432   2.740  0.9262  0.3273  0.5379
12690TIP3    H159485   4.359   6.491   2.809  2.3154  0.3917 -0.1156
12690TIP3    H259486   4.342   6.481   2.659  2.7819 -1.1550 -0.0830
12691TIP3   OH259487   3.159   1.699  14.263 -0.0003 -0.4402  0.0424
12691TIP3    H159488   3.104   1.667  14.192 -0.8053 -0.8375  0.8322
12691TIP3    H259489   3.175   1.622  14.318  1.9463 -0.5119 -0.5296
12692TIP3   OH259490   6.062   2.887  13.695  0.1223 -0.1779 -0.3134
12692TIP3    H159491   6.080   2.893  13.601  1.0271  0.5647 -0.1105
12692TIP3    H259492   6.100   2.804  13.722 -0.0955 -0.3695 -0.5999
12693TIP3   OH259493   0.746   5.242  14.152 -0.4854 -0.8402  0.5295
12693TIP3    H159494   0.723   5.284  14.069  0.4889 -0.0239  0.6511
12693TIP3    H259495   0.783   5.158  14.126 -0.2503 -0.6207  0.1383
12694TIP3   OH259496   1.235   2.724   3.509 -0.2162 -0.2436  0.3824
12694TIP3    H159497   1.316   2.773   3.526 -0.1071  0.4456 -1.8348
12694TIP3    H259498   1.265   2.641   3.473 -0.2902  1.4863 -4.4183
12695TIP3   OH259499   2.845   1.254  11.578  0.2457  0.0148 -0.4524
12695TIP3    H159500   2.926   1.209  11.600 -0.5809 -1.3341 -0.0928
12695TIP3    H259501   2.863   1.347  11.596  1.7879 -0.2260 -0.6680
12696TIP3   OH259502   6.553   5.818   0.788  0.1784 -0.5919  0.6126
12696TIP3    H159503   6.591   5.731   0.801  2.0382 -0.5795 -3.2975
12696TIP3    H259504   6.625   5.879   0.804 -0.8823  0.2418  2.4827
12697TIP3   OH259505   1.706   1.000  10.802  0.1393  0.3773  0.5252
12697TIP3    H159506   1.637   1.054  10.840 -2.0428 -1.7839 -0.0895
12697TIP3    H259507   1.660   0.942  10.740  2.9237  0.8240 -2.2208
12698TIP3   OH259508   1.571   5.840   3.915 -0.1534 -0.5398  0.1409
12698TIP3    H159509   1.607   5.752   3.905  0.3964 -0.3265  0.2089
12698TIP3    H259510   1.523   5.855   3.833 -1.2639 -1.3523  0.6214
12699TIP3   OH259511   4.470   5.033   3.871  0.4003 -0.1452  0.3941
12699TIP3    H159512   4.412   5.107   3.854 -0.5435 -1.1434 -0.8366
12699TIP3    H259513   4.551   5.055   3.824 -0.2083 -0.2971 -0.7567
12700TIP3   OH259514   1.551   5.827   4.399  0.5914  0.0321 -0.3895
12700TIP3    H159515   1.488   5.886   4.359 -0.2379  0.9835  2.1217
12700TIP3    H259516   1.622   5.884   4.429  0.7205 -0.4756  0.3178
12701TIP3   OH259517   6.702   0.601   4.433  0.3264  0.0252  0.1550
12701TIP3    H159518   6.703   0.546   4.355  0.4446 -0.2501  0.3521
12701TIP3    H259519   6.682   0.542   4.505 -1.5561  0.5615  0.1140
12702TIP3   OH259520   3.154   4.548   1.294 -0.6156 -0.2032 -0.7077
12702TIP3    H159521   3.159   4.610   1.221  1.6798  1.3238  0.6302
12702TIP3    H259522   3.106   4.596   1.362  2.2749  0.7818  0.8020
12703TIP3   OH259523   5.320   2.119   5.143  0.1577 -0.5005  0.6279
12703TIP3    H159524   5.245   2.065   5.165 -0.0122 -0.2806  0.5856
12703TIP3    H259525   5.293   2.209   5.161  1.1067 -0.5649  2.5965
12704TIP3   OH259526   6.418   2.595  15.251 -0.7771 -0.1103 -0.0075
12704TIP3    H159527   6.361   2.519  15.240  0.3951 -1.0091 -0.1207
12704TIP3    H259528   6.503   2.565  15.219  0.3629  0.3656  2.3581
12705TIP3   OH259529   1.102   4.682   3.029 -0.1537  0.0180  0.1300
12705TIP3    H159530   1.009   4.684   3.049 -0.3139 -0.8301 -0.4891
12705TIP3    H259531   1.111   4.740   2.953 -0.4179 -1.0297 -0.7166
12706TIP3   OH259532   4.763   3.674  11.452  0.2240  0.1057 -0.4939
12706TIP3    H159533   4.699   3.632  11.394 -0.2588  1.6455 -1.1134
12706TIP3    H259534   4.735   3.647  11.540 -1.5275  1.0124 -0.7246
12707TIP3   OH259535   3.320   1.804  14.629 -0.0497 -0.4815 -0.0457
12707TIP3    H159536   3.246   1.747  14.606 -0.3523  0.5309 -1.7723
12707TIP3    H259537   3.346   1.844  14.546 -0.3667  2.5036  1.1645
12708TIP3   OH259538   3.949   2.088   1.182  0.4521  0.0208 -0.0996
12708TIP3    H159539   4.027   2.142   1.191 -0.0947  0.6666  0.9531
12708TIP3    H259540   3.893   2.114   1.255 -1.8105  1.3601 -2.1451
12709TIP3   OH259541   3.943   4.297   4.324 -0.2648  0.5631 -0.4676
12709TIP3    H159542   4.034   4.272   4.341 -0.7199 -0.5201  0.5706
12709TIP3    H259543   3.949   4.374   4.268  1.3136  1.5752  1.0088
12710TIP3   OH259544   5.889   3.893  16.687  0.2019 -0.6443  0.2605
12710TIP3    H159545   5.795   3.884  16.670  0.3830 -0.3048 -1.0217
12710TIP3    H259546   5.903   3.988  16.695  0.6945 -0.5608 -1.2875
12711TIP3   OH259547   4.235   0.803   3.237  0.4027  0.0483  0.4621
12711TIP3    H159548   4.173   0.738   3.271 -2.6036  2.4146  0.0138
12711TIP3    H259549   4.217   0.805   3.143 -1.1191  2.7783  0.6904
12712TIP3   OH259550   5.468   2.621  11.755  0.0470  0.1098  0.3769
12712TIP3    H159551   5.377   2.609  11.729  0.5876 -2.3846 -0.6288
12712TIP3    H259552   5.504   2.532  11.759  2.6526  1.0579 -0.1003
12713TIP3   OH259553   4.015   5.191  12.897  0.6326  0.2589 -0.3384
12713TIP3    H159554   3.943   5.143  12.855 -3.1015  0.2207  5.1143
12713TIP3    H259555   4.063   5.123  12.945  0.0327  1.0120  1.3802
12714TIP3   OH259556   5.141   1.391   0.922  0.5643 -0.3592 -0.8057
12714TIP3    H159557   5.070   1.455   0.917  1.9718  1.3390  0.0597
12714TIP3    H259558   5.132   1.353   1.010  0.2945 -0.6705 -0.9674
12715TIP3   OH259559   2.108   3.257  12.714 -0.1692  0.1417 -0.0087
12715TIP3    H159560   2.113   3.257  12.809  1.9982 -0.4075 -0.0817
12715TIP3    H259561   2.197   3.237  12.685 -0.8991 -0.2334 -2.1469
12716TIP3   OH259562   5.671   6.089   2.068 -0.3663  0.1168 -0.0877
12716TIP3    H159563   5.641   6.079   1.978  1.0891 -0.3376 -0.5445
12716TIP3    H259564   5.675   6.184   2.081 -0.2168  0.1900 -0.6366
12717TIP3   OH259565   6.634   0.408   4.157 -0.1239  0.0373 -0.5742
12717TIP3    H159566   6.675   0.326   4.183  1.3375  0.8081 -0.3092
12717TIP3    H259567   6.563   0.421   4.220  0.4166 -0.4213  0.1527
12718TIP3   OH259568   0.087   0.774   2.374  0.2831 -0.6067  0.1844
12718TIP3    H159569   0.048   0.701   2.327  0.1690 -1.6332  1.7915
12718TIP3    H259570   0.149   0.813   2.311  0.4923 -2.2036 -0.6443
12719TIP3   OH259571   0.458   5.612  13.040 -0.0161  0.1547 -0.2383
12719TIP3    H159572   0.496   5.655  12.963  1.5900  0.5691  0.7497
12719TIP3    H259573   0.364   5.615  13.024  0.2386  0.9062 -1.8363
12720TIP3   OH259574   6.558   0.945   5.089 -0.3124  0.6643  0.9718
12720TIP3    H159575   6.651   0.954   5.065 -0.7901  0.8346 -0.9935
12720TIP3    H259576   6.528   1.035   5.100 -0.3179  0.6184  1.3417
12721TIP3   OH259577   3.145   0.317   5.845  0.2372 -0.1140  0.4789
12721TIP3    H159578   3.090   0.367   5.786  1.8272  0.7890 -0.3133
12721TIP3    H259579   3.154   0.372   5.923  1.4776  0.6094 -0.1414
12722TIP3   OH259580   2.739   6.461  13.758  1.0978  0.0662 -0.0791
12722TIP3    H159581   2.680   6.471  13.682  2.3524 -1.8379 -1.4085
12722TIP3    H259582   2.778   6.548  13.769 -0.3665  0.8282 -0.4896
12723TIP3   OH259583   4.775   6.045  13.956  0.2407  0.4831  0.3861
12723TIP3    H159584   4.749   6.129  13.994 -0.9646  0.6454 -0.7149
12723TIP3    H259585   4.811   6.068  13.870  1.3991 -0.0112  0.7225
12724TIP3   OH259586   2.629   5.546   5.511 -0.2670 -0.1084 -0.2462
12724TIP3    H159587   2.594   5.622   5.559 -0.8176  0.9332 -2.1871
12724TIP3    H259588   2.607   5.471   5.566  1.9590  1.1802  2.7061
12725TIP3   OH259589   0.693   3.035   6.030  0.0326 -0.0819 -0.0945
12725TIP3    H159590   0.642   2.969   6.077  1.5361 -0.7827  0.6223
12725TIP3    H259591   0.657   3.119   6.059 -0.7700 -0.5632  0.3162
12726TIP3   OH259592   0.270   1.105   1.480  0.0335  0.1725  0.3210
12726TIP3    H159593   0.231   1.181   1.437 -0.6525 -0.6959 -0.6475
12726TIP3    H259594   0.319   1.142   1.554 -1.0327  1.4699  0.4318
12727TIP3   OH259595   1.824   6.477  12.498 -1.0700  0.1137 -0.4381
12727TIP3    H159596   1.763   6.489  12.570  1.3553  2.7936  1.3620
12727TIP3    H259597   1.778   6.511  12.421 -2.3167  0.8232  0.5888
12728TIP3   OH259598   4.891   5.162   1.858  0.0258  0.4328 -0.1832
12728TIP3    H159599   4.966   5.128   1.808 -0.1393  0.4108 -0.4142
12728TIP3    H259600   4.926   5.239   1.902  0.0059  0.8358 -0.8492
12729TIP3   OH259601   4.588   2.471   2.553 -0.3775 -0.3677  0.4112
12729TIP3    H159602   4.577   2.442   2.643 -2.3856 -1.0137  0.0147
12729TIP3    H259603   4.674   2.512   2.551  0.0468 -1.0627  2.4130
12730TIP3   OH259604   6.140   0.190  16.358  0.2917 -0.3823  0.2332
12730TIP3    H159605   6.087   0.135  16.300  0.4965 -0.5282  0.1839
12730TIP3    H259606   6.181   0.128  16.419 -0.3895 -0.1782  0.9158
12731TIP3   OH259607   6.634   1.989  15.208  0.2244  0.1940  0.0793
12731TIP3    H159608   6.651   2.083  15.218  2.0360 -0.2003  1.1094
12731TIP3    H259609   6.691   1.962  15.136  0.0766 -0.2066  0.1138
12732TIP3   OH259610   6.050   5.921  11.485 -0.4611 -0.0432 -0.1286
12732TIP3    H159611   5.980   5.962  11.434 -1.2952  0.0152  1.0122
12732TIP3    H259612   6.097   5.867  11.422 -2.3866 -1.1642 -0.7103
12733TIP3   OH259613   5.606   4.593   6.082 -0.1419  0.1707  0.3334
12733TIP3    H159614   5.652   4.512   6.058  1.5334  0.4160  2.4308
12733TIP3    H259615   5.663   4.662   6.050  0.2858  0.4890  1.7333
12734TIP3   OH259616   2.411   6.059  11.184  0.0452 -0.4507  0.1295
12734TIP3    H159617   2.431   6.056  11.090 -0.1751 -0.8871  0.0933
12734TIP3    H259618   2.467   5.991  11.222  2.4429  1.7403  0.7759
12735TIP3   OH259619   5.982   2.280  15.419 -0.3614  0.1388  0.0795
12735TIP3    H159620   6.020   2.285  15.331 -2.1780  1.0085 -0.6933
12735TIP3    H259621   5.892   2.311  15.409 -1.4658 -2.2289  1.7683
12736TIP3   OH259622   5.207   6.613  16.611  0.3619 -0.5771 -0.3004
12736TIP3    H159623   5.151   6.580  16.682  1.3499  0.1510  0.8652
12736TIP3    H259624   5.185   6.706  16.604  2.6777  0.2231  1.5331
12737TIP3   OH259625   4.976   2.491   6.004 -0.6996  0.5083  0.2105
12737TIP3    H159626   5.038   2.444   5.948 -0.5259  0.8076  0.1495
12737TIP3    H259627   5.017   2.492   6.091 -1.5035 -1.0013  0.6461
12738TIP3   OH259628   3.190   5.741  16.850  0.1393  0.3272  0.4218
12738TIP3    H159629   3.246   5.818  16.841  0.0294  0.4205  0.5175
12738TIP3    H259630   3.147   5.732  16.765 -0.1438  0.6080  0.5301
12739TIP3   OH259631   4.715   2.054   5.441 -0.1061  0.5125  0.0767
12739TIP3    H159632   4.633   2.094   5.414 -1.2630 -0.4139  1.9880
12739TIP3    H259633   4.744   2.109   5.515  1.0286  0.8392 -0.5890
12740TIP3   OH259634   0.766   3.718  13.624 -0.2497  0.2859  0.2633
12740TIP3    H159635   0.678   3.716  13.586 -0.3327 -0.8427  0.4667
12740TIP3    H259636   0.799   3.805  13.605 -1.3003  0.6223 -0.0840
12741TIP3   OH259637   6.302   3.430   4.843  0.0253 -0.4449 -0.4979
12741TIP3    H159638   6.340   3.500   4.896 -1.8939 -0.2873  0.7933
12741TIP3    H259639   6.263   3.476   4.768 -2.4141  0.1667  1.0196
12742TIP3   OH259640   0.848   5.228  11.063 -0.7587  0.4989  0.3314
12742TIP3    H159641   0.840   5.247  10.969 -0.3613  0.8354  0.3640
12742TIP3    H259642   0.768   5.180  11.084 -0.8083  0.3403 -0.2005
12743TIP3   OH259643   0.882   2.497  12.745 -0.3247  0.2597  0.0145
12743TIP3    H159644   0.942   2.488  12.671  0.0991 -3.2755  0.6082
12743TIP3    H259645   0.916   2.572  12.793  1.9638  0.0966 -1.1703
12744TIP3   OH259646   1.539   6.585   6.077  0.0395  0.4354 -0.6698
12744TIP3    H159647   1.612   6.639   6.108 -0.8922  1.0925  0.4143
12744TIP3    H259648   1.471   6.595   6.143 -0.2435 -1.9255 -0.5197
12745TIP3   OH259649   0.467   0.891   1.740 -0.2709  0.4487  0.3352
12745TIP3    H159650   0.513   0.848   1.812  1.0528 -0.4844 -1.0027
12745TIP3    H259651   0.531   0.895   1.669 -1.1562  2.4062 -0.4258
12746TIP3   OH259652   1.132   4.998   1.966  0.3084  0.1562  0.0608
12746TIP3    H159653   1.083   4.982   1.886 -0.6593 -0.8540  0.8231
12746TIP3    H259654   1.160   4.911   1.994  2.0955  0.6519 -0.0552
12747TIP3   OH259655   5.863   4.595   4.116 -0.6028  0.4102  0.1547
12747TIP3    H159656   5.874   4.574   4.023  1.2828 -0.7319  0.5979
12747TIP3    H259657   5.858   4.510   4.160 -0.9401  0.9355  1.1766
12748TIP3   OH259658   3.786   0.899   5.902 -0.1199  0.4628  0.1657
12748TIP3    H159659   3.702   0.885   5.857 -0.4317 -1.5251  1.2461
12748TIP3    H259660   3.773   0.861   5.989  1.7245  0.6555  0.5631
12749TIP3   OH259661   0.578   0.119  13.803 -0.3542  0.3631 -0.3371
12749TIP3    H159662   0.609   0.051  13.863  0.1772  1.2847  0.4868
12749TIP3    H259663   0.647   0.126  13.737 -0.5410 -0.0801 -0.5821
12750TIP3   OH259664   0.545   5.338  16.328 -0.0529 -0.7050  0.1737
12750TIP3    H159665   0.489   5.350  16.251 -0.8491  0.2843  0.8788
12750TIP3    H259666   0.631   5.317  16.292 -0.5047 -0.6684 -0.9771
12751TIP3   OH259667   6.331   0.422   5.474 -0.3659 -0.1318  0.1791
12751TIP3    H159668   6.399   0.403   5.410  0.7562  0.4652  1.1632
12751TIP3    H259669   6.322   0.340   5.524  0.6919  0.2158  0.9828
12752TIP3   OH259670   3.995   4.168  16.487  0.1400  0.0428  0.1635
12752TIP3    H159671   4.031   4.105  16.550 -0.0538 -0.5058 -0.2584
12752TIP3    H259672   4.067   4.182  16.425  0.2149  0.3173  0.3121
12753TIP3   OH259673   3.550   2.600  12.107 -0.1096 -0.2450  0.0806
12753TIP3    H159674   3.465   2.619  12.068  0.3350  1.0007 -0.3251
12753TIP3    H259675   3.552   2.505  12.115 -1.0704 -0.3747 -0.9903
12754TIP3   OH259676   4.826   0.668  13.800  0.1090  0.2767 -0.5405
12754TIP3    H159677   4.770   0.647  13.874 -0.2010  0.0356 -0.8423
12754TIP3    H259678   4.822   0.591  13.744 -0.5491  0.8885 -1.3556
12755TIP3   OH259679   0.869   3.121  12.353  0.1584 -0.5305  0.0445
12755TIP3    H159680   0.962   3.101  12.337  0.1305  0.1786 -1.1128
12755TIP3    H259681   0.848   3.189  12.289 -1.0784 -0.4392  0.5278
12756TIP3   OH259682   0.727   1.771  15.213 -0.3393 -0.2615  0.4238
12756TIP3    H159683   0.725   1.686  15.169 -1.5208  0.2729 -0.6258
12756TIP3    H259684   0.707   1.834  15.144 -1.6233  0.6702  1.5828
12757TIP3   OH259685   6.334   3.498   3.518 -0.2198 -0.1740  0.1895
12757TIP3    H159686   6.360   3.467   3.431 -1.3562 -0.7161  0.0157
12757TIP3    H259687   6.325   3.592   3.509 -1.6983 -0.3691 -0.6905
12758TIP3   OH259688   0.912   6.147  12.139 -0.2177  0.2746  0.2415
12758TIP3    H159689   0.978   6.212  12.113 -0.1911 -0.4103 -1.5664
12758TIP3    H259690   0.933   6.127  12.230  0.8411  1.5201  0.3061
12759TIP3   OH259691   1.716   0.243   1.128  0.6608 -0.1857 -0.7644
12759TIP3    H159692   1.634   0.213   1.089  0.1373  1.2165 -0.7864
12759TIP3    H259693   1.728   0.188   1.205 -1.7048  1.2700  0.7709
12760TIP3   OH259694   0.389   5.200  11.445 -0.1933  0.7314  0.3928
12760TIP3    H159695   0.362   5.189  11.536  1.3096  0.0223  0.7763
12760TIP3    H259696   0.484   5.185  11.445 -0.3108 -0.3141 -1.4579
12761TIP3   OH259697   4.812   2.400  16.358 -0.0647  0.0857  0.3074
12761TIP3    H159698   4.820   2.408  16.263 -1.0879  0.8565  0.2647
12761TIP3    H259699   4.721   2.374  16.372  0.5140 -1.6771  1.0085
12762TIP3   OH259700   2.279   1.911  15.308  0.1541 -0.4918  0.3685
12762TIP3    H159701   2.288   1.841  15.373  1.8021 -1.3481 -0.6906
12762TIP3    H259702   2.355   1.967  15.322 -1.0760  1.0577  1.1075
12763TIP3   OH259703   5.653   0.302   5.646  0.5624 -0.2508 -0.3248
12763TIP3    H159704   5.581   0.286   5.707 -0.6113 -0.0499 -1.6179
12763TIP3    H259705   5.623   0.374   5.592  2.5353  1.1233  0.3094
12764TIP3   OH259706   2.724   5.518  16.417  0.1338  0.0618 -0.1013
12764TIP3    H159707   2.804   5.568  16.399  0.8741 -1.2294 -0.5421
12764TIP3    H259708   2.664   5.543  16.346  1.0837 -0.8738 -1.2898
12765TIP3   OH259709   3.969   5.233  12.031  0.6386 -0.4507 -0.3297
12765TIP3    H159710   3.957   5.297  11.961  0.4288 -0.3306 -0.1859
12765TIP3    H259711   3.909   5.162  12.009  0.3191 -0.2556 -0.0857
12766TIP3   OH259712   3.908   2.853  16.154 -0.3017  0.2505 -0.2931
12766TIP3    H159713   3.836   2.796  16.182 -0.6597  0.5934 -0.5049
12766TIP3    H259714   3.916   2.836  16.060  1.3879 -1.4520  0.1120
12767TIP3   OH259715   0.465   3.496  14.774 -0.3294 -0.4032  0.2336
12767TIP3    H159716   0.470   3.515  14.680  0.4093 -1.4395  0.0382
12767TIP3    H259717   0.424   3.410  14.778 -1.5391  0.1904  0.9468
12768TIP3   OH259718   1.153   6.174  14.600  0.1172 -0.4935 -0.1863
12768TIP3    H159719   1.230   6.230  14.592 -0.5257  0.1714 -2.3459
12768TIP3    H259720   1.087   6.228  14.643  0.8833 -1.1610  1.9406
12769TIP3   OH259721   6.524   4.162   6.342 -0.7965 -0.3909  0.5052
12769TIP3    H159722   6.518   4.073   6.376 -2.5020 -0.7090 -0.4874
12769TIP3    H259723   6.534   4.151   6.247  0.7458  0.4856  0.5235
12770TIP3   OH259724   3.424   0.027  12.878  0.2042 -0.0802 -0.3278
12770TIP3    H159725   3.490   0.040  12.810  0.9823 -0.5381  0.3255
12770TIP3    H259726   3.362   0.099  12.864  1.5879  1.2194 -0.0886
12771TIP3   OH259727   3.834   5.098  15.736 -0.9750  0.4651 -0.1175
12771TIP3    H159728   3.804   5.171  15.681  1.4546  1.6825  0.0448
12771TIP3    H259729   3.908   5.060  15.688 -0.4177 -0.0862  1.1301
12772TIP3   OH259730   1.906   4.799  11.909 -0.3470 -0.5476 -0.3969
12772TIP3    H159731   1.890   4.771  11.999 -1.0625 -1.9257 -0.9373
12772TIP3    H259732   1.872   4.889  11.906  1.6754  0.3632  1.2622
12773TIP3   OH259733   5.484   0.651  12.075 -0.5806  0.0994  0.1149
12773TIP3    H159734   5.430   0.578  12.104 -0.5560  0.8012  2.1300
12773TIP3    H259735   5.422   0.721  12.056 -0.5422 -0.0892 -0.7344
12774TIP3   OH259736   3.516   1.179   3.465  0.8885 -0.1951  0.4404
12774TIP3    H159737   3.458   1.225   3.526  1.3877  3.9516 -1.8116
12774TIP3    H259738   3.457   1.149   3.396  0.9470  0.8816 -0.1078
12775TIP3   OH259739   5.153   5.224   2.785 -0.0680 -0.2120 -0.7038
12775TIP3    H159740   5.235   5.250   2.745 -0.0498  0.1569 -0.4325
12775TIP3    H259741   5.140   5.133   2.758 -0.2892  0.1601 -1.9172
12776TIP3   OH259742   0.721   5.729   0.716 -0.0884 -0.1512 -0.1694
12776TIP3    H159743   0.661   5.792   0.675 -0.7376 -0.4286  0.3389
12776TIP3    H259744   0.669   5.650   0.728  0.7948 -0.9013 -1.0428
12777TIP3   OH259745   0.265   3.208  16.791  0.3453  0.2302 -0.4106
12777TIP3    H159746   0.185   3.236  16.745 -0.5201  2.1009  2.0148
12777TIP3    H259747   0.328   3.278  16.772  0.9217 -0.4535 -1.0479
12778TIP3   OH259748   6.764   3.983  13.814 -0.0104 -0.8191  0.4429
12778TIP3    H159749   6.673   3.953  13.815 -0.4203  0.3496  0.5375
12778TIP3    H259750   6.791   3.982  13.906  0.3129 -1.8355  0.3417
12779TIP3   OH259751   4.291   6.300   0.362 -0.4565  0.3418 -0.4360
12779TIP3    H159752   4.286   6.392   0.335 -1.0931  0.5281  0.2871
12779TIP3    H259753   4.211   6.285   0.412  0.7481  0.0569  1.4700
12780TIP3   OH259754   3.309   2.113  13.504  0.1460 -0.3354 -0.2873
12780TIP3    H159755   3.365   2.183  13.535 -0.5230 -0.7523  2.0495
12780TIP3    H259756   3.343   2.034  13.546 -1.5948 -0.7250  0.4832
12781TIP3   OH259757   5.774   5.533  16.223 -0.2418  0.1078  0.0844
12781TIP3    H159758   5.799   5.527  16.131  0.0753 -1.5784  0.2535
12781TIP3    H259759   5.857   5.533  16.271 -0.4398 -0.7643  0.4378
12782TIP3   OH259760   4.870   0.127   1.342  0.3870 -0.2088 -0.7525
12782TIP3    H159761   4.963   0.149   1.354  0.0506  0.8379  0.1134
12782TIP3    H259762   4.849   0.070   1.415 -0.3989  2.1175  0.9844
12783TIP3   OH259763   0.643   6.377   1.634  0.1046 -0.2757 -0.2841
12783TIP3    H159764   0.718   6.432   1.656  0.9092 -1.1693 -0.7219
12783TIP3    H259765   0.653   6.299   1.689  0.2234 -0.9817 -1.2753
12784TIP3   OH259766   1.847   2.196  15.853 -0.3849  0.0607 -0.1589
12784TIP3    H159767   1.806   2.248  15.922 -0.1665 -0.7515  0.6100
12784TIP3    H259768   1.910   2.255  15.812 -0.9240  0.7217 -0.0287
12785TIP3   OH259769   6.292   5.266  16.130 -0.7645 -0.1371  0.7716
12785TIP3    H159770   6.316   5.232  16.217  0.6554 -0.5488  0.2582
12785TIP3    H259771   6.225   5.206  16.099 -1.0384 -0.1906  1.4378
12786TIP3   OH259772   5.476   1.999  15.757  0.1723  0.1959  0.1399
12786TIP3    H159773   5.431   2.000  15.841 -0.5530 -1.7113 -0.1922
12786TIP3    H259774   5.414   2.040  15.696 -2.1168 -3.9795 -0.6934
12787TIP3   OH259775   2.176   6.604  11.921 -0.4993 -0.4199 -0.2743
12787TIP3    H159776   2.174   6.647  12.007 -0.1948  0.6207 -0.7724
12787TIP3    H259777   2.222   6.521  11.937  0.1214  0.0428  0.4488
12788TIP3   OH259778   5.082   1.574   2.596  0.5128  0.3458  0.3443
12788TIP3    H159779   5.030   1.513   2.543 -0.0380  0.0268  1.2275
12788TIP3    H259780   5.145   1.519   2.642  0.4041  0.5071  0.6902
12789TIP3   OH259781   2.685   3.434  11.981  0.2730 -0.2687 -0.1661
12789TIP3    H159782   2.747   3.361  11.983 -0.8014 -1.2531 -1.1680
12789TIP3    H259783   2.601   3.395  12.005  0.1374  1.2327  2.1790
12790TIP3   OH259784   4.669   5.879   4.040  0.7517  0.5258  0.1723
12790TIP3    H159785   4.698   5.817   4.107  0.2006  0.1760  0.0918
12790TIP3    H259786   4.751   5.910   3.999  1.1562  1.4519  1.6034
12791TIP3   OH259787   0.992   5.082  14.758 -0.2884 -0.2587  0.3229
12791TIP3    H159788   1.052   5.094  14.831  0.8269  1.1121 -0.7664
12791TIP3    H259789   0.913   5.129  14.783 -0.4118 -0.8853  1.1635
12792TIP3   OH259790   4.863   5.179   1.216 -0.3842 -0.1128 -0.1146
12792TIP3    H159791   4.945   5.145   1.252 -0.4334  0.6299  0.7230
12792TIP3    H259792   4.795   5.124   1.254 -0.3692  0.1002  0.2198
12793TIP3   OH259793   4.149   5.991   3.585 -0.4841  0.3025  0.5580
12793TIP3    H159794   4.126   5.948   3.667 -0.1513 -1.2286 -0.1144
12793TIP3    H259795   4.245   5.993   3.585 -0.3531 -1.8852 -0.7849
12794TIP3   OH259796   5.526   4.915   0.833 -0.3958 -0.0956  0.0388
12794TIP3    H159797   5.446   4.864   0.847 -1.3189  1.2171 -0.2754
12794TIP3    H259798   5.498   4.989   0.779  1.0927  0.2632 -0.2867
12795TIP3   OH259799   5.621   2.828   0.976 -0.0954  0.3961 -0.0217
12795TIP3    H159800   5.644   2.736   0.982 -0.0976  0.4000  0.0517
12795TIP3    H259801   5.694   2.874   1.017 -0.6133  0.3576  0.9964
12796TIP3   OH259802   5.219   4.880   2.446  0.1375 -0.0980 -0.0267
12796TIP3    H159803   5.307   4.914   2.461  0.0145 -1.1437  4.7624
12796TIP3    H259804   5.234   4.790   2.416  0.7263  0.0190 -0.0991
12797TIP3   OH259805   3.171   6.257   3.288 -0.0736 -0.2838  0.5251
12797TIP3    H159806   3.104   6.200   3.250 -0.1265 -0.3949  0.7846
12797TIP3    H259807   3.138   6.345   3.275  0.8451 -0.1931 -1.5235
12798TIP3   OH259808   6.194   0.824  13.768  0.3766  0.0131 -0.0745
12798TIP3    H159809   6.249   0.899  13.790  1.6590 -0.7561 -0.5523
12798TIP3    H259810   6.166   0.841  13.677  1.0721 -0.3206 -0.3524
12799TIP3   OH259811   0.656   6.544   4.400 -0.0687  0.2353 -0.3273
12799TIP3    H159812   0.641   6.629   4.357  2.5790  0.9832  0.0106
12799TIP3    H259813   0.681   6.486   4.329  1.1870  0.6243 -0.2338
12800TIP3   OH259814   6.081   2.800  13.361  0.2831  0.6809  0.1275
12800TIP3    H159815   6.051   2.838  13.278  0.8333  0.9186  0.0314
12800TIP3    H259816   6.156   2.854  13.385 -0.9186  1.7578  1.6829
12801TIP3   OH259817   4.371   3.518  14.821 -0.2021 -0.4750  0.6636
12801TIP3    H159818   4.426   3.547  14.748  0.9393 -0.8128  1.3719
12801TIP3    H259819   4.369   3.423  14.813  0.2158 -0.5414  1.2590
12802TIP3   OH259820   3.062   2.013   4.774 -0.5447 -0.0135  0.6087
12802TIP3    H159821   3.074   1.941   4.836  0.6261 -0.2773  0.1060
12802TIP3    H259822   3.077   1.973   4.688  2.1145  1.1479  0.4122
12803TIP3   OH259823   0.009   3.078  15.048 -0.4230 -0.2102 -0.0710
12803TIP3    H159824   0.028   3.000  15.099  0.4383  0.1949  0.2478
12803TIP3    H259825   0.026   3.052  14.957 -0.5162 -0.5094 -0.0011
12804TIP3   OH259826   1.206   1.180   5.300  0.3366 -0.1838 -0.5949
12804TIP3    H159827   1.167   1.172   5.213  0.3326 -0.2370 -0.5881
12804TIP3    H259828   1.283   1.236   5.287 -1.3042  2.3322 -0.1329
12805TIP3   OH259829   2.547   3.487  12.377  0.1071 -0.2941  1.0140
12805TIP3    H159830   2.566   3.537  12.298 -1.3713 -1.2919 -0.0496
12805TIP3    H259831   2.591   3.403  12.363 -1.8197 -1.2542  0.2038
12806TIP3   OH259832   0.346   6.388   6.211  0.7099  0.0772 -0.0628
12806TIP3    H159833   0.311   6.478   6.212  1.6068  0.4325  0.4228
12806TIP3    H259834   0.302   6.347   6.137 -1.2769  0.2791  0.9232
12807TIP3   OH259835   3.225   1.672   3.670  0.0194  0.1725 -0.1323
12807TIP3    H159836   3.173   1.739   3.625 -0.5564  1.1364  1.8568
12807TIP3    H259837   3.173   1.649   3.747  1.0449 -1.2797  0.1700
12808TIP3   OH259838   4.475   1.153  15.998 -0.0969 -0.2913 -0.0370
12808TIP3    H159839   4.547   1.097  16.027 -1.0298 -1.0622  0.8197
12808TIP3    H259840   4.449   1.202  16.076 -3.0809 -2.8783  0.7532
12809TIP3   OH259841   3.668   4.715   6.368  0.0395 -0.2891  0.1145
12809TIP3    H159842   3.730   4.678   6.430 -0.5241  0.0754  0.9219
12809TIP3    H259843   3.601   4.756   6.424  0.3619  1.4621 -0.7259
12810TIP3   OH259844   0.224   1.758   0.431 -0.6933 -0.6198  0.3102
12810TIP3    H159845   0.291   1.703   0.470  0.7938  0.5659 -0.4734
12810TIP3    H259846   0.177   1.699   0.371  0.5674 -1.1621 -0.1839
12811TIP3   OH259847   2.777   1.502   4.710 -0.5760  0.6637  0.4454
12811TIP3    H159848   2.861   1.547   4.702 -1.3291  1.8854 -1.0352
12811TIP3    H259849   2.778   1.467   4.800  1.5740  0.4349  0.3973
12812TIP3   OH259850   4.280   1.185  13.491  0.4329  0.1474 -0.0770
12812TIP3    H159851   4.184   1.178  13.496  0.2935  1.4157 -0.6769
12812TIP3    H259852   4.296   1.238  13.413  1.7457 -2.2329 -1.5277
12813TIP3   OH259853   4.825   0.789  12.726  0.1081 -0.1464  0.2857
12813TIP3    H159854   4.814   0.758  12.816 -0.7272  1.1593  0.6562
12813TIP3    H259855   4.856   0.712  12.678 -0.5979 -1.1764  1.4309
12814TIP3   OH259856   5.965   2.240  14.567 -0.4455 -0.5268  0.1456
12814TIP3    H159857   5.869   2.238  14.570 -0.5277  1.4030  0.3177
12814TIP3    H259858   5.990   2.290  14.645  0.7154 -1.1521  0.1914
12815TIP3   OH259859   0.012   6.331  13.012  0.2643 -0.3629 -0.3947
12815TIP3    H159860   0.007   6.315  13.107 -1.4892  3.1295  0.2486
12815TIP3    H259861  -0.059   6.279  12.976 -0.2217 -0.3166  0.4663
12816TIP3   OH259862   0.056   5.416  11.241  0.0989 -0.3790 -0.0641
12816TIP3    H159863   0.061   5.402  11.336  0.0302 -1.3643 -0.1946
12816TIP3    H259864   0.148   5.421  11.213  0.1333 -0.6872 -0.0176
12817TIP3   OH259865   1.710   0.653  13.982 -0.1555  0.2275 -0.2638
12817TIP3    H159866   1.675   0.611  13.904  1.8657  2.5097 -2.5629
12817TIP3    H259867   1.711   0.746  13.962 -0.5028  1.0673  2.9463
12818TIP3   OH259868   5.089   2.634   0.175  0.1106 -0.0849  0.7658
12818TIP3    H159869   5.022   2.611   0.111 -0.8204  0.8675  1.3697
12818TIP3    H259870   5.156   2.681   0.124 -0.4458  0.3502  0.4234
12819TIP3   OH259871   2.381   6.457   4.946  0.0462 -0.2521  0.2547
12819TIP3    H159872   2.440   6.527   4.973 -2.1756  1.6790  0.4361
12819TIP3    H259873   2.405   6.439   4.856  1.2326  0.1037  0.4809
12820TIP3   OH259874   4.994   2.391  12.982  0.4926 -0.3376 -0.5901
12820TIP3    H159875   5.013   2.409  12.890 -0.1387  0.2945 -0.6061
12820TIP3    H259876   5.067   2.337  13.012  0.9110 -0.2038 -1.3525
12821TIP3   OH259877   4.699   6.606   3.969  0.1366 -0.2360  0.0541
12821TIP3    H159878   4.765   6.576   4.031  0.3753  1.6112  0.7507
12821TIP3    H259879   4.695   6.701   3.981 -0.9105 -0.0014 -1.6907
12822TIP3   OH259880   1.720   6.733  11.901 -0.3644 -0.4268  0.0200
12822TIP3    H159881   1.728   6.789  11.824 -1.6790  1.0286  0.8610
12822TIP3    H259882   1.771   6.778  11.969  2.4890 -2.7114 -0.4074
12823TIP3   OH259883   6.131   4.322   1.869  0.0269 -0.6771 -0.9301
12823TIP3    H159884   6.142   4.250   1.930  1.9408 -1.2006 -1.8352
12823TIP3    H259885   6.113   4.398   1.924 -0.1157 -1.4737  0.1485
12824TIP3   OH259886   5.012   1.738  12.500 -0.1057  0.1739 -0.2837
12824TIP3    H159887   4.976   1.705  12.418 -0.8904 -0.7753  0.4172
12824TIP3    H259888   4.935   1.768  12.549  0.1438 -0.8290  0.7760
12825TIP3   OH259889   0.822   2.821   2.810  0.5093  0.1169 -0.2705
12825TIP3    H159890   0.845   2.731   2.787  1.0393  0.5625 -1.6300
12825TIP3    H259891   0.822   2.867   2.726 -0.2081  1.2893  0.3478
12826TIP3   OH259892   1.566   3.948  13.467  0.0198 -0.3924  0.2514
12826TIP3    H159893   1.655   3.936  13.500  0.9843  3.5008 -0.4014
12826TIP3    H259894   1.573   3.940  13.372 -0.6807 -1.5119  0.2716
12827TIP3   OH259895   4.282   5.406  11.839 -0.4878  0.2549  0.4218
12827TIP3    H159896   4.283   5.474  11.906 -0.4093  0.4744  0.2014
12827TIP3    H259897   4.249   5.450  11.760  3.5124  1.2513 -0.9665
12828TIP3   OH259898   5.734   0.801  13.273 -0.3492  0.8072 -0.3053
12828TIP3    H159899   5.658   0.786  13.217 -0.4208 -1.5661  0.2862
12828TIP3    H259900   5.706   0.772  13.360  1.1308  0.0980 -0.0219
12829TIP3   OH259901   0.138   4.677  15.933  0.3291  0.7237  0.4179
12829TIP3    H159902   0.095   4.737  15.994  1.8746  1.5745  0.7232
12829TIP3    H259903   0.137   4.723  15.849 -1.1637 -0.1464 -0.0775
12830TIP3   OH259904   3.557   3.120   1.170 -0.5909 -0.2668 -0.6037
12830TIP3    H159905   3.651   3.134   1.158  0.0489 -1.9613  1.5119
12830TIP3    H259906   3.518   3.207   1.168  0.6403  0.3295 -3.7500
12831TIP3   OH259907   2.213   5.058  16.187  0.4455  0.0742 -0.1681
12831TIP3    H159908   2.177   5.011  16.112  0.1465 -1.8734  1.1121
12831TIP3    H259909   2.226   5.148  16.156 -1.5062 -0.1928 -1.9345
12832TIP3   OH259910   6.421   6.257  15.791  0.2767  0.6619  0.3198
12832TIP3    H159911   6.396   6.271  15.882  1.3917 -0.4056  0.8165
12832TIP3    H259912   6.454   6.342  15.762  0.8360  0.7769  1.2333
12833TIP3   OH259913   6.490   0.716   0.690  0.2177 -0.1988 -0.0727
12833TIP3    H159914   6.460   0.714   0.780 -1.6835 -2.5460 -0.6595
12833TIP3    H259915   6.472   0.805   0.660  2.1965  1.0611  2.1849
12834TIP3   OH259916   5.640   3.790   0.178 -0.1089 -0.1340 -0.8409
12834TIP3    H159917   5.731   3.764   0.191  0.5916  1.7822 -1.5012
12834TIP3    H259918   5.590   3.710   0.188  1.4584 -0.9145  1.4166
12835TIP3   OH259919   4.637   1.509   3.569  0.0114  0.1483 -0.1621
12835TIP3    H159920   4.610   1.501   3.660  0.8603  1.0505  0.1859
12835TIP3    H259921   4.556   1.526   3.521 -0.2597  1.1758  0.6299
12836TIP3   OH259922   1.590   5.799  13.363  0.0825 -0.1753 -0.3744
12836TIP3    H159923   1.685   5.810  13.357  0.0011  0.4388 -0.6173
12836TIP3    H259924   1.577   5.741  13.438  0.5406  1.4147  0.9682
12837TIP3   OH259925   6.067   4.457  11.975  0.2087 -0.3896 -0.1262
12837TIP3    H159926   6.081   4.409  12.057  1.7769  0.5674  0.2063
12837TIP3    H259927   5.998   4.408  11.930 -2.4666  0.3841  2.7744
12838TIP3   OH259928   2.777   0.302   0.226 -0.4208 -0.1977 -0.2637
12838TIP3    H159929   2.683   0.307   0.242 -0.2139  0.0046  1.0165
12838TIP3    H259930   2.811   0.386   0.257  0.1290 -0.0456 -1.2210
12839TIP3   OH259931   5.250   2.318   4.803  0.2302  0.2271  0.0876
12839TIP3    H159932   5.168   2.325   4.852  0.0527 -0.4660 -0.0955
12839TIP3    H259933   5.281   2.229   4.821  0.4913  0.1833 -0.5341
12840TIP3   OH259934   4.619   1.083  13.028 -0.2395 -0.3610 -0.3452
12840TIP3    H159935   4.666   1.061  13.108 -0.4350  0.1911 -0.0737
12840TIP3    H259936   4.668   1.158  12.992  1.9121 -2.6160 -2.5371
12841TIP3   OH259937   2.805   0.686  15.226  0.1340  0.6291 -0.6344
12841TIP3    H159938   2.829   0.633  15.302  1.5816  0.6550 -1.0457
12841TIP3    H259939   2.781   0.622  15.158  1.1335  0.5101 -0.8873
12842TIP3   OH259940   1.164   5.187  14.070 -0.0153  0.4048  0.3370
12842TIP3    H159941   1.106   5.261  14.091 -0.8287  0.0807 -0.7047
12842TIP3    H259942   1.113   5.132  14.012  1.3662  0.1366 -0.6664
12843TIP3   OH259943   4.295   4.788   1.866  0.2405 -0.4037 -0.0552
12843TIP3    H159944   4.203   4.774   1.841  0.2299 -2.1652  0.8151
12843TIP3    H259945   4.342   4.795   1.783 -0.8585  2.3554 -0.5601
12844TIP3   OH259946   3.643   6.745   4.910 -0.7903 -0.3486  0.3701
12844TIP3    H159947   3.596   6.663   4.923 -3.0924  0.6756 -0.8605
12844TIP3    H259948   3.588   6.811   4.952  2.0519  0.4550  3.2385
12845TIP3   OH259949   1.597   2.314   3.526 -0.5322 -0.7431 -0.3525
12845TIP3    H159950   1.596   2.223   3.494 -0.6299 -0.3884 -1.3926
12845TIP3    H259951   1.679   2.322   3.574 -0.7514 -1.5199  0.1730
12846TIP3   OH259952   0.848   4.892  11.158 -0.1447 -0.2001 -0.3338
12846TIP3    H159953   0.880   4.951  11.226 -0.2826 -1.0484  0.4826
12846TIP3    H259954   0.926   4.872  11.105 -0.3302  1.7090 -1.4295
12847TIP3   OH259955   0.742   2.487  14.380 -0.1119  0.0533 -0.3006
12847TIP3    H159956   0.816   2.460  14.434  0.7209  0.0515 -1.4220
12847TIP3    H259957   0.766   2.461  14.291 -1.1075  0.7778 -0.7971
12848TIP3   OH259958   4.953   3.194  15.979  0.1071 -0.2411 -0.1883
12848TIP3    H159959   5.019   3.248  15.936  0.3169  2.6597  3.2387
12848TIP3    H259960   4.999   3.153  16.052 -1.3497  0.1292  1.0139
12849TIP3   OH259961   5.984   2.006  15.015 -0.0606 -0.5832 -0.4250
12849TIP3    H159962   5.895   2.000  14.981 -0.7162 -4.1289  1.4890
12849TIP3    H259963   6.024   1.922  14.991  1.3790 -0.7560  2.2358
12850TIP3   OH259964   6.654   3.107   5.411  0.2141 -0.5211  0.3325
12850TIP3    H159965   6.611   3.182   5.370  3.9696  2.1603  0.7148
12850TIP3    H259966   6.616   3.104   5.499  0.0191  1.0701  0.3440
12851TIP3   OH259967   0.890   0.548   2.570  0.5897 -0.0941 -0.4763
12851TIP3    H159968   0.957   0.483   2.551  1.9546  0.9399  0.5370
12851TIP3    H259969   0.864   0.583   2.485  1.4022 -0.4674 -0.8845
12852TIP3   OH259970   4.150   0.972   0.095  0.7582 -0.8255  0.4272
12852TIP3    H159971   4.204   0.919   0.153  2.5704  1.2599  0.7420
12852TIP3    H259972   4.203   0.982   0.016  0.0124 -0.2895 -0.0149
12853TIP3   OH259973   3.983   1.331   1.192  0.7917 -0.3967  0.4877
12853TIP3    H159974   3.927   1.268   1.146  1.4730 -0.7276  0.0979
12853TIP3    H259975   4.055   1.348   1.131 -0.2234  2.0953 -0.1847
12854TIP3   OH259976   4.420   2.470  14.713 -0.9649 -0.4824 -0.3033
12854TIP3    H159977   4.446   2.400  14.653  0.3313  0.0553 -0.4052
12854TIP3    H259978   4.404   2.545  14.656 -3.0786 -0.8319 -0.2727
12855TIP3   OH259979   4.424   4.627  17.165 -0.1230 -0.0106 -0.7483
12855TIP3    H159980   4.487   4.555  17.157 -0.1018 -0.4548  2.3581
12855TIP3    H259981   4.405   4.651  17.074  2.7238 -1.3934 -1.8571
12856TIP3   OH259982   3.112   3.895  14.924  0.4896 -0.1255 -0.8846
12856TIP3    H159983   3.020   3.918  14.913  0.2672  0.6685  1.9237
12856TIP3    H259984   3.159   3.978  14.910  0.4793  0.1446  0.5577
12857TIP3   OH259985   3.255   5.330  11.081 -0.0508  0.2154  0.0695
12857TIP3    H159986   3.171   5.376  11.070 -1.7358 -2.8287 -1.1554
12857TIP3    H259987   3.292   5.327  10.993 -0.6236 -1.7398 -0.1525
12858TIP3   OH259988   0.701   1.223  16.783  0.1188 -0.0332  0.5366
12858TIP3    H159989   0.704   1.180  16.869 -0.1809 -0.4619  0.3378
12858TIP3    H259990   0.767   1.291  16.788 -0.4709  0.5033  1.4034
12859TIP3   OH259991   5.673   3.760  16.031  1.0497 -0.1283 -0.4185
12859TIP3    H159992   5.594   3.792  16.073 -0.3035 -2.3748 -1.1022
12859TIP3    H259993   5.721   3.714  16.100  0.6474 -0.6687 -0.4966
12860TIP3   OH259994   0.717   4.415   5.050  0.4121  0.4539  0.1181
12860TIP3    H159995   0.715   4.425   4.955  0.0699  0.7492  0.1567
12860TIP3    H259996   0.695   4.502   5.084 -2.3097 -0.2838  0.4629
12861TIP3   OH259997   1.366   4.771  16.936 -0.3106 -1.0821  0.0895
12861TIP3    H159998   1.348   4.863  16.916 -0.5787 -1.2495 -0.4450
12861TIP3    H259999   1.319   4.722  16.869  1.2951 -1.5640 -0.7331
12862TIP3   OH260000   0.668   2.140   2.204 -0.1180 -0.0310  0.0209
12862TIP3    H160001   0.654   2.133   2.110 -2.7630 -1.3033  0.4088
12862TIP3    H260002   0.656   2.233   2.223  4.0216  0.9649 -1.2282
12863TIP3   OH260003   4.537   4.483   5.424  0.1774  0.1131 -0.0954
12863TIP3    H160004   4.483   4.430   5.365 -0.2629  0.8688 -0.3909
12863TIP3    H260005   4.511   4.454   5.512 -0.1994 -0.0232 -0.2482
12864TIP3   OH260006   4.223   2.721  11.840 -0.0370 -0.1572  0.1371
12864TIP3    H160007   4.233   2.634  11.879  0.5281 -0.8737 -1.5489
12864TIP3    H260008   4.307   2.764  11.857  0.1001 -0.3564 -0.0371
12865TIP3   OH260009   1.745   4.940   4.722  0.2448  1.1272 -0.1113
12865TIP3    H160010   1.705   4.972   4.803  0.0924  1.9958 -0.5184
12865TIP3    H260011   1.677   4.954   4.656 -0.6183 -1.8835 -0.0080
12866TIP3   OH260012   4.688   0.488   4.376 -0.3723 -0.2032  0.3357
12866TIP3    H160013   4.761   0.500   4.436 -0.6869  1.7414  0.3893
12866TIP3    H260014   4.610   0.490   4.432 -0.6535  1.4093 -0.0657
12867TIP3   OH260015   0.261   6.080   2.583  0.0530 -0.2663 -0.4190
12867TIP3    H160016   0.276   6.145   2.513  1.4367 -0.4572 -0.3335
12867TIP3    H260017   0.170   6.093   2.608 -0.0326  0.8646 -1.2062
12868TIP3   OH260018   5.438   5.477  13.257 -0.0797 -0.1332  0.1078
12868TIP3    H160019   5.534   5.481  13.248 -0.1069  0.1088 -0.0864
12868TIP3    H260020   5.419   5.384  13.268  0.0843 -0.3163 -1.0330
12869TIP3   OH260021   1.545   3.151   1.585  0.2597  0.3358  0.1811
12869TIP3    H160022   1.479   3.085   1.607 -0.8577  1.6453  0.9057
12869TIP3    H260023   1.514   3.231   1.627  0.7303  1.7333 -1.9752
12870TIP3   OH260024   2.503   2.351   2.244  0.6550 -0.0845 -0.6894
12870TIP3    H160025   2.449   2.278   2.214  2.9349 -1.3254 -2.0768
12870TIP3    H260026   2.486   2.421   2.181 -0.5920  0.1647 -0.0993
12871TIP3   OH260027   0.854   4.275  13.176 -0.0172  0.1734 -0.1384
12871TIP3    H160028   0.857   4.263  13.081 -1.8487  1.8780 -0.4839
12871TIP3    H260029   0.852   4.186  13.211 -0.1847 -0.5011 -1.7482
12872TIP3   OH260030   3.428   5.329  16.900 -0.6287 -0.0068  0.1406
12872TIP3    H160031   3.461   5.282  16.823  0.1807 -0.2279  0.6122
12872TIP3    H260032   3.384   5.406  16.864 -0.8187 -0.4388 -0.5729
12873TIP3   OH260033   4.484   6.135  14.427  0.0126 -0.4723 -0.2415
12873TIP3    H160034   4.502   6.179  14.344  2.2007  0.6323  0.7436
12873TIP3    H260035   4.439   6.202  14.480  0.7121 -0.3702  0.2410
12874TIP3   OH260036   1.678   3.816   2.660 -0.3986 -0.1514 -0.3234
12874TIP3    H160037   1.673   3.858   2.574  0.9230 -0.7838 -0.7353
12874TIP3    H260038   1.603   3.851   2.708 -0.8505  0.6271 -1.5462
12875TIP3   OH260039   0.113   2.915   2.565 -0.1776 -0.0731 -0.1036
12875TIP3    H160040   0.206   2.895   2.560 -0.0750  0.3892 -0.1041
12875TIP3    H260041   0.069   2.830   2.560  0.2098 -0.2228 -1.1637
12876TIP3   OH260042   1.906   0.112   1.810 -0.4009 -0.0153 -0.6900
12876TIP3    H160043   1.822   0.091   1.767 -1.0938  1.3624 -0.0650
12876TIP3    H260044   1.934   0.028   1.847 -0.1002 -1.1285 -3.1790
12877TIP3   OH260045   5.598   0.911   5.482 -0.5953  0.0302 -0.2450
12877TIP3    H160046   5.682   0.934   5.442 -0.9707  1.9660 -0.0232
12877TIP3    H260047   5.622   0.868   5.564  0.2693  2.8840  1.1039
12878TIP3   OH260048   2.842   0.239   0.824  0.4130  0.1685 -0.3633
12878TIP3    H160049   2.790   0.318   0.810  0.7473  0.2565 -1.1480
12878TIP3    H260050   2.792   0.169   0.782  0.1120 -0.0490  0.3396
12879TIP3   OH260051   4.673   3.678  16.036 -0.1253  0.1368 -0.7699
12879TIP3    H160052   4.735   3.735  15.992 -0.1520  0.4991 -0.3423
12879TIP3    H260053   4.692   3.591  16.003  0.7005  0.2256 -0.5395
12880TIP3   OH260054   6.058   5.997   0.796  0.3306  0.0802  0.5410
12880TIP3    H160055   6.000   5.939   0.747  1.0440 -0.9525  0.8773
12880TIP3    H260056   6.001   6.067   0.828 -0.6605 -0.7055  0.5448
12881TIP3   OH260057   3.952   1.880  14.277  0.0306  0.2912  0.0018
12881TIP3    H160058   3.882   1.823  14.311  0.9853 -0.5724  0.5670
12881TIP3    H260059   4.011   1.821  14.231  1.6531  0.5895  1.5797
12882TIP3   OH260060   0.500   4.548   1.162 -0.1580 -0.1789 -0.2458
12882TIP3    H160061   0.546   4.470   1.192  1.4063  0.4382 -0.9251
12882TIP3    H260062   0.431   4.562   1.228  0.5178 -1.2320  0.7285
12883TIP3   OH260063   3.044   3.879   4.473 -0.4896  0.4434  0.6870
12883TIP3    H160064   3.055   3.831   4.555 -1.4199 -1.0169 -0.0133
12883TIP3    H260065   3.012   3.814   4.411 -0.4020  1.6632 -0.6843
12884TIP3   OH260066   1.323   4.530  13.479  0.2097 -0.5474  0.0003
12884TIP3    H160067   1.299   4.486  13.397  0.9351 -2.6166  0.8529
12884TIP3    H260068   1.415   4.509  13.492  0.3675  0.5840  0.8843
12885TIP3   OH260069   5.316   5.985   3.555  0.0177  0.7139 -0.5581
12885TIP3    H160070   5.282   5.991   3.466  2.0815  1.2653 -1.3727
12885TIP3    H260071   5.333   6.075   3.580 -0.3444  0.5443  0.3076
12886TIP3   OH260072   5.390   6.579   6.117  0.4993 -0.4406  0.0282
12886TIP3    H160073   5.396   6.674   6.114 -1.4912 -0.2996 -1.1784
12886TIP3    H260074   5.322   6.557   6.053  1.5152 -2.7416 -0.3700
12887TIP3   OH260075   0.345   1.447  13.561 -0.4599  0.8413 -0.0868
12887TIP3    H160076   0.254   1.421  13.577 -0.9728  2.6280  0.0926
12887TIP3    H260077   0.389   1.435  13.645 -0.0730 -1.6081 -0.5684
12888TIP3   OH260078   0.666   6.568  11.170 -0.0195 -0.4412  1.0316
12888TIP3    H160079   0.571   6.582  11.175  0.0801  0.1601  1.2662
12888TIP3    H260080   0.683   6.500  11.235 -0.1609  0.1192  1.6634
12889TIP3   OH260081   0.023   4.944  11.446  0.0329 -0.3132 -0.4690
12889TIP3    H160082  -0.038   4.875  11.421 -0.7171  0.0095  0.4195
12889TIP3    H260083   0.095   4.937  11.383 -0.7754 -0.8925 -1.3471
12890TIP3   OH260084   3.648   3.389   0.861 -0.2042  0.5239 -0.6413
12890TIP3    H160085   3.701   3.309   0.862  0.2294  0.8113 -0.0536
12890TIP3    H260086   3.696   3.449   0.803  0.4245  0.9807  0.3310
12891TIP3   OH260087   3.129   1.906   2.397 -0.2842 -0.1482  0.1936
12891TIP3    H160088   3.114   1.959   2.319 -1.1695  0.0954  0.5099
12891TIP3    H260089   3.088   1.956   2.468  2.4623  0.7781  1.2702
12892TIP3   OH260090   1.455   1.846   2.411 -0.4257 -0.5217  0.5658
12892TIP3    H160091   1.384   1.909   2.402 -0.8597 -1.2776 -2.4950
12892TIP3    H260092   1.529   1.886   2.366  0.2383 -0.9803  1.2137
12893TIP3   OH260093   4.189   0.541   0.059  0.7862  0.0701  0.0511
12893TIP3    H160094   4.168   0.451   0.086 -0.7317  1.1972  3.1072
12893TIP3    H260095   4.104   0.578   0.033  0.6897  1.5376  2.1551
12894TIP3   OH260096   4.616   2.128  16.659 -0.2105  0.4968 -0.2547
12894TIP3    H160097   4.600   2.222  16.647 -1.7820  0.5537  1.6781
12894TIP3    H260098   4.595   2.112  16.751 -1.4525 -1.9985 -0.8794
12895TIP3   OH260099   4.094   5.667  15.977  0.2552  0.1726  0.6921
12895TIP3    H160100   4.032   5.603  16.012  1.1781  0.2391  2.5432
12895TIP3    H260101   4.176   5.618  15.969  0.6729  0.8105  1.0252
12896TIP3   OH260102   4.138   6.699  13.790 -0.2563 -0.4295 -0.5637
12896TIP3    H160103   4.082   6.681  13.715 -0.2603 -1.3687 -0.3534
12896TIP3    H260104   4.078   6.708  13.864 -0.1389 -2.8747 -0.0571
12897TIP3   OH260105   1.908   3.599  12.824  0.0106 -0.1933 -0.4203
12897TIP3    H160106   1.961   3.602  12.744 -0.7566 -0.5083 -0.9510
12897TIP3    H260107   1.964   3.556  12.888  0.0769 -1.3854 -1.2364
12898TIP3   OH260108   0.908   3.630   4.943  0.1644  0.0690  0.2343
12898TIP3    H160109   0.960   3.664   5.017  0.6252 -0.7146  0.2892
12898TIP3    H260110   0.954   3.661   4.865  0.1257  0.2367  0.2769
12899TIP3   OH260111   6.192   2.562  12.882  0.1856  0.2582 -0.3634
12899TIP3    H160112   6.216   2.629  12.818 -1.0781  1.8834  0.7785
12899TIP3    H260113   6.275   2.533  12.918  0.9276 -0.6934 -2.6825
12900TIP3   OH260114   0.846   3.138  14.006 -0.2585 -0.2688 -0.3181
12900TIP3    H160115   0.806   3.052  14.017 -1.8177  0.5556  0.8409
12900TIP3    H260116   0.832   3.160  13.914 -2.0341 -0.2530 -0.0761
12901TIP3   OH260117   2.412   3.080  11.336 -0.0198  0.2423 -0.6506
12901TIP3    H160118   2.416   2.987  11.355  0.2981  0.5897  1.1070
12901TIP3    H260119   2.340   3.089  11.273 -0.0421 -1.1689 -0.8459
12902TIP3   OH260120   0.427   0.190  12.973 -0.3324 -0.2426  0.2835
12902TIP3    H160121   0.518   0.217  12.976 -0.1062 -0.9384 -0.0438
12902TIP3    H260122   0.430   0.095  12.977 -0.9293 -0.3766 -1.4290
12903TIP3   OH260123   5.124   2.292   3.788  0.2729 -0.3683  0.2505
12903TIP3    H160124   5.062   2.246   3.844  0.9718 -1.2326  0.3436
12903TIP3    H260125   5.137   2.234   3.713 -1.3125  1.1595 -1.2877
12904TIP3   OH260126   1.694   5.864  16.075 -0.0198 -0.6021 -0.3232
12904TIP3    H160127   1.750   5.847  16.151 -1.2034 -2.4531  0.1970
12904TIP3    H260128   1.676   5.777  16.038 -2.8155 -0.1394 -0.2486
12905TIP3   OH260129   3.419   4.528  14.015 -0.6455 -0.6271  0.0681
12905TIP3    H160130   3.442   4.555  13.926 -1.1299 -0.5346 -0.0314
12905TIP3    H260131   3.416   4.610  14.064 -0.3760 -0.6785  0.1708
12906TIP3   OH260132   4.085   5.542  13.340 -0.2939 -0.1814 -0.0044
12906TIP3    H160133   4.036   5.604  13.395  0.1082 -1.0648  1.3902
12906TIP3    H260134   4.121   5.478  13.402 -0.1259 -1.4280 -1.3459
12907TIP3   OH260135   1.060   4.206  11.902  0.5415  0.2887 -0.0330
12907TIP3    H160136   1.051   4.162  11.818 -0.6412 -0.0231  0.2482
12907TIP3    H260137   1.008   4.155  11.963  0.3708  1.2149  0.6336
12908TIP3   OH260138   1.435   3.575  16.572  0.2771  0.2578  0.0134
12908TIP3    H160139   1.482   3.506  16.524 -0.7910 -0.3613 -0.1903
12908TIP3    H260140   1.497   3.605  16.638  0.3732 -1.7762  0.9221
12909TIP3   OH260141   2.170   4.879   4.263 -0.1635  0.2899  0.3883
12909TIP3    H160142   2.209   4.793   4.280  1.2108  1.3244  3.0400
12909TIP3    H260143   2.079   4.870   4.289 -0.0826 -0.3959  0.4542
12910TIP3   OH260144   6.232   1.923   1.045  0.0963  0.5214 -0.6993
12910TIP3    H160145   6.288   1.882   1.111  1.3633  0.4990 -1.7473
12910TIP3    H260146   6.221   1.855   0.978 -1.2982  0.4898 -0.4748
12911TIP3   OH260147   2.421   4.316  15.952  0.4200  0.1810  0.4868
12911TIP3    H160148   2.362   4.391  15.951  1.2095  0.8290  0.6218
12911TIP3    H260149   2.421   4.284  15.862  1.0244  1.1403  0.1191
12912TIP3   OH260150   2.662   3.809  10.592 -0.3819 -0.1731 -0.1739
12912TIP3    H160151   2.621   3.762  10.520 -2.0007  1.5627 -0.4785
12912TIP3    H260152   2.593   3.867  10.625  0.0386 -1.4565  3.3303
12913TIP3   OH260153   5.973   0.289  11.458  0.5200 -0.0876 -0.0030
12913TIP3    H160154   5.943   0.268  11.546  1.0207 -0.0697  0.1710
12913TIP3    H260155   5.940   0.377  11.442 -1.3742 -0.8580 -0.6432
12914TIP3   OH260156   5.527   1.485  11.997  0.0129 -0.1819 -0.2981
12914TIP3    H160157   5.590   1.557  12.008  2.0112 -1.8438 -0.1375
12914TIP3    H260158   5.443   1.528  11.984  0.7593  2.1582  1.8552
12915TIP3   OH260159   0.638   4.357  14.561 -0.0605  0.0547  0.1679
12915TIP3    H160160   0.709   4.388  14.618 -0.0013  1.3217 -0.5816
12915TIP3    H260161   0.662   4.387  14.474 -1.9907  1.3518  0.0355
12916TIP3   OH260162   3.325   2.155  14.462  0.3535 -0.1422 -0.4299
12916TIP3    H160163   3.241   2.183  14.426 -0.6399  0.3346  2.0629
12916TIP3    H260164   3.333   2.063  14.436 -1.9452 -0.8062  0.9437
12917TIP3   OH260165   2.766   3.068   4.280 -0.1098  0.4612 -0.1735
12917TIP3    H160166   2.755   3.031   4.368  1.8310  1.6741  0.6304
12917TIP3    H260167   2.819   3.004   4.234 -0.3879  0.2440 -0.1996
12918TIP3   OH260168   4.329   4.547   4.083 -0.0735  0.0315 -0.1726
12918TIP3    H160169   4.264   4.543   4.013  0.6385  1.2596 -0.9485
12918TIP3    H260170   4.289   4.601   4.151 -0.5997 -0.8050  0.1869
12919TIP3   OH260171   3.866   6.166  14.837  0.3807  0.5194 -0.2416
12919TIP3    H160172   3.791   6.202  14.885  0.1607  0.1159 -0.2745
12919TIP3    H260173   3.932   6.150  14.904 -0.3048 -1.0297  0.1094
12920TIP3   OH260174   4.404   4.728  16.462 -0.3282  0.2232  0.3957
12920TIP3    H160175   4.447   4.643  16.463 -0.6774  0.0411  0.1380
12920TIP3    H260176   4.400   4.753  16.370  0.0128  0.6420  0.4908
12921TIP3   OH260177   6.190   0.314   4.535 -0.2266  0.2936 -0.4784
12921TIP3    H160178   6.215   0.299   4.445 -2.4613  0.5922 -1.2267
12921TIP3    H260179   6.106   0.269   4.545 -0.5943  1.2156  1.1003
12922TIP3   OH260180   6.644   0.113  13.918 -0.1901 -0.2796  0.2059
12922TIP3    H160181   6.549   0.107  13.922 -0.2782 -1.1336 -1.8676
12922TIP3    H260182   6.673   0.098  14.008 -2.0141  0.3722  0.9333
12923TIP3   OH260183   3.719   6.451  16.798 -0.5069 -0.8653 -0.1172
12923TIP3    H160184   3.719   6.535  16.844 -0.1169 -0.3111 -1.0998
12923TIP3    H260185   3.629   6.440  16.768 -0.0728  0.3430 -1.9752
12924TIP3   OH260186   3.950   3.901  16.765 -0.0906  0.1677  0.3544
12924TIP3    H160187   3.856   3.916  16.779  0.4467  1.9334  2.6201
12924TIP3    H260188   3.990   3.987  16.779  1.8919 -0.5632 -0.5546
12925TIP3   OH260189   3.072   0.356  13.950 -0.2088 -0.9431  0.1076
12925TIP3    H160190   3.108   0.358  14.039  1.5607 -1.4345 -0.5534
12925TIP3    H260191   3.110   0.278  13.911 -0.6517 -0.5178 -1.2139
12926TIP3   OH260192   0.019   6.004   1.152  0.3661  0.1379  0.1341
12926TIP3    H160193  -0.006   6.016   1.244  0.4861 -0.1291  0.2043
12926TIP3    H260194  -0.058   5.963   1.112 -0.0608  1.1504 -0.1158
12927TIP3   OH260195   4.140   4.449  14.870  0.6210 -0.1427  1.0747
12927TIP3    H160196   4.234   4.430  14.868  0.2813 -1.9238  0.2177
12927TIP3    H260197   4.118   4.471  14.780  0.2823  0.6700  1.3500
12928TIP3   OH260198   0.837   0.027   1.747  0.2449  0.2085  0.1805
12928TIP3    H160199   0.825  -0.062   1.712 -1.4386  1.1859 -1.9877
12928TIP3    H260200   0.923   0.054   1.716  0.5185 -0.4614  0.3467
12929TIP3   OH260201   1.364   0.834   5.049 -0.5297  0.0908 -0.0284
12929TIP3    H160202   1.350   0.760   5.107 -0.5180 -0.0146 -0.1612
12929TIP3    H260203   1.390   0.906   5.107  0.7785 -0.3573 -0.0368
12930TIP3   OH260204   4.484   1.524  15.066  0.2436  0.0680 -0.4160
12930TIP3    H160205   4.394   1.556  15.070  0.1685  0.0766 -1.7947
12930TIP3    H260206   4.492   1.484  14.980  1.5884  0.1278 -0.3421
12931TIP3   OH260207   6.288   6.376   1.718  0.0356  0.0754 -0.3770
12931TIP3    H160208   6.348   6.404   1.787 -1.2443  0.3630  0.6570
12931TIP3    H260209   6.235   6.453   1.699 -0.9631 -0.5641 -0.2447
12932TIP3   OH260210   0.084   5.247  17.024 -0.3032 -0.2031  0.2003
12932TIP3    H160211  -0.002   5.271  17.059 -0.2723 -1.9153  1.6018
12932TIP3    H260212   0.139   5.323  17.039 -0.9704  0.0461  1.5283
12933TIP3   OH260213   5.939   0.904  11.213  0.6024 -0.1228  0.1250
12933TIP3    H160214   5.915   0.953  11.135  0.8109 -0.8118 -0.3804
12933TIP3    H260215   5.941   0.813  11.185 -0.5120 -0.5221  1.2264
12934TIP3   OH260216   1.435   5.912   1.652  0.6473 -0.1889  0.0958
12934TIP3    H160217   1.443   5.978   1.582  0.5246 -0.6604 -0.3696
12934TIP3    H260218   1.505   5.850   1.634  0.4727 -0.4340  0.2643
12935TIP3   OH260219   5.929   5.260   3.489  0.2417  0.0282  0.1180
12935TIP3    H160220   6.021   5.243   3.505  0.8611  2.3078 -0.5959
12935TIP3    H260221   5.926   5.351   3.460 -2.0302 -0.4834 -1.6023
12936TIP3   OH260222   5.336   4.634   0.421 -0.2188  0.1617 -0.6779
12936TIP3    H160223   5.405   4.672   0.366 -0.1159 -1.6250 -1.8596
12936TIP3    H260224   5.352   4.672   0.508  1.6011  0.6056 -1.1466
12937TIP3   OH260225   4.699   0.846   2.314  0.2696  0.0094 -0.4206
12937TIP3    H160226   4.773   0.825   2.257 -0.4858 -2.8250 -0.4991
12937TIP3    H260227   4.646   0.908   2.263  1.1066 -0.1840 -1.5639
12938TIP3   OH260228   6.677   0.246  14.932  0.6950  0.3283  0.2642
12938TIP3    H160229   6.612   0.211  14.992 -0.7662  0.7727 -0.9790
12938TIP3    H260230   6.631   0.255  14.849  2.3325  0.7448 -0.6622
12939TIP3   OH260231   2.455   5.428   4.095  0.3865  0.1907 -0.0799
12939TIP3    H160232   2.383   5.470   4.141 -0.7391 -3.2489  1.6836
12939TIP3    H260233   2.442   5.449   4.003 -2.2322  0.6070  0.3234
12940TIP3   OH260234   2.091   5.837  14.060  0.0125 -0.4066 -0.1593
12940TIP3    H160235   2.115   5.832  13.968 -1.4342  1.8803 -0.7476
12940TIP3    H260236   2.173   5.855  14.106  0.3606  1.5239 -1.4103
12941TIP3   OH260237   5.535   4.255   3.142 -0.0557 -0.3157  0.4337
12941TIP3    H160238   5.447   4.287   3.165 -1.0780 -1.0843 -2.0642
12941TIP3    H260239   5.587   4.335   3.132 -0.5150  0.1688  1.6430
12942TIP3   OH260240   3.514   2.083  15.143  0.5582  0.3496  0.2851
12942TIP3    H160241   3.609   2.075  15.146  0.5563  0.4467  0.7831
12942TIP3    H260242   3.492   2.128  15.225  0.2503  2.0134 -0.6606
12943TIP3   OH260243   0.028   0.235  13.318  0.1761  0.1489 -0.6653
12943TIP3    H160244  -0.047   0.270  13.271  0.8082  0.3081 -1.5680
12943TIP3    H260245   0.100   0.235  13.254  1.3238  1.3305  0.5544
12944TIP3   OH260246   4.324   1.450  11.719  0.3093 -0.3272  0.5370
12944TIP3    H160247   4.354   1.495  11.798 -1.5148 -0.8088  1.5662
12944TIP3    H260248   4.343   1.511  11.648  0.6330  0.7655  1.5284
12945TIP3   OH260249   6.311   5.855  13.591 -0.7146 -0.2357  0.0780
12945TIP3    H160250   6.382   5.809  13.547 -0.3709  1.0749 -0.7549
12945TIP3    H260251   6.352   5.931  13.631 -1.2151 -0.8101  1.7955
12946TIP3   OH260252   1.951   0.217  11.964 -0.4758 -0.4598  0.1174
12946TIP3    H160253   1.908   0.179  12.042 -0.9481 -0.1914 -0.0068
12946TIP3    H260254   2.014   0.279  12.000 -1.5877  0.6134  0.2768
12947TIP3   OH260255   5.088   0.455  14.351  0.2425 -0.3892  0.4655
12947TIP3    H160256   5.039   0.498  14.422  1.0439  0.5427  0.4723
12947TIP3    H260257   5.180   0.466  14.375  0.5659  0.6613 -1.1214
12948TIP3   OH260258   6.311   4.334  14.444 -0.2062  0.8553 -0.0315
12948TIP3    H160259   6.332   4.386  14.522  0.4363 -0.3476  0.6185
12948TIP3    H260260   6.394   4.296  14.417 -0.8233 -0.7169  0.1770
12949TIP3   OH260261   0.748   2.428  13.785  0.1165 -0.0246  0.1570
12949TIP3    H160262   0.743   2.370  13.861  0.5382 -0.8521 -0.4389
12949TIP3    H260263   0.811   2.496  13.811  0.2105 -0.2632  0.5670
12950TIP3   OH260264   3.314   6.174   3.790  0.5328 -0.1283 -0.4468
12950TIP3    H160265   3.308   6.100   3.730  0.5308 -2.4773  2.2636
12950TIP3    H260266   3.398   6.215   3.768 -0.1454  0.0467 -2.9712
12951TIP3   OH260267   4.697   1.059   5.287  0.1598  0.0208 -0.3073
12951TIP3    H160268   4.657   1.103   5.363  0.8526  0.9706 -0.4743
12951TIP3    H260269   4.691   1.123   5.217  2.2524  0.3323 -0.2510
12952TIP3   OH260270   2.420   2.953  16.308  0.4382 -0.3171  0.8224
12952TIP3    H160271   2.476   2.896  16.256  0.3121 -0.0110  0.3497
12952TIP3    H260272   2.423   3.038  16.264 -2.1923 -0.8306 -0.5976
12953TIP3   OH260273   5.351   2.493   4.991  0.3035  0.0987  0.5241
12953TIP3    H160274   5.314   2.442   4.919  0.4100  0.6974  0.0487
12953TIP3    H260275   5.443   2.501   4.970  0.3952  0.0306  0.8813
12954TIP3   OH260276   1.555   1.798   0.994  0.2987 -0.3310  0.0296
12954TIP3    H160277   1.584   1.881   0.957  0.7760  0.1691  1.4503
12954TIP3    H260278   1.474   1.777   0.947  0.7926  0.3369 -1.1485
12955TIP3   OH260279   5.449   2.644   1.591  0.7454 -1.1629 -0.7718
12955TIP3    H160280   5.537   2.628   1.627  0.3584 -1.8689 -0.1216
12955TIP3    H260281   5.395   2.666   1.667  0.5258  0.1030 -1.2644
12956TIP3   OH260282   1.073   0.955   0.796  0.8213 -0.3937 -0.5424
12956TIP3    H160283   1.103   1.029   0.743  1.0763 -0.0358  0.0838
12956TIP3    H260284   0.986   0.935   0.762  1.5067 -1.0553 -1.9939
12957TIP3   OH260285   4.165   1.061  14.793 -0.1981  0.0767 -0.2962
12957TIP3    H160286   4.087   1.101  14.832  0.6521 -0.0737  1.6514
12957TIP3    H260287   4.167   0.972  14.828 -0.0170 -0.4722 -1.6346
12958TIP3   OH260288   1.687   0.482  16.876  0.1740 -0.6617  0.2017
12958TIP3    H160289   1.765   0.453  16.924  0.9926  1.0491 -0.0038
12958TIP3    H260290   1.614   0.461  16.934  0.7841 -2.0953  0.5027
12959TIP3   OH260291   0.992   0.418   4.027  0.7881 -0.1594 -0.5771
12959TIP3    H160292   1.013   0.325   4.034  0.5148 -0.1236  1.1298
12959TIP3    H260293   1.043   0.459   4.097 -0.3329  0.7433 -0.2605
12960TIP3   OH260294   6.453   0.067   1.420  0.3144 -0.4476 -0.1933
12960TIP3    H160295   6.543   0.093   1.398  0.0972  0.4670 -0.0551
12960TIP3    H260296   6.463  -0.016   1.467  1.3842  1.1820  2.7394
12961TIP3   OH260297   3.415   5.582  15.646 -0.5608  0.1616 -0.3904
12961TIP3    H160298   3.481   5.620  15.587  0.7512  0.9110  1.4651
12961TIP3    H260299   3.380   5.657  15.694 -1.6770 -0.4236 -0.2546
12962TIP3   OH260300   3.123   1.056  12.021 -0.5531 -0.0133 -0.4824
12962TIP3    H160301   3.165   1.092  12.100  0.8432  0.3323 -1.3374
12962TIP3    H260302   3.104   0.965  12.043  1.4621 -0.4431 -0.3085
12963TIP3   OH260303   2.157   5.855  13.008  0.4342  0.0672 -0.0076
12963TIP3    H160304   2.193   5.938  13.038 -0.3236  0.4856 -0.2236
12963TIP3    H260305   2.231   5.810  12.967  0.9229  0.4967  0.3942
12964TIP3   OH260306   4.516   6.740  12.371 -0.2292  0.3456  0.3301
12964TIP3    H160307   4.526   6.703  12.283  0.9881  0.5199  0.3792
12964TIP3    H260308   4.465   6.820  12.358  0.3515  0.6244 -0.2912
12965TIP3   OH260309   3.294   0.771  13.333 -0.4173  0.1460  0.3843
12965TIP3    H160310   3.204   0.790  13.360 -0.5264 -0.4434  0.4532
12965TIP3    H260311   3.347   0.833  13.382 -0.8152  0.7872  0.0231
12966TIP3   OH260312   0.021   2.063   0.644  0.2513  0.5980 -0.6980
12966TIP3    H160313  -0.012   2.106   0.565  1.1026  0.7138 -0.9910
12966TIP3    H260314   0.099   2.113   0.668  1.0637 -0.5679 -0.8421
12967TIP3   OH260315   0.007   4.320  17.160  0.5068  1.3068 -0.4172
12967TIP3    H160316   0.058   4.372  17.221 -0.7965  0.6422  1.3222
12967TIP3    H260317  -0.084   4.345  17.177 -0.0921 -0.7482 -0.2391
12968TIP3   OH260318   4.589   2.851   0.609  0.1475  0.4250  0.1738
12968TIP3    H160319   4.544   2.808   0.536 -0.0218  0.6911  0.1224
12968TIP3    H260320   4.608   2.939   0.577  0.9846  0.2263  0.0753
12969TIP3   OH260321   2.932   2.545   3.534 -0.0276 -0.3548 -0.2377
12969TIP3    H160322   2.984   2.620   3.503 -0.0750  0.0161  0.5672
12969TIP3    H260323   2.984   2.469   3.510  0.4548 -0.0249 -0.2505
12970TIP3   OH260324   2.517   3.115   2.475  0.0015  0.7405 -0.3313
12970TIP3    H160325   2.444   3.106   2.536  1.2324  1.6567  1.3680
12970TIP3    H260326   2.491   3.065   2.398 -1.6420 -0.4204  0.9208
12971TIP3   OH260327   4.267   5.827  16.596 -0.1565  0.0958 -0.3785
12971TIP3    H160328   4.187   5.790  16.558 -0.3171  0.1084 -0.0632
12971TIP3    H260329   4.323   5.847  16.521  0.1706 -1.3228 -0.5356
12972TIP3   OH260330   5.190   6.217  17.160  0.3675 -0.0689  0.1662
12972TIP3    H160331   5.185   6.182  17.071 -0.8029  0.9551 -0.2004
12972TIP3    H260332   5.118   6.280  17.165  1.5127  1.2208  1.2469
12973TIP3   OH260333   5.635   4.505   2.959 -0.3046 -0.8775 -0.5395
12973TIP3    H160334   5.680   4.454   2.890 -0.6600 -2.9579  0.6781
12973TIP3    H260335   5.545   4.514   2.927  0.4668  1.9213 -2.2488
12974TIP3   OH260336   6.432   6.435   3.537 -0.3104 -0.2525 -0.1012
12974TIP3    H160337   6.505   6.411   3.594  0.3791 -0.0747 -0.8867
12974TIP3    H260338   6.424   6.530   3.548  0.4176 -0.0784 -0.9636
12975TIP3   OH260339   4.832   5.926   4.408 -0.5203 -0.3703 -0.4150
12975TIP3    H160340   4.904   5.900   4.351  0.9346  0.7301  0.8592
12975TIP3    H260341   4.873   5.942   4.493 -2.5987 -1.9198  0.9990
12976TIP3   OH260342   3.906   2.448   5.166  0.3100 -0.0837 -0.0884
12976TIP3    H160343   3.918   2.354   5.178 -0.5500 -0.3162 -0.9500
12976TIP3    H260344   3.901   2.460   5.071 -0.6576  0.6772  0.0437
12977TIP3   OH260345   1.557   2.483  11.603  0.2231 -0.5457 -0.3941
12977TIP3    H160346   1.526   2.393  11.610  2.1888 -1.3055 -0.7165
12977TIP3    H260347   1.650   2.478  11.627  0.3679  1.3987 -0.4107
12978TIP3   OH260348   0.352   4.782  12.744  0.5656  0.3401  0.1893
12978TIP3    H160349   0.285   4.809  12.682  0.1222 -0.9658  0.0803
12978TIP3    H260350   0.356   4.687  12.736  2.6770  0.4034 -0.0596
12979TIP3   OH260351   6.640   0.979   2.048  0.1656 -0.3130  0.3161
12979TIP3    H160352   6.642   1.058   2.103  2.3339 -0.3062  0.3352
12979TIP3    H260353   6.708   0.995   1.982  0.0479 -1.8005 -0.1981
12980TIP3   OH260354   4.147   1.705  13.154 -0.0735  0.4062  0.4296
12980TIP3    H160355   4.191   1.627  13.121 -0.5023  0.1000  0.5784
12980TIP3    H260356   4.095   1.674  13.228 -0.9160  0.6744 -0.0392
12981TIP3   OH260357   1.502   0.582   1.667  0.2931  0.3032 -0.4468
12981TIP3    H160358   1.577   0.569   1.609  0.6116  0.6280 -0.1203
12981TIP3    H260359   1.475   0.672   1.652  1.6955  1.1080  1.3744
12982TIP3   OH260360   5.102   1.148   1.723  0.1536 -0.1084  0.2583
12982TIP3    H160361   5.052   1.108   1.795  0.7624 -0.8183  0.2961
12982TIP3    H260362   5.160   1.079   1.692 -0.7844 -0.1253 -1.5893
12983TIP3   OH260363   1.132   3.869   5.692  0.2432  0.4121  0.1862
12983TIP3    H160364   1.100   3.936   5.753 -0.0459  0.5072 -0.0659
12983TIP3    H260365   1.055   3.847   5.639  0.4324  0.1513  0.0225
12984TIP3   OH260366   0.411   6.065   6.677 -0.1697  0.1987  0.3578
12984TIP3    H160367   0.395   6.119   6.600  1.4744 -0.7426 -0.6877
12984TIP3    H260368   0.505   6.070   6.691 -0.3578 -0.2092  1.9013
12985TIP3   OH260369   1.629   3.305   2.442 -0.2047 -0.2809  0.1947
12985TIP3    H160370   1.708   3.289   2.494  0.0242 -0.7200 -0.2851
12985TIP3    H260371   1.632   3.398   2.422  0.6188 -0.4513 -0.5117
12986TIP3   OH260372   0.810   3.891   3.508  0.5855 -0.4187  0.4128
12986TIP3    H160373   0.801   3.798   3.529 -0.0584  0.0348  2.3548
12986TIP3    H260374   0.742   3.934   3.561  0.3807  1.1001 -0.9977
12987TIP3   OH260375   3.962   2.015  16.973  0.1118 -0.2069 -0.3798
12987TIP3    H160376   4.012   2.097  16.975  0.2755 -0.3108 -0.1670
12987TIP3    H260377   3.870   2.043  16.975  0.1396  0.0190 -1.7008
12988TIP3   OH260378   5.820   0.738   3.000 -0.4613 -0.3023 -0.0906
12988TIP3    H160379   5.794   0.799   3.069 -2.5855  0.3584 -1.3920
12988TIP3    H260380   5.878   0.676   3.045  0.4316  1.6465  1.6489
12989TIP3   OH260381   5.894   1.471  16.457  0.4122 -0.0202 -0.1669
12989TIP3    H160382   5.834   1.494  16.386 -0.2241  1.3321  0.7712
12989TIP3    H260383   5.981   1.469  16.415  0.0018  0.3283 -1.0634
12990TIP3   OH260384   0.713   6.507  11.456 -0.1269 -0.1738  0.1755
12990TIP3    H160385   0.649   6.523  11.525 -0.6566 -1.1110 -0.0895
12990TIP3    H260386   0.730   6.413  11.459 -0.5951 -0.3398 -1.3208
12991TIP3   OH260387   1.139   3.145   3.745  0.2523  0.0506  0.3007
12991TIP3    H160388   1.193   3.155   3.667  0.6721 -2.8921  0.0839
12991TIP3    H260389   1.202   3.123   3.814 -0.3768 -0.1557  0.8193
12992TIP3   OH260390   5.670   5.407   0.532  0.9843 -0.2948  0.1493
12992TIP3    H160391   5.622   5.326   0.549  0.1575 -0.2410 -1.6432
12992TIP3    H260392   5.639   5.468   0.599 -1.0211 -0.4610 -0.5561
12993TIP3   OH260393   2.991   3.386   1.261  0.2963 -0.4345  0.2370
12993TIP3    H160394   3.066   3.402   1.204 -0.0090  0.9769  0.1921
12993TIP3    H260395   2.943   3.316   1.217  0.8875 -0.4418 -0.4249
12994TIP3   OH260396   5.444   3.255   2.458  0.0291 -0.1846  0.1724
12994TIP3    H160397   5.349   3.260   2.461  0.0985  0.9537  1.1055
12994TIP3    H260398   5.470   3.233   2.547  0.6577 -0.1272  0.0078
12995TIP3   OH260399   0.696   0.025  13.426  0.3148 -0.4002 -0.0228
12995TIP3    H160400   0.762   0.082  13.466 -0.0614  0.9199 -1.2133
12995TIP3    H260401   0.618   0.079  13.420  0.0015 -0.9632 -1.3759
12996TIP3   OH260402   2.077   6.342   2.813 -0.5082  0.6021  0.5994
12996TIP3    H160403   2.059   6.256   2.775 -2.5597  1.0177  0.5065
12996TIP3    H260404   2.151   6.376   2.763 -2.4534  0.6982 -2.4284
12997TIP3   OH260405   6.644   5.703  15.231 -0.9356  0.1044 -0.5556
12997TIP3    H160406   6.708   5.740  15.292 -0.2673 -2.2189  0.2651
12997TIP3    H260407   6.582   5.774  15.215 -0.4080  1.1960  1.8179
12998TIP3   OH260408   3.191   4.736   4.787  0.2794 -0.2046  0.3740
12998TIP3    H160409   3.150   4.689   4.715 -1.2851  1.0424  0.3871
12998TIP3    H260410   3.283   4.708   4.786  0.5393  0.4326 -2.6755
12999TIP3   OH260411   5.689   0.776   3.426  0.0516  0.2142 -0.0597
12999TIP3    H160412   5.671   0.861   3.466  1.9603  0.6947 -0.1331
12999TIP3    H260413   5.703   0.795   3.333 -0.2888 -0.3033 -0.2240
13000TIP3   OH260414   5.803   0.967  15.103  0.2154  0.2050  0.1145
13000TIP3    H160415   5.803   0.915  15.022  1.6022 -1.5000  1.1266
13000TIP3    H260416   5.893   1.000  15.110 -0.3366  1.7649  0.1354
13001TIP3   OH260417   4.571   6.460   0.462 -0.4333  0.7953 -0.1853
13001TIP3    H160418   4.582   6.483   0.369 -0.6420  0.9420 -0.1735
13001TIP3    H260419   4.525   6.535   0.500 -0.0974  0.8578  0.0976
13002TIP3   OH260420   5.689   2.935   0.065  0.0450  0.5645 -0.2046
13002TIP3    H160421   5.711   2.980   0.147 -2.5823  0.0539  0.8655
13002TIP3    H260422   5.741   2.854   0.068 -0.0195  0.5440  0.9955
13003TIP3   OH260423   3.442   2.624   4.124  0.6642  0.5913  0.7962
13003TIP3    H160424   3.529   2.623   4.162  0.7454  1.6780  0.6634
13003TIP3    H260425   3.387   2.666   4.190 -0.0771 -1.3058  1.4769
13004TIP3   OH260426   6.311   4.254  15.080 -0.1417  0.1920  0.2685
13004TIP3    H160427   6.231   4.303  15.063  0.0118  0.7458  1.0997
13004TIP3    H260428   6.311   4.184  15.014  0.4359  2.2363 -2.0727
13005TIP3   OH260429   3.411   6.350   4.195  0.1285 -0.2904  0.2662
13005TIP3    H160430   3.446   6.262   4.185  1.5039  0.0208  1.7944
13005TIP3    H260431   3.340   6.341   4.258 -0.2432 -0.4198 -0.1717
13006TIP3   OH260432   1.224   0.691   1.095 -0.4198 -0.1344  0.1284
13006TIP3    H160433   1.227   0.759   1.028  3.1828  0.2778  0.5186
13006TIP3    H260434   1.140   0.648   1.082 -0.8728  1.4325 -3.0813
13007TIP3   OH260435   2.710   3.285  15.223 -0.2552  0.7927  0.5577
13007TIP3    H160436   2.633   3.300  15.169  0.3797  0.9259 -0.3308
13007TIP3    H260437   2.719   3.365  15.275 -0.6011  0.8526  0.5270
13008TIP3   OH260438   3.302   0.659   0.868 -0.3512  0.0585  0.3762
13008TIP3    H160439   3.346   0.606   0.934 -0.7186 -0.9627 -0.1892
13008TIP3    H260440   3.248   0.598   0.819  0.0147  0.7757 -0.9727
13009TIP3   OH260441   2.517   5.076  11.874  0.1421 -0.4073 -0.0583
13009TIP3    H160442   2.504   5.027  11.793 -1.2209 -0.1611 -0.0113
13009TIP3    H260443   2.514   5.009  11.943  1.1475 -0.5959 -0.1717
13010TIP3   OH260444   6.123   3.306   1.602  0.6397 -0.2780  0.0277
13010TIP3    H160445   6.194   3.352   1.647  0.7824 -0.2647 -0.2101
13010TIP3    H260446   6.167   3.251   1.538  0.6032 -2.3049  1.6511
13011TIP3   OH260447   4.527   3.901  16.777  0.0359 -0.7454 -0.8514
13011TIP3    H160448   4.607   3.878  16.730 -0.4976  0.2787 -2.3464
13011TIP3    H260449   4.551   3.976  16.830  0.3537 -1.1886 -0.3595
13012TIP3   OH260450   6.586   3.311   5.250 -0.2327 -0.8765 -0.2087
13012TIP3    H160451   6.601   3.387   5.193 -0.4631 -0.1138  0.7175
13012TIP3    H260452   6.496   3.322   5.281  0.1043 -0.9086  0.8237
13013TIP3   OH260453   4.633   0.079  15.319  0.3442 -0.7745 -0.2002
13013TIP3    H160454   4.538   0.066  15.320 -0.0825  1.6677  1.5121
13013TIP3    H260455   4.655   0.091  15.227 -1.0477 -1.0690 -0.5959
13014TIP3   OH260456   6.351   0.771   6.741  0.4540 -0.6824 -0.2539
13014TIP3    H160457   6.428   0.801   6.693  0.9539  0.3514  1.1460
13014TIP3    H260458   6.366   0.677   6.755  1.1461 -0.6190 -0.5535
13015TIP3   OH260459   3.595   1.933  11.679 -0.3454  0.3283  0.0023
13015TIP3    H160460   3.526   1.866  11.677 -0.3444  0.3422 -0.7079
13015TIP3    H260461   3.599   1.966  11.589  0.1177  0.8136  0.1977
13016TIP3   OH260462   3.390   4.329   1.761 -0.6593  0.7416 -0.0343
13016TIP3    H160463   3.417   4.315   1.670  0.0578  1.6974  0.0139
13016TIP3    H260464   3.410   4.246   1.805  0.8673  0.9098 -0.3331
13017TIP3   OH260465   3.779   3.361   4.416 -0.5724 -0.1047  0.1823
13017TIP3    H160466   3.786   3.410   4.333 -0.5966 -0.5014 -0.0564
13017TIP3    H260467   3.861   3.381   4.461 -0.8607  0.6809  0.3801
13018TIP3   OH260468   6.674   3.188   4.040 -0.4633  0.1092 -0.2964
13018TIP3    H160469   6.702   3.279   4.026  0.4377  0.2881  2.2121
13018TIP3    H260470   6.578   3.194   4.042 -0.5005  0.6461 -2.0752
13019TIP3   OH260471   4.282   0.104  12.577 -0.4909  0.3786 -0.3691
13019TIP3    H160472   4.338   0.171  12.615  1.4944 -0.5563 -1.4499
13019TIP3    H260473   4.274   0.130  12.485  2.0930 -1.7992 -1.3612
13020TIP3   OH260474   0.970   6.109  14.958 -0.0912  0.2573  0.0097
13020TIP3    H160475   1.042   6.133  15.016 -1.1120  1.0601  0.9938
13020TIP3    H260476   0.918   6.046  15.008  0.5857 -1.3286 -1.1845
13021TIP3   OH260477   5.121   3.577  14.667  0.0078  0.4687 -1.1182
13021TIP3    H160478   5.152   3.502  14.617  1.1130 -0.0023  0.2065
13021TIP3    H260479   5.036   3.550  14.701  0.7943 -0.5933  0.1053
13022TIP3   OH260480   0.764   2.737  11.943  0.4695 -0.1927 -0.1599
13022TIP3    H160481   0.821   2.706  12.013 -1.0220 -1.6703  0.4546
13022TIP3    H260482   0.722   2.658  11.909 -0.1491  0.6982 -1.5453
13023TIP3   OH260483   2.258   3.723  12.881 -0.3364 -0.1966 -0.0372
13023TIP3    H160484   2.194   3.662  12.917  0.1692  0.3757  1.9684
13023TIP3    H260485   2.315   3.669  12.827  0.3946 -1.6687  2.0639
13024TIP3   OH260486   5.521   2.681   1.233  0.1517 -0.2709  0.2967
13024TIP3    H160487   5.544   2.647   1.146  0.4979 -1.0961  0.7043
13024TIP3    H260488   5.435   2.644   1.251  0.2068 -0.3330  0.4311
13025TIP3   OH260489   5.745   0.352   1.174  0.4211 -0.5615  0.1541
13025TIP3    H160490   5.818   0.295   1.151  1.1907  0.7988 -0.9135
13025TIP3    H260491   5.729   0.403   1.095  0.7698  1.7802  1.5200
13026TIP3   OH260492   4.970   2.057  17.179  0.3191  0.0988 -0.0687
13026TIP3    H160493   5.033   2.074  17.109  0.5949  0.4029  0.2492
13026TIP3    H260494   5.024   2.055  17.258  0.0394 -0.4550  0.1067
13027TIP3   OH260495   3.530   6.680  11.604  0.4175  0.1621 -0.0144
13027TIP3    H160496   3.459   6.616  11.592  0.2606  0.3752 -0.2331
13027TIP3    H260497   3.602   6.629  11.639 -0.8600  0.4700  3.4698
13028TIP3   OH260498   3.029   0.218  15.138 -0.3671  0.0348  0.7328
13028TIP3    H160499   3.067   0.151  15.081 -0.5223 -0.2188  0.9249
13028TIP3    H260500   2.952   0.177  15.175 -0.3727  0.2668  0.9806
13029TIP3   OH260501   0.124   0.920   3.098  0.1854 -0.3414  0.7699
13029TIP3    H160502   0.090   0.887   3.015 -0.5244  0.7447  0.5948
13029TIP3    H260503   0.215   0.892   3.100  0.0325 -0.9529 -0.0613
13030TIP3   OH260504   4.423   2.067  16.265 -0.2323 -0.3522 -0.0360
13030TIP3    H160505   4.401   2.153  16.300 -0.8563 -0.6817  0.4036
13030TIP3    H260506   4.379   2.064  16.180 -1.7397 -0.8956  0.7090
13031TIP3   OH260507   2.673   4.496   6.076 -0.0242  0.6356  0.3865
13031TIP3    H160508   2.720   4.436   6.019  0.2843  0.9748  0.2805
13031TIP3    H260509   2.621   4.440   6.133 -0.7083  0.2963 -0.5357
13032TIP3   OH260510   2.992   1.424  13.524 -0.1060  0.0731 -0.3508
13032TIP3    H160511   3.084   1.414  13.500  0.1262  2.5457 -0.8564
13032TIP3    H260512   2.988   1.509  13.568 -1.9359 -0.6294  0.9545
13033TIP3   OH260513   3.347   1.888  14.359 -0.3902 -0.3253 -0.1496
13033TIP3    H160514   3.422   1.863  14.305  0.6418 -0.0545  1.0958
13033TIP3    H260515   3.272   1.848  14.316  0.8014 -3.0791  0.1209
13034TIP3   OH260516   0.841   2.165   1.403 -0.1142 -0.2543 -0.1104
13034TIP3    H160517   0.910   2.113   1.362  0.2244  0.1127 -0.0089
13034TIP3    H260518   0.826   2.123   1.487 -0.6023 -0.8311 -0.4697
13035TIP3   OH260519   5.632   4.224   5.420 -0.7237 -0.3644  0.9373
13035TIP3    H160520   5.702   4.173   5.460  0.1195  0.6443  0.7967
13035TIP3    H260521   5.574   4.159   5.381  0.4981 -1.2125  0.4643
13036TIP3   OH260522   6.422   3.613  13.216  0.5619  0.4662 -0.7656
13036TIP3    H160523   6.365   3.553  13.168 -0.8509  1.0789  0.1044
13036TIP3    H260524   6.440   3.683  13.154  0.5545  0.1640 -1.1158
13037TIP3   OH260525   6.393   3.862  13.659 -0.9447  0.3027 -0.4613
13037TIP3    H160526   6.303   3.864  13.691 -1.1403  1.4203 -1.0280
13037TIP3    H260527   6.446   3.888  13.734 -1.1571  0.3233 -0.3192
13038TIP3   OH260528   4.034   4.083  14.042 -0.2082 -0.3719  0.4918
13038TIP3    H160529   4.071   4.024  13.976 -0.8003 -1.1233  0.8145
13038TIP3    H260530   3.987   4.149  13.991 -0.7202 -0.9845  0.1416
13039TIP3   OH260531   2.076   1.129  16.882  0.1586  0.5376  0.2999
13039TIP3    H160532   2.171   1.116  16.883  0.4300  2.2404  0.1020
13039TIP3    H260533   2.041   1.050  16.841  1.7510  1.2218 -2.6484
13040TIP3   OH260534   3.412   0.718  10.756 -0.1613  0.1790 -0.0075
13040TIP3    H160535   3.407   0.674  10.671 -0.1714  0.2675 -0.0519
13040TIP3    H260536   3.427   0.810  10.735  2.4945 -0.1585  0.1226
13041TIP3   OH260537   4.055   0.137  12.879 -0.0117  0.1443 -0.2628
13041TIP3    H160538   4.047   0.216  12.932  1.5799 -1.2302  2.2121
13041TIP3    H260539   4.129   0.089  12.917 -1.3811 -2.9210 -1.1097
13042TIP3   OH260540   2.580   3.224   0.374  0.8402  0.2090  0.3699
13042TIP3    H160541   2.581   3.241   0.280  0.6951  0.2367  0.3740
13042TIP3    H260542   2.508   3.162   0.387  0.1346  1.0614  0.6114
13043TIP3   OH260543   1.346   6.684  10.648  0.1604 -0.0440  1.1063
13043TIP3    H160544   1.362   6.778  10.648 -0.6430  0.1022  0.4057
13043TIP3    H260545   1.421   6.647  10.694  0.3804  0.9527  1.5669
13044TIP3   OH260546   5.533   6.584  14.555  0.1462 -0.1511 -0.4971
13044TIP3    H160547   5.469   6.637  14.602 -0.2473 -0.1291 -1.0478
13044TIP3    H260548   5.547   6.508  14.611  0.7254  0.5289  0.3092
13045TIP3   OH260549   6.491   2.239   0.931 -0.4264 -0.0134 -0.1348
13045TIP3    H160550   6.507   2.272   1.019 -1.5106 -2.2407  0.9921
13045TIP3    H260551   6.508   2.145   0.937  1.4953  0.0471 -2.8578
13046TIP3   OH260552   5.452   0.147   0.614  0.0916  0.2719  0.1941
13046TIP3    H160553   5.499   0.222   0.576  0.4356 -0.2834 -0.5147
13046TIP3    H260554   5.464   0.157   0.708  1.4474  0.2794  0.0490
13047TIP3   OH260555   2.291   3.281  11.800 -0.2393 -0.1897 -0.3679
13047TIP3    H160556   2.341   3.322  11.871  1.0273 -1.4769 -0.4779
13047TIP3    H260557   2.263   3.354  11.745  2.7440  0.5176 -1.0934
13048TIP3   OH260558   5.870   4.596  16.456 -0.5800  0.4732 -0.5963
13048TIP3    H160559   5.851   4.571  16.366 -0.2846  1.2906 -0.8896
13048TIP3    H260560   5.787   4.632  16.489 -1.0804 -1.0423 -0.0947
13049TIP3   OH260561   2.407   4.612  15.244  0.7069 -0.1891 -0.0167
13049TIP3    H160562   2.359   4.669  15.184  0.0145  0.0685  0.7553
13049TIP3    H260563   2.497   4.645  15.243  0.7650 -0.3475 -1.0884
13050TIP3   OH260564   5.192   2.484  16.370  0.4810  0.0626 -0.3646
13050TIP3    H160565   5.205   2.390  16.382  1.9314  0.1602 -0.9644
13050TIP3    H260566   5.099   2.498  16.387  0.1667 -1.5382 -0.6133
13051TIP3   OH260567   0.551   5.468  16.850  0.2346  0.4849 -0.0348
13051TIP3    H160568   0.573   5.485  16.942  0.6855  2.0382 -0.4112
13051TIP3    H260569   0.634   5.439  16.811  0.0222 -0.2654  0.0481
13052TIP3   OH260570   2.778   0.400   5.182 -0.1552  0.2097 -0.4067
13052TIP3    H160571   2.870   0.420   5.164  0.2498 -1.1533  0.0286
13052TIP3    H260572   2.756   0.333   5.117 -0.7175  0.2522 -0.2570
13053TIP3   OH260573   0.919   5.657   1.804  0.1135  0.1285 -0.1887
13053TIP3    H160574   0.835   5.635   1.763  0.5479  3.0728 -3.1272
13053TIP3    H260575   0.957   5.724   1.746  3.9833 -0.2109  1.6297
13054TIP3   OH260576   6.704   6.549  11.217 -0.0225 -0.5805 -0.5140
13054TIP3    H160577   6.647   6.621  11.243 -1.2479 -2.3044  1.9746
13054TIP3    H260578   6.657   6.503  11.148  0.0724  0.0810 -1.0299
13055TIP3   OH260579   2.696   3.864  14.085  0.0055 -0.0740 -0.1406
13055TIP3    H160580   2.739   3.795  14.033  0.4133  0.1103 -0.0476
13055TIP3    H260581   2.678   3.934  14.022 -1.5223 -0.7428 -0.5045
13056TIP3   OH260582   1.138   5.839   1.078 -0.0525 -0.6834  0.2214
13056TIP3    H160583   1.192   5.764   1.053 -1.9819 -1.1514 -3.2025
13056TIP3    H260584   1.050   5.803   1.085 -0.5409  0.7189  1.8545
13057TIP3   OH260585   1.064   6.176  16.392  0.1250  0.5013 -0.0025
13057TIP3    H160586   1.053   6.239  16.463 -0.5472  0.0963  0.2673
13057TIP3    H260587   0.978   6.133  16.385  1.0707 -1.7721  1.1449
13058TIP3   OH260588   6.092   3.558  16.900 -0.6629 -0.2590  0.0732
13058TIP3    H160589   6.126   3.608  16.974  0.6873 -0.3681 -0.4439
13058TIP3    H260590   6.146   3.479  16.896 -0.0531  0.1937 -1.6054
13059TIP3   OH260591   4.671   2.908   3.965 -0.1681  0.8113  0.9462
13059TIP3    H160592   4.764   2.920   3.983  0.0344  1.2760 -0.3217
13059TIP3    H260593   4.635   2.996   3.963 -0.5240  0.6650  0.8556
13060TIP3   OH260594   4.933   4.839  14.267 -0.0936 -0.1385 -0.8741
13060TIP3    H160595   4.929   4.885  14.183  1.3742  0.3373 -0.7093
13060TIP3    H260596   4.875   4.888  14.324 -0.5901 -0.0692 -1.4282
13061TIP3   OH260597   1.312   2.382   1.536  0.1061 -0.8082 -0.3402
13061TIP3    H160598   1.318   2.314   1.602  0.7172  0.2592  0.7535
13061TIP3    H260599   1.397   2.425   1.538 -0.9186  1.3586  0.5833
13062TIP3   OH260600   3.563   5.121   1.570  0.1973  0.5669 -0.2626
13062TIP3    H160601   3.496   5.053   1.561 -0.0816  1.0849 -3.1510
13062TIP3    H260602   3.612   5.096   1.648  0.4140 -3.2376 -1.4055
13063TIP3   OH260603   2.627   3.243  14.602  0.6031 -0.2247 -0.1107
13063TIP3    H160604   2.574   3.208  14.531 -0.1069  2.1267 -0.8124
13063TIP3    H260605   2.565   3.260  14.673  1.0929 -1.2559  0.5893
13064TIP3   OH260606   1.117   3.783   3.939  0.4239 -0.0752  0.0015
13064TIP3    H160607   1.149   3.693   3.929  0.9271  0.0598  0.3403
13064TIP3    H260608   1.023   3.776   3.924  0.4952 -0.6129 -0.2493
13065TIP3   OH260609   2.151   0.462  11.407 -0.1635 -0.6355 -0.0171
13065TIP3    H160610   2.142   0.549  11.368 -1.0019 -1.0272 -0.7281
13065TIP3    H260611   2.225   0.423  11.361  0.2209 -0.3036  0.3092
13066TIP3   OH260612   6.589   1.997   4.530  0.5609 -0.2174 -0.0272
13066TIP3    H160613   6.532   2.064   4.492 -1.3107 -0.7896  1.5514
13066TIP3    H260614   6.625   1.951   4.455 -1.4532 -0.1034 -1.1493
13067TIP3   OH260615   3.079   1.175  16.796  0.7220 -0.7701 -0.0564
13067TIP3    H160616   3.141   1.168  16.868  0.9515 -0.5654 -0.2295
13067TIP3    H260617   2.995   1.147  16.833  0.1343  2.2714  1.1896
13068TIP3   OH260618   0.299   2.031  11.256 -0.5635  0.6313 -0.1384
13068TIP3    H160619   0.315   1.939  11.277 -1.4043  0.0101 -2.0534
13068TIP3    H260620   0.336   2.079  11.331 -0.2587 -1.2428  0.9792
13069TIP3   OH260621   1.402   1.041  12.093  0.0471 -0.3478  0.0404
13069TIP3    H160622   1.328   1.023  12.034 -0.2418 -1.0503  0.6018
13069TIP3    H260623   1.473   0.987  12.059 -0.4515 -1.6494  0.9776
13070TIP3   OH260624   4.071   3.154   4.665  0.5225  0.3025  0.0192
13070TIP3    H160625   4.084   3.211   4.741 -0.6879  0.8832 -0.1895
13070TIP3    H260626   4.090   3.210   4.589 -2.0877  0.9404 -0.2578
13071TIP3   OH260627   2.207   3.297  15.280 -0.4337  0.0408 -0.4771
13071TIP3    H160628   2.209   3.210  15.241  1.7874 -0.2877  0.2650
13071TIP3    H260629   2.229   3.357  15.209 -0.1132 -0.1949 -0.5756
13072TIP3   OH260630   2.815   3.686  14.820  0.3342  0.1065 -0.1657
13072TIP3    H160631   2.813   3.696  14.915 -4.6217 -0.9210  0.1011
13072TIP3    H260632   2.821   3.776  14.787 -1.0410  0.7713  1.2514
13073TIP3   OH260633   6.196   4.818  12.043  0.3250 -0.6371 -0.5917
13073TIP3    H160634   6.258   4.755  12.080  1.8423  1.9939  1.7095
13073TIP3    H260635   6.162   4.865  12.119 -1.0541  1.0788 -2.1898
13074TIP3   OH260636   3.632   4.474   3.724  0.1577  0.5397 -0.0548
13074TIP3    H160637   3.679   4.554   3.747  2.3196 -0.0847 -1.9883
13074TIP3    H260638   3.683   4.404   3.764  0.1281 -0.0675 -1.0649
13075TIP3   OH260639   6.759   4.833  16.095 -0.3486 -0.1951 -0.2019
13075TIP3    H160640   6.772   4.794  16.181 -1.5644  0.2243  0.1888
13075TIP3    H260641   6.741   4.925  16.113  4.9253  1.3979 -1.1744
13076TIP3   OH260642   6.119   0.335   4.979 -0.0398  0.3357 -0.0148
13076TIP3    H160643   6.180   0.399   4.942 -1.7285  1.7067 -0.5752
13076TIP3    H260644   6.074   0.298   4.904 -1.2797  0.8162  0.4652
13077TIP3   OH260645   3.389   0.315   0.457 -0.4349 -0.4875 -0.3060
13077TIP3    H160646   3.392   0.362   0.540  1.2038  1.2152 -1.2351
13077TIP3    H260647   3.408   0.224   0.480 -1.7700 -0.3871  1.3487
13078TIP3   OH260648   5.249   3.461  15.176  0.1033 -0.2054 -0.0592
13078TIP3    H160649   5.198   3.541  15.187  2.2064  1.2588 -0.4576
13078TIP3    H260650   5.277   3.463  15.084  0.4012 -1.2802 -0.0055
13079TIP3   OH260651   1.187   4.228   2.473 -0.0430  0.0965 -0.4067
13079TIP3    H160652   1.094   4.209   2.487 -0.4409  1.8241 -0.5284
13079TIP3    H260653   1.227   4.142   2.461 -1.5104 -0.7242  0.2837
13080TIP3   OH260654   6.589   4.198   5.568 -0.2557  0.1099  0.5307
13080TIP3    H160655   6.625   4.155   5.646 -2.3777 -1.4213  0.7474
13080TIP3    H260656   6.651   4.176   5.498 -0.4360 -2.0522  0.9693
13081TIP3   OH260657   4.717   5.645   2.672 -0.5452  0.0993 -0.0862
13081TIP3    H160658   4.694   5.727   2.716 -0.5410  0.3906 -0.6076
13081TIP3    H260659   4.781   5.672   2.605 -2.5040  0.1446 -2.0706
13082TIP3   OH260660   1.850   3.074   2.282 -0.0101 -0.4747 -0.3207
13082TIP3    H160661   1.793   3.021   2.338 -0.0431  0.3402  0.4406
13082TIP3    H260662   1.935   3.029   2.286 -0.0315 -0.4680  0.3412
13083TIP3   OH260663   6.562   0.176   3.803  0.4497  0.3765 -0.4603
13083TIP3    H160664   6.552   0.266   3.834  1.0639  0.4640 -0.5188
13083TIP3    H260665   6.473   0.150   3.780  0.4323  1.4574 -1.7668
13084TIP3   OH260666   1.574   2.154  16.551 -0.6369 -0.0871 -0.0684
13084TIP3    H160667   1.534   2.097  16.485  1.0420  0.2648 -1.4705
13084TIP3    H260668   1.634   2.097  16.599  0.9953  0.3792 -1.4306
13085TIP3   OH260669   1.734   4.820   2.855  0.1144  0.1574  0.1559
13085TIP3    H160670   1.721   4.815   2.949  2.1211  0.1497  0.4858
13085TIP3    H260671   1.780   4.738   2.833 -2.4146 -0.9921 -1.2671
13086TIP3   OH260672   1.086   0.106   0.452  0.6627 -0.2730  0.3069
13086TIP3    H160673   1.090   0.195   0.485  2.0106 -0.8582  1.8172
13086TIP3    H260674   1.036   0.113   0.371 -0.1294  1.6792  0.9187
13087TIP3   OH260675   5.766   4.217   1.297  0.1378 -0.9902 -0.3604
13087TIP3    H160676   5.751   4.122   1.290  1.1650 -1.1285 -0.8966
13087TIP3    H260677   5.826   4.237   1.226  0.0191  0.0581 -0.1812
13088TIP3   OH260678   1.203   5.594  11.371  0.2490 -0.5522  0.2498
13088TIP3    H160679   1.152   5.567  11.448  2.1229 -1.7484  1.1493
13088TIP3    H260680   1.174   5.684  11.354 -0.9324 -0.6052  1.7310
13089TIP3   OH260681   0.622   2.029   1.947 -0.6480 -0.0627 -0.2831
13089TIP3    H160682   0.533   2.060   1.931 -0.8479 -0.7053 -0.4274
13089TIP3    H260683   0.612   1.938   1.974 -0.0637  0.0002  0.1711
13090TIP3   OH260684   1.685   3.510  13.796  0.0458 -0.2281  0.9831
13090TIP3    H160685   1.605   3.482  13.840 -0.1117 -0.0627  0.8089
13090TIP3    H260686   1.705   3.440  13.734  0.7209 -0.8458  1.8696
13091TIP3   OH260687   0.993   3.752   0.860 -0.9041  0.4790 -0.3353
13091TIP3    H160688   0.916   3.704   0.831  1.4026 -2.9272 -1.4660
13091TIP3    H260689   1.048   3.758   0.782  0.7411  1.1445  0.8175
13092TIP3   OH260690   3.313   3.399   1.331  0.2180  0.0288 -0.3710
13092TIP3    H160691   3.286   3.319   1.286  1.7640 -1.7745  1.7360
13092TIP3    H260692   3.404   3.384   1.356  0.0826  1.8028  1.4650
13093TIP3   OH260693   4.951   3.193   5.736 -0.3757 -0.2564 -0.1831
13093TIP3    H160694   4.959   3.170   5.643 -2.0020  1.2444 -0.7612
13093TIP3    H260695   5.018   3.259   5.751  1.5587 -2.2283  0.4266
13094TIP3   OH260696   1.792   5.665   5.229 -0.3836 -0.2784 -0.1211
13094TIP3    H160697   1.795   5.699   5.318 -0.9312  0.3553 -0.3408
13094TIP3    H260698   1.799   5.570   5.240  1.8916 -0.1017  0.4451
13095TIP3   OH260699   6.424   0.724   4.972  0.6206  0.3818  0.2451
13095TIP3    H160700   6.486   0.787   5.009  1.4320  0.1998 -0.7543
13095TIP3    H260701   6.430   0.738   4.878  0.4566 -0.8531  0.0398
13096TIP3   OH260702   2.546   2.757  16.831 -0.7827 -0.2909 -0.1255
13096TIP3    H160703   2.543   2.711  16.915 -0.7339 -0.0112  0.0309
13096TIP3    H260704   2.589   2.696  16.771  1.2652  0.3578  0.5989
13097TIP3   OH260705   2.421   6.062  16.244 -0.1321 -0.5486  0.2495
13097TIP3    H160706   2.507   6.038  16.277  1.2400  1.7683 -1.3724
13097TIP3    H260707   2.378   6.107  16.317  0.7824 -0.0672  0.4988
13098TIP3   OH260708   5.584   0.646   5.254 -0.3078  0.1548  0.2185
13098TIP3    H160709   5.622   0.574   5.304  0.0204  0.5481  0.5421
13098TIP3    H260710   5.656   0.678   5.199 -0.6496 -0.2373 -0.4691
13099TIP3   OH260711   0.060   2.069  11.110 -0.0555 -0.0566 -0.2014
13099TIP3    H160712   0.143   2.063  11.157 -0.4019 -1.9887  0.2233
13099TIP3    H260713  -0.007   2.066  11.179 -0.5198  1.0626 -0.5682
13100TIP3   OH260714   6.254   4.475   3.187  0.3844  0.2868 -0.0369
13100TIP3    H160715   6.237   4.542   3.121 -0.6707 -0.4383 -0.5337
13100TIP3    H260716   6.172   4.466   3.234  0.4545 -0.7618 -0.0866
13101TIP3   OH260717   5.232   1.297  12.116  0.2195 -0.7878 -1.1027
13101TIP3    H160718   5.318   1.334  12.097  0.1486  0.1837  0.2908
13101TIP3    H260719   5.222   1.308  12.211 -0.6851 -2.5359 -0.9634
13102TIP3   OH260720   2.839   4.672  13.181 -0.4805  0.1963  0.5371
13102TIP3    H160721   2.834   4.646  13.089 -0.3816  2.0021 -0.0021
13102TIP3    H260722   2.933   4.685  13.197 -0.5215  0.1440  0.8254
13103TIP3   OH260723   6.051   1.365  15.172 -0.3543 -0.6059  0.0396
13103TIP3    H160724   6.087   1.431  15.114 -0.3067 -0.8448 -0.2044
13103TIP3    H260725   5.958   1.386  15.179 -0.4492 -0.8415 -0.4825
13104TIP3   OH260726   0.448   6.130   5.024 -0.1534 -0.6138  0.1262
13104TIP3    H160727   0.353   6.138   5.014 -0.0915  0.5668  0.3142
13104TIP3    H260728   0.479   6.110   4.935 -0.2577  2.9337 -0.8745
13105TIP3   OH260729   6.198   6.363  13.322  0.0062  0.3996  0.3741
13105TIP3    H160730   6.119   6.370  13.268  0.1224 -0.8659  0.0134
13105TIP3    H260731   6.270   6.380  13.262  0.0202  2.3472  0.8643
13106TIP3   OH260732   2.461   4.772  13.531  0.1816  0.0606 -0.5909
13106TIP3    H160733   2.548   4.734  13.520  0.1439  0.3333 -2.0853
13106TIP3    H260734   2.477   4.866  13.539  0.0340  0.1158 -0.9117
13107TIP3   OH260735   2.281   0.729   5.473 -0.1553 -0.2946 -0.1647
13107TIP3    H160736   2.297   0.725   5.567 -1.3253 -0.8215  0.0238
13107TIP3    H260737   2.230   0.651   5.453 -1.7210  0.8533 -0.8683
13108TIP3   OH260738   4.069   5.132   1.116  0.5444  0.1089  0.5992
13108TIP3    H160739   3.989   5.161   1.160 -1.1371  1.4027 -2.9238
13108TIP3    H260740   4.051   5.041   1.092 -0.2429  0.5992 -0.7827
13109TIP3   OH260741   5.793   5.550  15.442  0.4056  0.1558 -0.5964
13109TIP3    H160742   5.753   5.517  15.522  0.2268 -0.8901 -1.0929
13109TIP3    H260743   5.768   5.642  15.438  0.5529  0.2641  0.6239
13110TIP3   OH260744   2.915   5.354  11.936  0.0373 -0.5804  0.1670
13110TIP3    H160745   2.869   5.377  11.855 -0.7307  1.8541  1.2064
13110TIP3    H260746   2.852   5.303  11.986 -0.1274 -0.6031 -0.0629
13111TIP3   OH260747   4.186   4.954  17.106  0.6667 -0.1321 -0.5161
13111TIP3    H160748   4.151   4.899  17.177  2.0902  0.0276  0.3451
13111TIP3    H260749   4.185   5.042  17.143  1.1234 -0.0038 -0.8120
13112TIP3   OH260750   3.028   4.557  13.421  0.1238 -0.3080 -0.1348
13112TIP3    H160751   3.095   4.625  13.424  0.4039 -0.5256 -1.1819
13112TIP3    H260752   2.953   4.596  13.467  0.7240  0.1961  0.4368
13113TIP3   OH260753   6.732   4.241   3.331  0.4385  0.2434 -0.4020
13113TIP3    H160754   6.650   4.259   3.377  0.5392  1.6605 -0.7359
13113TIP3    H260755   6.797   4.228   3.400 -0.3482 -2.7969 -0.0561
13114TIP3   OH260756   5.536   3.288   3.590 -0.0455  0.2264 -0.2524
13114TIP3    H160757   5.562   3.376   3.617  0.0677  0.0860  0.0990
13114TIP3    H260758   5.608   3.232   3.618  0.0994  0.0778 -0.8871
13115TIP3   OH260759   0.463   5.352   0.287 -0.3522  0.0575  1.0339
13115TIP3    H160760   0.520   5.418   0.325 -0.9920  0.8579  0.6298
13115TIP3    H260761   0.518   5.274   0.278  0.8259  0.9559  0.2026
13116TIP3   OH260762   5.096   6.691  11.125 -0.2878 -0.3361 -0.0998
13116TIP3    H160763   5.114   6.775  11.166 -0.1813 -1.1976  1.7424
13116TIP3    H260764   5.006   6.698  11.094  0.0020  0.7274 -0.7287
13117TIP3   OH260765   2.865   3.490   2.523  0.0775 -0.1771  0.3084
13117TIP3    H160766   2.860   3.396   2.504 -1.2118 -0.3154  1.2320
13117TIP3    H260767   2.958   3.505   2.544  0.0088 -1.6043  1.8634
13118TIP3   OH260768   1.082   1.420   6.278  0.2856  0.5867  0.2673
13118TIP3    H160769   1.154   1.366   6.244  0.8417  1.9540 -0.7934
13118TIP3    H260770   1.003   1.372   6.253  0.7976 -0.9306  1.4371
13119TIP3   OH260771   0.088   3.445   5.533 -0.0495  0.0845 -0.3306
13119TIP3    H160772   0.034   3.390   5.477 -0.6084  0.5335 -0.2482
13119TIP3    H260773   0.156   3.479   5.475 -0.6348  0.5622 -0.7639
13120TIP3   OH260774   4.053   0.675   4.581  0.3227 -0.5089  0.3033
13120TIP3    H160775   3.974   0.676   4.635 -0.4500  0.6157 -0.7926
13120TIP3    H260776   4.069   0.583   4.563  0.3788 -0.8929  2.0958
13121TIP3   OH260777   4.331   6.350   0.715 -0.3459  0.1614  0.0807
13121TIP3    H160778   4.340   6.330   0.808  1.9567  0.6003  0.0232
13121TIP3    H260779   4.327   6.265   0.672  0.2397 -0.0752  0.4847
13122TIP3   OH260780   5.290   6.751  12.407  0.4785  0.1374 -0.2834
13122TIP3    H160781   5.218   6.687  12.410 -0.0130  0.6674 -0.5679
13122TIP3    H260782   5.295   6.785  12.496 -0.0533  0.5653 -0.4159
13123TIP3   OH260783   5.165   3.024   3.028  0.1555  0.3144  0.6759
13123TIP3    H160784   5.144   3.018   2.935 -0.9622  0.9638  0.8641
13123TIP3    H260785   5.179   3.118   3.044 -1.5674  0.4765  1.5142
13124TIP3   OH260786   0.344   5.544  14.524 -0.0837  0.2259 -0.2196
13124TIP3    H160787   0.328   5.459  14.484 -2.8408 -0.2875  1.7038
13124TIP3    H260788   0.389   5.525  14.606 -0.2453  0.6648 -0.0237
13125TIP3   OH260789   2.859   4.542  15.136  0.7741  0.0959  0.0020
13125TIP3    H160790   2.859   4.545  15.041 -1.8117  0.2728 -0.0694
13125TIP3    H260791   2.904   4.460  15.157  0.4636 -0.4777 -1.4329
13126TIP3   OH260792   4.607   1.020   4.005  0.4304 -0.1682  0.3408
13126TIP3    H160793   4.517   1.051   3.996  0.9107  1.4590  0.9186
13126TIP3    H260794   4.601   0.944   4.063 -0.4991  0.2141  0.7507
13127TIP3   OH260795   3.466   0.300  12.454 -0.9183  0.0373  0.1263
13127TIP3    H160796   3.384   0.349  12.461 -0.1864  1.1187  1.3363
13127TIP3    H260797   3.462   0.237  12.526 -0.7474 -0.0395  0.0684
13128TIP3   OH260798   0.754   0.877   3.666  0.3163  0.0767 -0.0220
13128TIP3    H160799   0.678   0.874   3.724 -1.0335 -1.1664 -1.7329
13128TIP3    H260800   0.735   0.949   3.607  1.7146  1.3771  1.0569
13129TIP3   OH260801   0.660   2.509  12.603 -0.2623  0.3489 -0.3836
13129TIP3    H160802   0.738   2.477  12.649 -0.4963 -0.3540 -0.4577
13129TIP3    H260803   0.692   2.578  12.546  0.8974 -1.9938 -2.7567
13130TIP3   OH260804   1.391   6.126  13.334  0.1011  0.1076 -0.1145
13130TIP3    H160805   1.426   6.129  13.424  1.7656 -0.2992 -0.7146
13130TIP3    H260806   1.370   6.034  13.320 -1.6179  0.3956  0.3542
13131TIP3   OH260807   6.196   1.798   3.283  0.6104  0.2804 -0.2886
13131TIP3    H160808   6.213   1.716   3.330 -1.1064 -0.6717 -1.2194
13131TIP3    H260809   6.181   1.771   3.193 -2.1608  1.3138 -0.2222
13132TIP3   OH260810   4.107   5.003   1.445 -0.0758  0.4785  0.6950
13132TIP3    H160811   4.042   4.959   1.500 -1.9505  1.1384 -0.8362
13132TIP3    H260812   4.096   4.963   1.359  1.5804  0.6423  0.3768
13133TIP3   OH260813   1.669   1.560  15.849 -0.0973 -0.2335 -0.3115
13133TIP3    H160814   1.671   1.519  15.762  1.7540 -1.0898  0.0884
13133TIP3    H260815   1.730   1.633  15.841 -0.7904  0.3904 -0.0269
13134TIP3   OH260816   5.257   0.418   5.932  0.0945 -0.0421  0.5326
13134TIP3    H160817   5.251   0.496   5.987 -1.4844 -0.3717  0.8750
13134TIP3    H260818   5.173   0.415   5.886  1.2886  0.1377 -1.8368
13135TIP3   OH260819   5.862   6.239  16.171 -0.1205 -0.0820  0.1405
13135TIP3    H160820   5.844   6.333  16.163  1.8240  0.2280 -1.8435
13135TIP3    H260821   5.940   6.234  16.227 -0.9169 -0.6528  1.2412
13136TIP3   OH260822   5.015   5.539   5.187 -0.3015  0.5340  0.1247
13136TIP3    H160823   4.974   5.626   5.186  3.0449  2.3032  0.4008
13136TIP3    H260824   5.098   5.552   5.140 -0.1674 -2.8634 -0.8184
13137TIP3   OH260825   2.728   1.854   5.492 -0.7415  0.0408 -0.7930
13137TIP3    H160826   2.757   1.936   5.454  0.1595 -0.2887 -0.8267
13137TIP3    H260827   2.790   1.789   5.460 -0.3672 -0.3681  0.6913
13138TIP3   OH260828   3.488   0.383  17.187  0.6397  0.0191  0.1066
13138TIP3    H160829   3.408   0.333  17.202 -0.6828  1.9125 -0.2958
13138TIP3    H260830   3.497   0.438  17.265 -0.3539  2.2093 -1.2328
13139TIP3   OH260831   1.591   1.862  11.296  0.0354 -0.6537  0.2318
13139TIP3    H160832   1.673   1.819  11.272  1.5650  1.7061  0.8325
13139TIP3    H260833   1.619   1.937  11.349 -2.2124  2.3853 -2.5549
13140TIP3   OH260834   2.073   1.250   1.933 -0.2142  0.4713 -0.3059
13140TIP3    H160835   2.015   1.192   1.884 -0.6172  0.3579  0.2948
13140TIP3    H260836   2.160   1.210   1.926 -0.4104  0.0413 -0.2658
13141TIP3   OH260837   1.858   2.054  12.974  0.1585 -0.1179 -0.2209
13141TIP3    H160838   1.891   1.965  12.964 -0.3762 -0.4256  0.6921
13141TIP3    H260839   1.809   2.071  12.893  0.7082 -0.4421 -0.6325
13142TIP3   OH260840   4.185   4.870   4.776  0.5951 -0.1142  0.6159
13142TIP3    H160841   4.112   4.879   4.837  0.3526  1.2100  0.1591
13142TIP3    H260842   4.177   4.780   4.742  0.1441 -0.5195  1.7592
13143TIP3   OH260843   6.709   5.715   4.739  0.2093  0.3343  0.2558
13143TIP3    H160844   6.801   5.693   4.754  0.5966  1.6068 -0.1814
13143TIP3    H260845   6.665   5.688   4.819  1.0777  0.3793  0.7641
13144TIP3   OH260846   4.662   2.691  13.812  0.3860  0.2645 -0.5482
13144TIP3    H160847   4.578   2.654  13.785 -0.4323  1.9970 -0.4955
13144TIP3    H260848   4.725   2.621  13.795 -0.8350 -0.5332 -2.0613
13145TIP3   OH260849   5.065   4.909  13.805 -0.3373 -0.2683 -0.2020
13145TIP3    H160850   5.087   4.816  13.803  0.4266 -0.2355  2.5897
13145TIP3    H260851   4.974   4.912  13.833  0.0820 -0.2106  1.2559
13146TIP3   OH260852   3.136   5.899  11.384 -0.2862  0.7784 -0.3209
13146TIP3    H160853   3.092   5.881  11.467 -1.1964 -0.9341 -1.1113
13146TIP3    H260854   3.145   5.994  11.381  0.4124  0.8479  2.0299
13147TIP3   OH260855   5.629   2.596  14.840 -0.2741  0.1760  0.4403
13147TIP3    H160856   5.548   2.604  14.791 -0.4050 -2.8102  0.0350
13147TIP3    H260857   5.676   2.678  14.821 -2.2957  1.0994 -0.9089
13148TIP3   OH260858   0.499   3.290   0.170  0.7064 -0.1034 -0.2832
13148TIP3    H160859   0.537   3.210   0.207 -0.8889 -0.7254  0.0918
13148TIP3    H260860   0.535   3.294   0.082  1.2228 -0.9425 -0.1360
13149TIP3   OH260861   3.314   3.987   6.571  0.3486 -0.2265  0.2665
13149TIP3    H160862   3.324   3.898   6.606  0.4144 -0.4489 -0.3037
13149TIP3    H260863   3.404   4.019   6.561  0.4365 -0.8763 -1.4600
13150TIP3   OH260864   1.884   4.502  14.972  0.0924  0.2786 -0.4824
13150TIP3    H160865   1.883   4.493  15.067 -0.7686  0.2075 -0.4936
13150TIP3    H260866   1.874   4.596  14.957 -0.3365  0.2312 -0.5065
13151TIP3   OH260867   2.020   1.047  15.368 -0.3071 -0.1759  0.2520
13151TIP3    H160868   1.957   0.996  15.418  0.2651 -0.5983  0.5589
13151TIP3    H260869   2.080   0.982  15.331 -0.1998  0.1966 -0.2492
13152TIP3   OH260870   0.390   1.285  14.245 -0.0487  0.3183  0.1347
13152TIP3    H160871   0.439   1.339  14.183 -0.7433  0.1165 -0.6048
13152TIP3    H260872   0.454   1.262  14.312  1.5208 -1.7861 -1.9322
13153TIP3   OH260873   4.222   1.657  15.161  0.1000  0.1501  0.8235
13153TIP3    H160874   4.197   1.652  15.069 -1.9172 -2.3950  1.3869
13153TIP3    H260875   4.168   1.728  15.197  0.5705  0.8504  0.1826
13154TIP3   OH260876   2.880   0.756   1.124  0.1700  0.2233 -0.0003
13154TIP3    H160877   2.924   0.831   1.164 -0.8164  0.6343  0.3435
13154TIP3    H260878   2.947   0.688   1.119  1.5449  1.5918 -1.7181
13155TIP3   OH260879   2.694   2.309   5.938 -0.5981  0.4343  0.2000
13155TIP3    H160880   2.717   2.284   6.027 -2.1786 -0.0813  0.4981
13155TIP3    H260881   2.656   2.230   5.899 -0.2771  0.7519 -0.8115
13156TIP3   OH260882   4.720   2.962   5.332 -0.0937  0.1251  0.1180
13156TIP3    H160883   4.702   2.891   5.394  0.3554  0.3887  0.5574
13156TIP3    H260884   4.642   2.966   5.276 -0.2260 -0.5435  0.2531
13157TIP3   OH260885   1.093   4.695  11.242 -0.1452 -0.4357  0.0917
13157TIP3    H160886   1.005   4.663  11.264 -1.7538  3.0209 -0.4449
13157TIP3    H260887   1.089   4.712  11.148  0.8245  0.4324  0.1861
13158TIP3   OH260888   3.924   3.019  14.644 -0.1748  0.2844  0.3241
13158TIP3    H160889   3.989   2.965  14.688 -0.6959  0.4395  1.3161
13158TIP3    H260890   3.854   2.958  14.620 -0.5119  0.4160  0.9498
13159TIP3   OH260891   1.860   6.152  14.751 -0.0210 -0.0616  0.0941
13159TIP3    H160892   1.924   6.217  14.721 -0.9148  0.3944 -0.8964
13159TIP3    H260893   1.831   6.107  14.672 -1.1542 -0.0343  0.4643
13160TIP3   OH260894   5.377   4.072   5.822 -0.3927 -0.2149 -0.1798
13160TIP3    H160895   5.454   4.039   5.775 -0.9425 -1.2625 -0.3871
13160TIP3    H260896   5.413   4.116   5.899  0.4921  0.8898 -1.1855
13161TIP3   OH260897   1.321   1.080  15.584  0.2440  0.5795  0.0033
13161TIP3    H160898   1.407   1.109  15.615  0.9944 -0.0947 -1.3791
13161TIP3    H260899   1.284   1.157  15.540 -0.7119  1.4596  2.1584
13162TIP3   OH260900   3.043   5.891  15.827 -0.1044  0.2578  0.4805
13162TIP3    H160901   2.968   5.936  15.787  1.4518  0.3236 -2.6910
13162TIP3    H260902   3.071   5.950  15.898 -1.1492  1.8098 -0.3295
13163TIP3   OH260903   2.489   5.082  13.565 -0.0220 -0.3920 -0.0894
13163TIP3    H160904   2.544   5.084  13.644 -0.6964 -0.2729  0.3798
13163TIP3    H260905   2.480   5.174  13.540 -0.2629 -0.3918  0.0054
13164TIP3   OH260906   4.638   2.598   2.164 -0.6236 -0.1783  0.8186
13164TIP3    H160907   4.668   2.631   2.248  1.5572 -1.3441  0.5611
13164TIP3    H260908   4.612   2.507   2.182 -2.0588  0.1667  0.6018
13165TIP3   OH260909   1.935   3.892  11.018 -0.3179 -0.0455  0.2343
13165TIP3    H160910   1.890   3.973  10.996  1.1417  0.9441  0.7514
13165TIP3    H260911   1.932   3.840  10.938 -1.3410  0.4713 -0.0778
13166TIP3   OH260912   3.421   2.195   6.396 -0.3898 -0.1175 -0.6496
13166TIP3    H160913   3.482   2.268   6.410  1.1952 -1.4030 -0.5345
13166TIP3    H260914   3.343   2.218   6.447 -0.4655  2.0682 -1.6278
13167TIP3   OH260915   0.928   4.701  16.766 -0.7731 -0.0593  0.3822
13167TIP3    H160916   0.844   4.746  16.769 -0.2330  0.9947 -0.0314
13167TIP3    H260917   0.919   4.639  16.693 -0.8992  0.6548 -0.2121
13168TIP3   OH260918   2.392   1.130  10.369 -0.8921  0.2249 -0.2354
13168TIP3    H160919   2.313   1.149  10.419 -1.1576  0.9865 -0.9284
13168TIP3    H260920   2.392   1.194  10.298  0.3098  0.2099 -0.2837
13169TIP3   OH260921   5.690   3.235   1.467 -0.1798  0.0399  0.3467
13169TIP3    H160922   5.694   3.331   1.466  1.4900 -0.0029 -0.0614
13169TIP3    H260923   5.676   3.210   1.375  2.8665 -0.1464 -0.1573
13170TIP3   OH260924   1.776   3.210  14.492 -0.0558 -0.0739 -0.0863
13170TIP3    H160925   1.717   3.274  14.532 -1.3879 -2.4016  1.8765
13170TIP3    H260926   1.862   3.231  14.529  0.5755  3.2840 -2.9020
13171TIP3   OH260927   5.667   0.440   1.411  0.0952  0.0838 -0.2184
13171TIP3    H160928   5.573   0.460   1.406 -0.1900 -0.9861  0.5476
13171TIP3    H260929   5.692   0.420   1.320 -0.4394  0.2906 -0.4153
13172TIP3   OH260930   6.054   2.454  16.782 -0.3401  1.0380  0.7154
13172TIP3    H160931   5.999   2.532  16.786  0.7100  1.8229  0.1959
13172TIP3    H260932   6.024   2.406  16.705 -1.6939  0.3598  1.6263
13173TIP3   OH260933   4.597   6.079   2.653 -0.3430 -0.1193 -0.3185
13173TIP3    H160934   4.512   6.088   2.696 -0.5503  0.1602 -0.7804
13173TIP3    H260935   4.637   6.002   2.694 -0.5727  0.0881  0.3070
13174TIP3   OH260936   1.259   5.410  15.451  0.0498  0.0626  0.6374
13174TIP3    H160937   1.252   5.458  15.534 -1.0380  1.0865 -0.0292
13174TIP3    H260938   1.230   5.321  15.472 -1.6931  0.6888  1.0562
13175TIP3   OH260939   3.756   4.011  17.141  0.5511  0.0136  0.2569
13175TIP3    H160940   3.711   4.047  17.217  1.1312 -0.7289  0.9642
13175TIP3    H260941   3.781   4.087  17.089  0.2445  0.5325  0.8651
13176TIP3   OH260942   4.708   6.159   1.933  0.7800  0.0044 -0.0008
13176TIP3    H160943   4.731   6.252   1.934  1.0970 -0.0760  1.0104
13176TIP3    H260944   4.628   6.155   1.881 -0.9038  1.2684  2.2988
13177TIP3   OH260945   3.502   2.846  12.722 -0.2414 -0.1011 -0.0039
13177TIP3    H160946   3.540   2.903  12.789 -0.6854 -1.0650  1.1285
13177TIP3    H260947   3.577   2.811  12.675  0.0009  2.5162 -1.7558
13178TIP3   OH260948   6.605   4.675  13.644  0.4720  0.2071 -0.5901
13178TIP3    H160949   6.633   4.719  13.564  2.3484  1.8588  0.8880
13178TIP3    H260950   6.514   4.703  13.656  0.6513  1.1510 -1.3413
13179TIP3   OH260951   5.455   0.746   4.854  0.0685 -0.3831  0.1779
13179TIP3    H160952   5.529   0.698   4.815  1.1135  0.0571  1.5315
13179TIP3    H260953   5.388   0.679   4.868  0.7321 -1.0622  0.1740
13180TIP3   OH260954   6.399   4.933  10.376 -0.0809 -0.0728 -0.7327
13180TIP3    H160955   6.410   4.838  10.377 -0.6550 -0.1554 -1.4405
13180TIP3    H260956   6.487   4.968  10.393 -0.0536 -0.7247  0.5246
13181TIP3   OH260957   6.671   1.427   4.580 -0.0452  0.3586 -0.1957
13181TIP3    H160958   6.754   1.379   4.574  0.2388  0.9368 -1.0742
13181TIP3    H260959   6.622   1.381   4.648  0.0455 -1.4715 -1.2921
13182TIP3   OH260960   6.653   4.634  11.877  0.1431  0.1343 -0.2701
13182TIP3    H160961   6.691   4.656  11.962  2.1969 -0.2891 -1.0232
13182TIP3    H260962   6.728   4.618  11.820 -1.0034  3.4536 -3.0631
13183TIP3   OH260963   6.445   5.380   0.206 -0.6638  0.0031  0.0592
13183TIP3    H160964   6.490   5.440   0.267  0.1769 -0.7070  0.1578
13183TIP3    H260965   6.439   5.429   0.124  2.9099 -0.8103 -0.8670
13184TIP3   OH260966   4.088   3.350  15.563  0.2029 -0.0222  0.0300
13184TIP3    H160967   4.073   3.442  15.588 -2.2586 -0.4089  0.2692
13184TIP3    H260968   4.178   3.332  15.589  0.3448  1.9793  1.1073
13185TIP3   OH260969   5.977   5.313   4.052 -0.2414 -0.8540 -0.0308
13185TIP3    H160970   6.035   5.330   3.978  0.3126 -1.1931  0.3120
13185TIP3    H260971   5.958   5.219   4.046 -1.0260 -0.6823 -0.3274
13186TIP3   OH260972   5.508   1.828   0.786  0.2321  0.5394 -0.7930
13186TIP3    H160973   5.531   1.743   0.747 -2.7016 -1.5532  1.6137
13186TIP3    H260974   5.413   1.832   0.781  0.2566  3.7284 -0.6766
13187TIP3   OH260975   2.060   1.535  12.375  0.1875 -0.5242 -0.2237
13187TIP3    H160976   2.146   1.552  12.337 -0.2384 -0.4140 -1.1504
13187TIP3    H260977   2.000   1.592  12.326 -0.5777 -1.3886 -0.3182
13188TIP3   OH260978   3.246   0.544   5.405 -0.1864  0.0432 -0.2717
13188TIP3    H160979   3.194   0.593   5.341  0.5071  2.0130  0.5800
13188TIP3    H260980   3.286   0.612   5.459  0.9729 -1.5078  0.8914
13189TIP3   OH260981   5.472   1.382  12.263 -0.1328 -0.3526 -0.6611
13189TIP3    H160982   5.546   1.324  12.278 -1.2263 -1.6400 -0.0325
13189TIP3    H260983   5.491   1.426  12.180  1.3359 -0.6161 -0.4804
13190TIP3   OH260984   0.203   3.499   1.731 -0.2603 -0.2409 -0.5131
13190TIP3    H160985   0.149   3.451   1.794 -0.3231 -1.6540 -1.5939
13190TIP3    H260986   0.231   3.433   1.667 -1.4967  1.3817 -2.8940
13191TIP3   OH260987   6.121   2.717   5.745 -0.2099  0.1763  0.5747
13191TIP3    H160988   6.155   2.805   5.727  0.6729 -0.2591  0.0211
13191TIP3    H260989   6.151   2.698   5.834  0.2185  0.1678  0.4334
13192TIP3   OH260990   0.424   5.314   2.600  0.3191  1.0090  0.0533
13192TIP3    H160991   0.388   5.335   2.514  1.4840  0.4376 -0.5945
13192TIP3    H260992   0.469   5.231   2.588 -1.6123 -0.3926  1.8238
13193TIP3   OH260993   3.083   1.737  11.422  0.0090  0.2144 -0.4234
13193TIP3    H160994   3.145   1.670  11.449 -0.5469  0.0410  0.4402
13193TIP3    H260995   3.121   1.774  11.342  0.3250 -1.1150 -0.9040
13194TIP3   OH260996   2.938   0.538  16.723  0.2853 -0.6257 -0.1840
13194TIP3    H160997   2.910   0.484  16.649 -0.4847 -0.1366 -0.2582
13194TIP3    H260998   2.941   0.627  16.688 -0.0646 -0.3929  0.3660
13195TIP3   OH260999   5.589   4.153   6.735  0.4408 -0.2165  0.3095
13195TIP3    H161000   5.551   4.210   6.801 -0.1819 -0.3605  0.0815
13195TIP3    H261001   5.520   4.142   6.670  0.8001 -0.6548 -0.0060
13196TIP3   OH261002   0.475   6.400   1.076 -0.7520  0.6535 -0.7099
13196TIP3    H161003   0.456   6.339   1.005 -3.3749  0.9256 -0.3445
13196TIP3    H261004   0.407   6.383   1.141  0.5451  1.5976  0.9777
13197TIP3   OH261005   0.267   3.009  15.524  0.8508 -0.1887 -0.2570
13197TIP3    H161006   0.261   3.069  15.449  1.4681  0.4108  0.1712
13197TIP3    H261007   0.260   3.065  15.601  1.6215 -0.6405  0.1517
13198TIP3   OH261008   3.103   2.697  11.137  0.3983  0.7403 -0.3997
13198TIP3    H161009   3.173   2.676  11.075 -0.0381  1.0564 -1.0120
13198TIP3    H261010   3.098   2.792  11.136 -0.9571  0.6794 -1.4145
13199TIP3   OH261011   2.224   1.445   4.588 -0.0278  0.1010  0.0368
13199TIP3    H161012   2.274   1.364   4.579  0.8796  0.5154  1.1040
13199TIP3    H261013   2.175   1.434   4.670 -0.0505  0.5446  0.0857
13200TIP3   OH261014   2.821   0.277   3.864 -0.4024  0.3807 -0.0452
13200TIP3    H161015   2.826   0.279   3.769  4.3952 -0.6307 -0.0989
13200TIP3    H261016   2.828   0.184   3.886 -2.0572  0.5379  1.3644
13201TIP3   OH261017   3.084   5.522   1.048  0.5291  0.3128 -0.2983
13201TIP3    H161018   3.100   5.538   1.141 -1.0401 -0.8322  0.2096
13201TIP3    H261019   3.053   5.432   1.045 -0.4159  0.6596 -1.8016
13202TIP3   OH261020   6.184   2.133  16.680  0.9459 -0.5511  0.0186
13202TIP3    H161021   6.164   2.169  16.594  1.0685 -2.3903 -0.8380
13202TIP3    H261022   6.106   2.152  16.733  1.1533  1.2008 -0.2637
13203TIP3   OH261023   6.738   4.068   4.303  0.1951  0.2870 -0.6795
13203TIP3    H161024   6.645   4.089   4.302  0.1617  0.6082  2.1829
13203TIP3    H261025   6.782   4.152   4.306  0.4527  0.1178  0.6697
13204TIP3   OH261026   1.754   1.528  13.428  0.0970 -0.7294 -0.1493
13204TIP3    H161027   1.665   1.500  13.450  0.0406 -0.8911 -0.5708
13204TIP3    H261028   1.760   1.617  13.462 -0.3285 -0.6094 -0.3727
13205TIP3   OH261029   3.238   4.317  16.491 -0.4966 -0.4896 -0.0127
13205TIP3    H161030   3.325   4.288  16.463 -0.1330 -0.3586  0.9187
13205TIP3    H261031   3.187   4.324  16.411  0.8312  1.0672 -0.7684
13206TIP3   OH261032   2.901   6.709  14.981  0.0993 -0.0183 -0.3799
13206TIP3    H161033   2.831   6.770  15.004  0.6783  1.0605 -1.3947
13206TIP3    H261034   2.855   6.626  14.963 -0.8324  0.4488 -0.2273
13207TIP3   OH261035   6.696   0.178  12.886 -0.2044 -0.1787  0.4239
13207TIP3    H161036   6.765   0.173  12.820  1.0318  0.3118  1.6312
13207TIP3    H261037   6.673   0.086  12.902 -1.1029 -0.2822 -1.2295
13208TIP3   OH261038   2.413   2.626  16.420 -0.1715 -0.4168 -0.0305
13208TIP3    H161039   2.476   2.625  16.348  1.3458 -0.4592  1.2364
13208TIP3    H261040   2.467   2.631  16.499 -1.7498 -0.9002  1.1394
13209TIP3   OH261041   6.791   5.384  16.712  0.0077 -0.1791 -0.3928
13209TIP3    H161042   6.774   5.338  16.794  1.0808  1.0049  0.5210
13209TIP3    H261043   6.864   5.335  16.672  0.2311 -0.0905 -0.0952
13210TIP3   OH261044   2.096   1.266   1.506 -0.2829  0.0183 -0.3333
13210TIP3    H161045   2.129   1.279   1.417  0.3356  3.4290  0.2632
13210TIP3    H261046   2.168   1.294   1.563 -1.3417 -0.2730  1.2183
13211TIP3   OH261047   6.449   1.316  13.182  0.2336  0.1208 -0.4917
13211TIP3    H161048   6.454   1.225  13.153 -1.4983 -0.1047 -0.1539
13211TIP3    H261049   6.418   1.364  13.106  0.1479  0.2643 -0.3679
13212TIP3   OH261050   0.603   3.513  13.456  0.2574  0.4236 -0.0654
13212TIP3    H161051   0.640   3.426  13.473 -0.1940  0.3893  0.7871
13212TIP3    H261052   0.673   3.560  13.411  0.7618 -0.1536  0.0992
13213TIP3   OH261053   0.234   3.889   4.230 -0.0752 -0.4896 -0.0663
13213TIP3    H161054   0.148   3.906   4.191  0.0076  0.3915  0.1084
13213TIP3    H261055   0.219   3.818   4.292 -0.5035 -0.9083 -0.6391
13214TIP3   OH261056   6.478   1.631  11.253  0.1611  0.0210  0.4805
13214TIP3    H161057   6.393   1.633  11.297 -0.2736  1.0144 -0.3513
13214TIP3    H261058   6.495   1.538  11.239 -0.4408 -0.2271  1.2968
13215TIP3   OH261059   3.175   3.265  14.926 -0.9314 -0.0855  0.0934
13215TIP3    H161060   3.229   3.300  14.997 -1.9423 -1.7176  1.7622
13215TIP3    H261061   3.098   3.322  14.923 -1.1806 -0.3743  0.7656
13216TIP3   OH261062   2.530   3.026   2.776 -0.2417  0.4657  0.2925
13216TIP3    H161063   2.586   3.054   2.704 -1.0397  2.1118  0.2642
13216TIP3    H261064   2.572   2.947   2.810  0.3048 -0.2004 -1.7884
13217TIP3   OH261065   3.220   6.620   3.204 -0.4491  0.1801  0.3711
13217TIP3    H161066   3.163   6.569   3.146  0.5836 -0.9192  0.2732
13217TIP3    H261067   3.182   6.610   3.291 -0.9403  0.2615  0.1684
13218TIP3   OH261068   3.399   5.839  13.597  0.1847 -0.5141 -0.1719
13218TIP3    H161069   3.323   5.789  13.627 -1.5827  1.5241 -0.9978
13218TIP3    H261070   3.475   5.789  13.627 -1.4747 -2.5137  0.8791
13219TIP3   OH261071   5.455   3.988  10.750  0.3096 -0.1096  0.8054
13219TIP3    H161072   5.547   3.961  10.748  0.5987  0.6539  2.2718
13219TIP3    H261073   5.416   3.947  10.673  1.9531 -0.1788 -0.0363
13220TIP3   OH261074   6.250   3.786  12.258  0.4015 -0.3438  0.2961
13220TIP3    H161075   6.183   3.810  12.322  1.6021 -1.1038  1.9154
13220TIP3    H261076   6.257   3.691  12.265  2.0570 -0.2285  0.6205
13221TIP3   OH261077   2.881   2.893  13.308 -0.7306 -0.2984 -0.3997
13221TIP3    H161078   2.824   2.817  13.301 -1.3992  0.3200 -2.2693
13221TIP3    H261079   2.829   2.965  13.272  0.9003  0.4592 -1.3328
13222TIP3   OH261080   2.292   5.621  13.259  0.3697  0.3476  0.2187
13222TIP3    H161081   2.338   5.697  13.295 -0.8977  0.6047  1.4049
13222TIP3    H261082   2.227   5.657  13.199  0.0067  0.1939  0.5090
13223TIP3   OH261083   2.414   4.092   4.837  0.0181  0.1011 -0.5472
13223TIP3    H161084   2.346   4.136   4.888  0.6488 -1.7393  2.0727
13223TIP3    H261085   2.376   4.007   4.815  1.0547 -0.5456  0.0604
13224TIP3   OH261086   1.410   0.198   3.104 -0.3147  0.4294  0.0459
13224TIP3    H161087   1.355   0.120   3.104 -0.0635  0.2508  0.9128
13224TIP3    H261088   1.492   0.170   3.143  0.3707  0.7259 -1.1149
13225TIP3   OH261089   4.565   3.603   2.194 -0.2908  0.7046  0.2420
13225TIP3    H161090   4.540   3.585   2.103 -0.1256  0.7988  0.1773
13225TIP3    H261091   4.660   3.610   2.192 -0.0351 -1.7802  0.8541
13226TIP3   OH261092   6.208   6.104   3.271 -0.4451 -0.1769 -0.2279
13226TIP3    H161093   6.230   6.086   3.362 -1.8860  0.1927  0.2228
13226TIP3    H261094   6.225   6.197   3.259  1.6343 -0.6047 -0.9381
13227TIP3   OH261095   3.648   2.316   4.563 -0.1301 -0.0099 -0.2135
13227TIP3    H161096   3.727   2.273   4.531  0.4140 -0.6409  1.8120
13227TIP3    H261097   3.594   2.245   4.598 -0.0622  0.7215  1.4671
13228TIP3   OH261098   1.319   2.346  16.381 -0.2890  0.2855  0.1731
13228TIP3    H161099   1.346   2.426  16.427 -2.6882  0.2821  1.8248
13228TIP3    H261100   1.315   2.371  16.289  1.4220  1.3021  0.3316
13229TIP3   OH261101   2.514   2.691  15.691  0.4572 -0.5159  0.0364
13229TIP3    H161102   2.570   2.766  15.670  1.5007 -1.4636 -0.7048
13229TIP3    H261103   2.488   2.655  15.606  0.2245 -1.1805  0.3755
13230TIP3   OH261104   3.397   3.658   3.807  0.1113 -0.3911  0.1838
13230TIP3    H161105   3.403   3.720   3.880 -1.0205 -0.4293  0.3276
13230TIP3    H261106   3.385   3.713   3.729 -2.4941 -0.4137  0.4912
13231TIP3   OH261107   4.022   1.349   2.423 -0.1552 -0.1811 -0.7114
13231TIP3    H161108   3.929   1.343   2.398 -0.2460 -1.0470 -0.2113
13231TIP3    H261109   4.063   1.274   2.379 -0.4059 -2.0552  2.0042
13232TIP3   OH261110   5.416   3.368  13.214 -0.0474  0.1323  0.1874
13232TIP3    H161111   5.392   3.335  13.301 -4.4033  1.0919 -0.4415
13232TIP3    H261112   5.399   3.295  13.155 -0.8700  0.6545 -0.2352
13233TIP3   OH261113   2.073   1.265   2.725 -0.1750 -0.1462  0.4560
13233TIP3    H161114   1.989   1.302   2.751  0.0436 -0.2816  1.3976
13233TIP3    H261115   2.127   1.269   2.805  1.3964  1.7881 -0.6205
13234TIP3   OH261116   3.074   6.067  16.060  0.0177 -0.2840  0.2328
13234TIP3    H161117   3.070   6.057  16.156 -2.1123  1.6389  0.4380
13234TIP3    H261118   3.008   6.134  16.041  2.1124  1.2099 -2.3412
13235TIP3   OH261119   4.320   3.520   5.102 -0.0501 -0.3210  0.2376
13235TIP3    H161120   4.271   3.557   5.176 -1.3804 -0.4411 -0.5608
13235TIP3    H261121   4.400   3.485   5.142 -0.9281 -0.7527  1.6929
13236TIP3   OH261122   4.821   3.686  13.533  0.2457  0.2390  0.3434
13236TIP3    H161123   4.837   3.592  13.529 -0.6837  0.1281 -1.6018
13236TIP3    H261124   4.900   3.726  13.497 -0.2204  0.0768 -0.9090
13237TIP3   OH261125   6.323   4.213  14.114 -0.2334 -0.6725  0.1206
13237TIP3    H161126   6.291   4.233  14.202 -1.3360 -0.2434 -0.3541
13237TIP3    H261127   6.323   4.118  14.109  1.9275 -0.7914  1.3008
13238TIP3   OH261128   5.010   1.511  15.496 -0.4565 -0.0051  0.2473
13238TIP3    H161129   5.078   1.578  15.498  0.7876 -1.1356 -1.4828
13238TIP3    H261130   5.048   1.439  15.446 -2.3749 -1.3247  0.5602
13239TIP3   OH261131   5.353   6.791   2.854  0.1924 -0.3371  0.2965
13239TIP3    H161132   5.356   6.876   2.897  1.3010 -0.3352  0.2307
13239TIP3    H261133   5.428   6.743   2.889  0.5075 -0.7101 -0.8493
13240TIP3   OH261134   4.432   0.681  13.319 -0.2952  0.0604 -0.3993
13240TIP3    H161135   4.365   0.748  13.304  1.1490  1.8369  0.7640
13240TIP3    H261136   4.497   0.696  13.251  1.1180  1.3473  1.1625
13241TIP3   OH261137   3.201   3.887   2.235  0.7260 -0.0945 -0.1988
13241TIP3    H161138   3.197   3.810   2.292  0.4688 -0.9999 -1.4146
13241TIP3    H261139   3.190   3.853   2.147  0.2778  1.3800 -0.7455
13242TIP3   OH261140   2.528   3.832  11.138 -0.4656 -0.2615  0.0339
13242TIP3    H161141   2.571   3.895  11.196 -0.1091 -0.7495  0.3111
13242TIP3    H261142   2.459   3.793  11.192 -2.1381  1.4122 -0.7764
13243TIP3   OH261143   5.475   0.198  16.124  0.7081 -0.4961  0.4322
13243TIP3    H161144   5.425   0.257  16.181 -0.6040 -0.2339 -0.9108
13243TIP3    H261145   5.414   0.127  16.106  0.9264 -0.3299 -1.0129
13244TIP3   OH261146   4.199   4.285   4.409  0.1419  0.0597  0.0641
13244TIP3    H161147   4.224   4.365   4.454  1.8390  0.4067 -1.3549
13244TIP3    H261148   4.227   4.214   4.467  2.1977  0.4992 -0.3035
13245TIP3   OH261149   2.554   2.894  17.137 -0.3607  0.3361 -0.1338
13245TIP3    H161150   2.588   2.965  17.083  0.6790  1.1114  1.4481
13245TIP3    H261151   2.476   2.931  17.179 -0.3564  0.2244 -0.0271
13246TIP3   OH261152   4.486   5.496  13.109 -0.1661 -0.1784 -0.3817
13246TIP3    H161153   4.545   5.565  13.140 -1.2385  0.6543 -0.1103
13246TIP3    H261154   4.517   5.475  13.021  0.5364  0.2367 -0.2382
13247TIP3   OH261155   5.255   4.312  15.370 -0.1746  0.4648  0.4492
13247TIP3    H161156   5.253   4.289  15.277 -0.4605  0.6049  0.4176
13247TIP3    H261157   5.310   4.391  15.374 -0.2096  0.4924  0.3910
13248TIP3   OH261158   0.940   3.351   3.796  0.3402  0.2023 -0.2308
13248TIP3    H161159   0.985   3.279   3.753  0.2283  0.6115 -1.0445
13248TIP3    H261160   0.904   3.312   3.876  0.8996 -0.4649 -0.2914
13249TIP3   OH261161   1.828   1.007  12.303  0.1440 -0.1800  0.3961
13249TIP3    H161162   1.797   0.968  12.221 -1.2906  0.0556  0.7968
13249TIP3    H261163   1.800   0.945  12.371 -2.8264  1.7641  1.1216
13250TIP3   OH261164   5.912   6.508   1.557 -0.0733 -0.5600  0.4174
13250TIP3    H161165   5.888   6.509   1.464  2.1563  0.2412 -0.2148
13250TIP3    H261166   5.883   6.422   1.588 -1.8527 -0.4194 -0.6998
13251TIP3   OH261167   2.020   2.059   3.510 -0.3329  0.1425 -0.1443
13251TIP3    H161168   1.936   2.034   3.471 -0.5152  2.3915 -1.3102
13251TIP3    H261169   2.070   1.977   3.513 -1.7938 -0.8488 -1.3574
13252TIP3   OH261170   1.706   5.814   1.782  0.3037 -0.0042 -0.2874
13252TIP3    H161171   1.765   5.884   1.754  0.5329 -0.5229 -1.1250
13252TIP3    H261172   1.647   5.856   1.846  0.6542  0.8629 -0.5254
13253TIP3   OH261173   4.853   6.224  15.767  0.1095 -0.3506 -0.6689
13253TIP3    H161174   4.915   6.254  15.701  0.5475 -0.1968 -0.1853
13253TIP3    H261175   4.895   6.241  15.851  0.0831 -1.6731 -0.3607
13254TIP3   OH261176   0.804   4.572  15.765  0.0345 -0.4286  0.6754
13254TIP3    H161177   0.789   4.642  15.702  3.9579 -0.5180 -0.6223
13254TIP3    H261178   0.720   4.526  15.772 -1.5241  1.8833 -1.5593
13255TIP3   OH261179   1.191   2.125  11.559 -0.0060  0.0287  0.1318
13255TIP3    H161180   1.102   2.148  11.533 -0.1075 -1.6372 -1.2066
13255TIP3    H261181   1.244   2.145  11.482  0.9339  1.6240  1.1385
13256TIP3   OH261182   6.497   2.176  11.682 -0.0389  0.4215  0.0084
13256TIP3    H161183   6.558   2.233  11.636  0.5115  0.4459  0.7507
13256TIP3    H261184   6.456   2.231  11.748 -1.0385  0.4580 -0.6089
13257TIP3   OH261185   3.683   3.461  15.868  0.3539 -0.0175 -0.2476
13257TIP3    H161186   3.666   3.402  15.941  2.6684 -0.5909 -0.0699
13257TIP3    H261187   3.703   3.403  15.794  0.7743  0.5350 -0.5786
13258TIP3   OH261188   6.497   1.858   3.873 -0.0982  0.1176 -0.3242
13258TIP3    H161189   6.440   1.933   3.888  0.2621  0.3214  0.0613
13258TIP3    H261190   6.438   1.783   3.865 -0.4138  0.3108  0.1807
13259TIP3   OH261191   1.629   3.614  15.043  0.5600 -0.4186  0.6469
13259TIP3    H161192   1.578   3.582  14.969 -0.3220 -1.2938  1.5936
13259TIP3    H261193   1.673   3.692  15.010  0.8678 -1.2660 -1.0287
13260TIP3   OH261194   3.597   4.338  14.772 -0.3267 -0.2336  0.2392
13260TIP3    H161195   3.544   4.345  14.851  0.1033  2.1746  0.3732
13260TIP3    H261196   3.684   4.369  14.798  0.6657 -2.2496 -0.4664
13261TIP3   OH261197   0.733   3.608   0.764  0.0075  0.8734 -0.3769
13261TIP3    H161198   0.687   3.690   0.747  0.2483  1.8717  2.9588
13261TIP3    H261199   0.684   3.568   0.837  0.9696 -1.0548 -0.7129
13262TIP3   OH261200   6.096   0.330   5.725 -0.1554 -0.0121  0.6528
13262TIP3    H161201   6.124   0.364   5.809 -0.1073 -0.1389  0.6884
13262TIP3    H261202   6.173   0.336   5.669 -0.4024  0.8312  0.3805
13263TIP3   OH261203   1.109   0.880   5.940 -0.0577  0.1105 -0.1337
13263TIP3    H161204   1.028   0.876   5.990  1.4221  0.3818  2.4166
13263TIP3    H261205   1.127   0.974   5.930 -0.4014  0.0667 -1.3475
13264TIP3   OH261206   3.253   5.772  11.167 -0.0975  0.3877  0.0332
13264TIP3    H161207   3.163   5.747  11.145  0.3117 -1.2169  0.0811
13264TIP3    H261208   3.248   5.797  11.260 -0.8872  2.4939 -0.5164
13265TIP3   OH261209   4.308   3.372   4.832 -0.5030  0.3510  0.2355
13265TIP3    H161210   4.289   3.432   4.904 -2.2525  1.0678 -0.7441
13265TIP3    H261211   4.356   3.424   4.768 -0.1144  0.0937  0.3160
13266TIP3   OH261212   2.585   2.310  10.779 -0.5796 -0.0239 -0.6905
13266TIP3    H161213   2.556   2.228  10.738 -1.1927 -0.2146  0.1039
13266TIP3    H261214   2.545   2.379  10.725  0.2299 -0.2331 -1.5702
13267TIP3   OH261215   3.680   5.672   1.167  0.2866 -0.3560 -0.2541
13267TIP3    H161216   3.597   5.684   1.213  1.4116 -0.8937  2.0592
13267TIP3    H261217   3.740   5.735   1.207  1.0092  0.0626 -1.9164
13268TIP3   OH261218   4.083   5.837  12.660  0.3051  0.6003 -0.1932
13268TIP3    H161219   4.178   5.823  12.655 -0.0066 -1.5541 -1.2601
13268TIP3    H261220   4.074   5.926  12.694  2.6842  0.1902  1.7798
13269TIP3   OH261221   4.721   4.134  12.038  0.5413  0.1556 -0.3127
13269TIP3    H161222   4.753   4.099  12.122  4.2620  1.7639 -0.8472
13269TIP3    H261223   4.664   4.206  12.063 -1.5590 -1.7593  0.7492
13270TIP3   OH261224   5.750   3.304  16.257 -0.1049 -0.3330 -0.0519
13270TIP3    H161225   5.775   3.396  16.262  2.3296 -0.8528 -1.3896
13270TIP3    H261226   5.725   3.291  16.165 -3.3543 -0.4263  0.6996
13271TIP3   OH261227   4.501   6.232  14.138  0.1588  0.2156  0.5392
13271TIP3    H161228   4.422   6.284  14.122 -0.3679 -0.3314  1.2675
13271TIP3    H261229   4.533   6.210  14.050  0.6457  2.0951  0.2016
13272TIP3   OH261230   3.214   1.254  15.200 -0.1184 -0.2293  0.0220
13272TIP3    H161231   3.280   1.311  15.241 -0.1671  0.5143 -0.9122
13272TIP3    H261232   3.192   1.190  15.268 -0.2145  0.9921  1.1698
13273TIP3   OH261233   2.622   4.502  13.728 -0.0154 -0.3817 -0.6436
13273TIP3    H161234   2.588   4.591  13.735  0.7587 -0.0493 -0.9710
13273TIP3    H261235   2.716   4.511  13.743 -0.1574 -1.3958  1.2480
13274TIP3   OH261236   5.997   4.450   1.470 -0.1213  0.1070  0.0027
13274TIP3    H161237   5.904   4.470   1.483  0.0224  0.4939  0.4341
13274TIP3    H261238   6.039   4.535   1.459  0.1073 -0.0907 -0.7505
13275TIP3   OH261239   4.636   0.105   2.242  0.1193 -0.3008 -0.9200
13275TIP3    H161240   4.691   0.091   2.319 -1.1241  1.6374  0.3929
13275TIP3    H261241   4.676   0.179   2.196 -0.8758  0.5840 -0.4005
13276TIP3   OH261242   2.294   0.977  13.916 -0.2402  0.4204 -0.1568
13276TIP3    H161243   2.200   0.958  13.925 -0.5862  1.5730 -1.1005
13276TIP3    H261244   2.306   1.060  13.962 -0.0426  1.1340 -1.4351
13277TIP3   OH261245   5.054   5.540   2.298  0.7124 -0.0208  0.1992
13277TIP3    H161246   5.088   5.587   2.375 -0.7982  0.4089  0.6227
13277TIP3    H261247   5.088   5.451   2.308  0.4727  0.0081  1.4019
13278TIP3   OH261248   6.077   1.883   1.669 -0.7530  0.0837  0.0145
13278TIP3    H161249   6.125   1.953   1.624  0.4067 -1.4294 -1.2245
13278TIP3    H261250   6.046   1.923   1.750  2.0678  1.3611  0.5924
13279TIP3   OH261251   5.649   5.596  16.650 -0.6892  0.5820 -0.0474
13279TIP3    H161252   5.628   5.507  16.622 -1.1240  0.8919 -0.7291
13279TIP3    H261253   5.741   5.608  16.625 -0.2074 -0.1306  1.2679
13280TIP3   OH261254   0.877   0.545  11.919  0.6048  0.2218 -0.1034
13280TIP3    H161255   0.971   0.532  11.901  0.7128 -0.6273  0.9577
13280TIP3    H261256   0.866   0.514  12.009 -0.9525 -0.9470 -0.6547
13281TIP3   OH261257   3.949   0.355   1.351 -0.2603 -0.5869  0.0839
13281TIP3    H161258   3.995   0.405   1.419  0.9249  0.6487 -1.5562
13281TIP3    H261259   3.940   0.268   1.389  0.9686 -0.1324  1.5639
13282TIP3   OH261260   4.430   3.580   4.652 -0.6599 -0.0742 -0.2288
13282TIP3    H161261   4.433   3.604   4.559  0.0620  1.6882  0.2109
13282TIP3    H261262   4.401   3.660   4.696  1.2901 -0.1385  1.2846
13283TIP3   OH261263   1.960   0.709  16.062  0.1186 -0.3754  1.2212
13283TIP3    H161264   2.028   0.646  16.040  1.6983  1.3917  0.7623
13283TIP3    H261265   1.998   0.763  16.131 -1.3212 -0.1269  1.8646
13284TIP3   OH261266   0.186   0.001   5.655  0.6997 -0.0874 -0.2288
13284TIP3    H161267   0.188   0.078   5.598  0.0941 -1.0849 -1.6588
13284TIP3    H261268   0.124   0.024   5.725  0.9070  0.8894 -0.3579
13285TIP3   OH261269   5.147   4.015   5.971  0.1469 -0.0477  0.0886
13285TIP3    H161270   5.091   4.088   5.945 -0.7686 -0.9185 -0.4400
13285TIP3    H261271   5.231   4.032   5.928 -0.0345  0.7162  0.0222
13286TIP3   OH261272   6.628   2.049   0.205  0.5010  0.1509  0.3039
13286TIP3    H161273   6.635   2.119   0.139  0.7375 -0.2376 -0.0928
13286TIP3    H261274   6.697   1.988   0.181  0.7410  0.1241  1.0682
13287TIP3   OH261275   4.366   4.386  10.911 -0.0176 -0.3323  0.1280
13287TIP3    H161276   4.382   4.446  10.838  1.1683 -2.7344 -1.7500
13287TIP3    H261277   4.445   4.331  10.914 -0.2909 -0.7079  2.8749
13288TIP3   OH261278   4.413   0.071   5.076  0.1752  0.1290 -0.0851
13288TIP3    H161279   4.334   0.103   5.033 -0.3175  0.0109  0.7169
13288TIP3    H261280   4.455   0.015   5.011  0.1552  1.0274 -0.8902
13289TIP3   OH261281   3.990   2.829  13.559 -0.7868  0.1118 -0.0862
13289TIP3    H161282   3.967   2.784  13.640  1.3433  0.1603  0.6268
13289TIP3    H261283   3.972   2.921  13.577 -0.4517  0.1056  0.3064
13290TIP3   OH261284   0.161   5.181   5.976  0.1562 -0.0159 -0.1879
13290TIP3    H161285   0.142   5.271   6.002  0.1751 -0.0582 -0.0270
13290TIP3    H261286   0.094   5.161   5.910  0.6967  0.4151 -0.8761
13291TIP3   OH261287   6.620   2.693   2.816 -0.2405 -0.3003 -0.0801
13291TIP3    H161288   6.586   2.733   2.897 -1.7787  0.1092 -0.8969
13291TIP3    H261289   6.546   2.643   2.781  0.4185 -0.4971 -1.2239
13292TIP3   OH261290   2.463   2.410  15.483 -0.9735 -0.2240  0.0033
13292TIP3    H161291   2.523   2.339  15.505 -0.0993  0.9749  1.6576
13292TIP3    H261292   2.508   2.459  15.414 -1.0002 -0.4920 -0.2096
13293TIP3   OH261293   6.071   2.079  14.126 -0.2138  0.1559  0.3113
13293TIP3    H161294   6.005   2.046  14.066  0.5393 -0.5733 -0.1433
13293TIP3    H261295   6.132   2.006  14.137  1.2543  1.2342 -0.3741
13294TIP3   OH261296   3.213   2.141   0.179 -0.0970 -0.3420  0.0159
13294TIP3    H161297   3.199   2.161   0.086 -1.5731 -1.4059 -0.0187
13294TIP3    H261298   3.271   2.211   0.210  0.3631  0.0707 -1.6754
13295TIP3   OH261299   4.401   0.315  13.029 -0.4379 -0.3379  0.3334
13295TIP3    H161300   4.397   0.308  12.934 -1.2572 -2.4761  0.4517
13295TIP3    H261301   4.494   0.324  13.049 -0.1228 -1.2569 -0.6261
13296TIP3   OH261302   1.218   2.638   4.025  0.0791 -0.0030 -0.1426
13296TIP3    H161303   1.193   2.586   4.101  2.4813 -0.6832  0.2686
13296TIP3    H261304   1.236   2.574   3.957  0.0064  0.4892 -0.6318
13297TIP3   OH261305   6.591   3.932  14.168 -0.2125  0.4204 -0.0729
13297TIP3    H161306   6.644   4.005  14.137 -1.7368  2.1504  1.1442
13297TIP3    H261307   6.612   3.924  14.261  0.2106 -0.9766 -0.2652
13298TIP3   OH261308   3.084   3.122   0.728  0.1766  0.4423  0.6109
13298TIP3    H161309   3.078   3.028   0.741  2.4173 -0.2541 -2.2651
13298TIP3    H261310   3.169   3.146   0.765 -0.5512  1.4603  1.7006
13299TIP3   OH261311   5.483   2.009   2.279 -0.0001  0.0375 -0.1313
13299TIP3    H161312   5.480   1.926   2.326  0.3367 -0.0652 -0.2845
13299TIP3    H261313   5.391   2.029   2.259 -0.0014 -0.9415 -1.1928
13300TIP3   OH261314   3.786   5.638   0.210  0.3501  0.3849 -0.3498
13300TIP3    H161315   3.805   5.573   0.277  1.1263  1.0151  0.0611
13300TIP3    H261316   3.699   5.614   0.177 -0.0524  0.0540  0.8768
13301TIP3   OH261317   1.036   5.996  15.920 -0.3630  0.2073 -0.9261
13301TIP3    H161318   1.128   6.019  15.931  0.1842 -2.0621 -0.2636
13301TIP3    H261319   1.007   5.968  16.007 -0.8842 -1.6250 -1.6286
13302TIP3   OH261320   1.182   6.374   2.502 -0.7479 -0.3532 -0.1891
13302TIP3    H161321   1.132   6.296   2.523  0.4827 -0.4983  2.5974
13302TIP3    H261322   1.205   6.412   2.587  1.2062  1.3840 -1.3918
13303TIP3   OH261323   5.151   1.190  13.599  0.1317  0.0095 -0.2469
13303TIP3    H161324   5.098   1.181  13.520  0.5102  0.4054 -0.5457
13303TIP3    H261325   5.241   1.177  13.570  0.5931  2.8799 -0.4145
13304TIP3   OH261326   2.240   4.829   0.998  0.0192  0.4436  0.1819
13304TIP3    H161327   2.288   4.906   1.029 -0.0306  0.4656  0.2052
13304TIP3    H261328   2.181   4.807   1.070 -1.2724  1.4875 -0.5162
13305TIP3   OH261329   3.441   6.713   0.845  0.5560 -0.2448  0.1226
13305TIP3    H161330   3.361   6.674   0.881  0.1881 -0.1016 -0.5327
13305TIP3    H261331   3.510   6.686   0.906  0.4635 -2.6033 -0.7014
13306TIP3   OH261332   3.325   3.624   2.072 -0.1871  0.3233 -0.9051
13306TIP3    H161333   3.338   3.533   2.045  1.2039  0.2574 -0.1296
13306TIP3    H261334   3.244   3.622   2.123  1.1042 -1.0415  1.2865
13307TIP3   OH261335   2.850   2.903  17.027  0.1288  0.2483 -0.2341
13307TIP3    H161336   2.808   2.989  17.030 -0.3380  0.0123  0.5560
13307TIP3    H261337   2.825   2.862  17.110 -1.0407 -1.2855 -1.2693
13308TIP3   OH261338   0.165   4.817   4.815 -0.7459  0.0794 -0.3414
13308TIP3    H161339   0.171   4.844   4.724  1.6590 -0.2354 -0.3432
13308TIP3    H261340   0.156   4.898   4.865  0.8247  0.5099 -0.7075
13309TIP3   OH261341   2.883   3.002   1.378 -0.0509 -0.3749 -0.1391
13309TIP3    H161342   2.976   3.028   1.378 -0.1321  0.1662 -2.7618
13309TIP3    H261343   2.837   3.082   1.403  0.1161 -0.3754  0.1894
13310TIP3   OH261344   5.577   1.451  12.592 -0.4643 -0.3298 -0.0674
13310TIP3    H161345   5.487   1.448  12.623 -0.7889  0.2496 -0.9234
13310TIP3    H261346   5.629   1.418  12.666 -1.1458  1.5706  1.3385
13311TIP3   OH261347   3.318   0.834  11.184 -0.4560 -0.4527 -0.1582
13311TIP3    H161348   3.248   0.883  11.140 -0.9520 -0.5426  0.5140
13311TIP3    H261349   3.300   0.846  11.277  0.1039 -0.9429  0.0158
13312TIP3   OH261350   0.891   1.000  11.192 -0.2011 -0.1414 -0.2239
13312TIP3    H161351   0.937   0.927  11.233 -0.1986  0.7260  1.3912
13312TIP3    H261352   0.815   0.959  11.150 -1.8691 -0.8656  3.0957
13313TIP3   OH261353   4.698   2.853  12.254 -0.2503  0.2111 -0.4206
13313TIP3    H161354   4.729   2.763  12.242 -0.5642 -0.1215  1.0865
13313TIP3    H261355   4.734   2.900  12.179  3.3823 -0.2643  0.8033
13314TIP3   OH261356   0.767   5.815  15.608 -0.1472  0.3868 -0.7142
13314TIP3    H161357   0.745   5.761  15.683  0.4788  0.6739 -0.3248
13314TIP3    H261358   0.815   5.757  15.549  1.9979  0.9113  0.4340
13315TIP3   OH261359   4.343   2.382  16.002 -0.1664 -0.4497  0.0623
13315TIP3    H161360   4.325   2.289  15.983  1.2455 -0.6467 -0.3874
13315TIP3    H261361   4.362   2.384  16.096 -0.7211 -0.5214  0.1792
13316TIP3   OH261362   0.835   4.157  12.090  0.1615  0.1999 -0.1091
13316TIP3    H161363   0.765   4.131  12.030 -1.6215  0.5928  1.7037
13316TIP3    H261364   0.790   4.200  12.163  2.2562  0.0172  1.3840
13317TIP3   OH261365   1.271   1.857  11.066 -0.8141  0.0687  0.3753
13317TIP3    H161366   1.308   1.940  11.036 -2.0844  0.0251 -1.4874
13317TIP3    H261367   1.333   1.790  11.036 -0.2793  0.2616  1.0290
13318TIP3   OH261368   6.187   0.764  12.462 -0.6145 -0.0810 -0.1783
13318TIP3    H161369   6.152   0.808  12.540 -1.4196 -1.3656  0.2119
13318TIP3    H261370   6.281   0.755  12.480 -0.8899 -0.9092  0.9261
13319TIP3   OH261371   6.291   0.592  15.919  0.4087  0.0830  0.4902
13319TIP3    H161372   6.234   0.661  15.952  1.3916  0.6174  1.0997
13319TIP3    H261373   6.283   0.599  15.824 -2.2124 -1.2817  0.5106
13320TIP3   OH261374   0.503   5.288   3.915 -0.3311 -0.1535 -0.3127
13320TIP3    H161375   0.413   5.262   3.931 -0.0968 -1.2669 -0.7337
13320TIP3    H261376   0.542   5.214   3.868  0.6598  0.5185 -0.5895
13321TIP3   OH261377   5.155   1.750  13.322 -0.2488  0.5448  0.7172
13321TIP3    H161378   5.059   1.746  13.323 -0.2553  0.3950  2.2431
13321TIP3    H261379   5.182   1.680  13.382  0.8115  0.6495  0.3732
13322TIP3   OH261380   5.974   0.499  15.720  0.2771 -0.2716 -0.1829
13322TIP3    H161381   5.988   0.594  15.716  0.9302 -0.3606 -0.0968
13322TIP3    H261382   5.882   0.490  15.743  1.3982  0.4574  6.3229
13323TIP3   OH261383   2.701   5.634   5.100  0.4500 -0.2144  0.4082
13323TIP3    H161384   2.779   5.632   5.155 -0.4066 -1.5190  1.6503
13323TIP3    H261385   2.629   5.619   5.161 -0.7901  0.9151 -0.7073
13324TIP3   OH261386   6.584   3.905   5.550 -0.3498  0.1236  0.3539
13324TIP3    H161387   6.633   3.879   5.628 -1.2562  0.9011  1.2100
13324TIP3    H261388   6.530   3.979   5.579  1.0986  2.1036 -1.6112
13325TIP3   OH261389   0.410   4.599  13.833 -0.1028 -0.5168 -0.1131
13325TIP3    H161390   0.317   4.614  13.853  0.2414 -0.4021  1.4806
13325TIP3    H261391   0.445   4.686  13.814 -0.8842 -0.8016 -3.6270
13326TIP3   OH261392   6.344   3.870   0.544  0.2242 -0.4866  0.1485
13326TIP3    H161393   6.396   3.950   0.541 -1.1665  0.5804  2.1439
13326TIP3    H261394   6.262   3.892   0.499  0.5877 -1.4812 -1.0874
13327TIP3   OH261395   6.074   3.638  15.796 -0.0971  0.0868 -0.3502
13327TIP3    H161396   5.987   3.672  15.775 -0.8156 -0.4904  1.4657
13327TIP3    H261397   6.093   3.576  15.726 -0.3528  1.5038 -1.7226
13328TIP3   OH261398   4.917   6.213   0.969  0.0033 -0.0591 -0.5359
13328TIP3    H161399   4.903   6.176   1.056 -0.4228 -0.4242 -0.7570
13328TIP3    H261400   4.955   6.299   0.986  1.0655 -0.6135 -0.0159
13329TIP3   OH261401   4.644   2.438  14.095 -0.6943  0.4407  0.3217
13329TIP3    H161402   4.685   2.519  14.067 -1.6572  1.3869  1.5354
13329TIP3    H261403   4.611   2.457  14.182 -0.8155 -1.3131  0.6904
13330TIP3   OH261404   1.327   3.487  12.815 -0.0117  0.2919 -0.2391
13330TIP3    H161405   1.263   3.514  12.750  0.0780 -0.6340 -0.7311
13330TIP3    H261406   1.381   3.421  12.770 -0.6861 -1.2565  1.1076
13331TIP3   OH261407   3.876   0.243   1.828  1.1421 -0.2409  0.3908
13331TIP3    H161408   3.835   0.285   1.903  0.0084  1.5378 -1.1399
13331TIP3    H261409   3.807   0.238   1.762  2.1097 -1.7250 -0.5835
13332TIP3   OH261410   1.169   1.014  11.673 -0.2419  0.4874 -0.2151
13332TIP3    H161411   1.212   1.043  11.593  0.9009 -1.2777 -0.3091
13332TIP3    H261412   1.079   1.045  11.665  0.3903  2.1813 -1.1641
13333TIP3   OH261413   5.018   2.053   3.875 -0.4174 -0.6644 -0.3287
13333TIP3    H161414   5.010   2.087   3.964  1.6898  1.4497 -0.8539
13333TIP3    H261415   4.946   2.094   3.827  1.3195  2.3030 -0.6463
13334TIP3   OH261416   2.211   4.959   3.611  0.2825  0.3723  0.3650
13334TIP3    H161417   2.181   5.047   3.633  1.7115  0.7674  0.7789
13334TIP3    H261418   2.134   4.917   3.572 -0.6249  1.5491  0.8373
13335TIP3   OH261419   3.451   4.304   2.434 -0.3182 -0.5760 -0.5786
13335TIP3    H161420   3.513   4.244   2.475 -0.1108 -0.2258 -0.3804
13335TIP3    H261421   3.437   4.267   2.347 -0.1541 -0.8854 -0.4755
13336TIP3   OH261422   6.209   2.145  15.894 -0.1005  0.4140  0.1292
13336TIP3    H161423   6.219   2.170  15.802 -0.7494 -0.1337 -0.1005
13336TIP3    H261424   6.219   2.227  15.943 -0.2531  0.7909 -0.4661
13337TIP3   OH261425   0.579   4.179   4.876 -0.3781  0.1456  0.1422
13337TIP3    H161426   0.489   4.206   4.897 -0.3903 -0.2908  0.7051
13337TIP3    H261427   0.605   4.234   4.802 -1.6535 -0.7763 -1.0263
13338TIP3   OH261428   5.512   5.358  16.841  0.3746 -0.2288 -0.2792
13338TIP3    H161429   5.567   5.436  16.848  0.6773 -0.4255 -0.4300
13338TIP3    H261430   5.513   5.338  16.747  0.2979 -0.4133 -0.2402
13339TIP3   OH261431   5.480   1.681  15.313  0.3438 -0.0417 -0.2334
13339TIP3    H161432   5.538   1.747  15.351  1.5311 -1.1128 -0.0872
13339TIP3    H261433   5.392   1.712  15.331  0.8749  0.3691  1.8678
13340TIP3   OH261434   4.348   4.300  14.516 -0.2359 -0.4367  0.4514
13340TIP3    H161435   4.408   4.226  14.507 -0.0796 -0.7678  3.3582
13340TIP3    H261436   4.397   4.375  14.481  0.6015 -1.2447 -0.1537
13341TIP3   OH261437   5.961   5.538  10.476 -0.0982 -0.5943  0.0026
13341TIP3    H161438   5.985   5.452  10.442 -0.0073 -1.1648  1.4430
13341TIP3    H261439   6.042   5.589  10.471 -0.2203 -0.5050 -1.1033
13342TIP3   OH261440   0.234   4.849  16.910 -0.4279 -0.3156  0.5446
13342TIP3    H161441   0.287   4.785  16.863 -1.6823 -1.0271  0.0483
13342TIP3    H261442   0.261   4.840  17.001  0.5748 -0.3718  0.2607
13343TIP3   OH261443   5.999   2.160   0.953 -0.4668 -0.5065 -0.2242
13343TIP3    H161444   5.936   2.213   0.905  0.1191  1.4152  1.0054
13343TIP3    H261445   6.075   2.156   0.895 -0.0061  1.2412  0.2028
13344TIP3   OH261446   0.921   6.562  15.696  0.6087 -0.9979  0.2568
13344TIP3    H161447   1.005   6.607  15.711 -0.2484  0.9576 -0.4082
13344TIP3    H261448   0.921   6.490  15.758  2.1763 -0.1901  1.2672
13345TIP3   OH261449   6.232   1.073  14.016 -0.6206  1.1524  0.1927
13345TIP3    H161450   6.220   1.094  13.923  2.5496  1.3102 -0.2980
13345TIP3    H261451   6.225   1.157  14.061  2.1472  1.8931 -0.5466
13346TIP3   OH261452   3.266   0.227  13.529  0.1301 -0.1173 -0.0599
13346TIP3    H161453   3.213   0.252  13.454 -1.0310 -0.3946  0.6575
13346TIP3    H261454   3.253   0.298  13.592  0.0413 -0.5399  0.3999
13347TIP3   OH261455   6.568   1.460   1.171 -0.7758  0.2798 -0.6207
13347TIP3    H161456   6.573   1.512   1.091 -0.2137 -0.5200 -1.1212
13347TIP3    H261457   6.538   1.374   1.142  0.7348 -0.4332 -0.1833
13348TIP3   OH261458   1.815   0.031  17.190  0.4431  0.3240 -0.1636
13348TIP3    H161459   1.792  -0.055  17.225 -1.1518  0.1735 -1.4439
13348TIP3    H261460   1.798   0.092  17.262 -0.8873 -0.1825 -0.0188
13349TIP3   OH261461   0.831   3.080  13.303  0.2525  0.3582  0.0270
13349TIP3    H161462   0.900   3.037  13.354  0.1410  1.0750  0.7961
13349TIP3    H261463   0.810   3.017  13.234  2.1077  0.3740 -0.6200
13350TIP3   OH261464   4.597   1.854   2.178  0.0093 -0.0420  0.7110
13350TIP3    H161465   4.520   1.797   2.171 -0.0072 -0.1990  2.0007
13350TIP3    H261466   4.640   1.846   2.093 -0.9744 -0.5595  0.2425
13351TIP3   OH261467   6.704   1.351  12.670 -0.3481  0.1687  0.2410
13351TIP3    H161468   6.678   1.443  12.663  0.2197  0.3112  0.0123
13351TIP3    H261469   6.622   1.306  12.691 -0.5017  0.8258  1.1792
13352TIP3   OH261470   1.249   3.884   0.507 -0.3925  0.1617  0.3114
13352TIP3    H161471   1.322   3.846   0.457  0.9365  0.5911  1.8296
13352TIP3    H261472   1.176   3.823   0.493  0.5454 -0.8277 -0.4484
13353TIP3   OH261473   2.607   5.841  11.182  0.2223 -0.0722  0.2554
13353TIP3    H161474   2.661   5.767  11.212  1.0731  0.2245 -0.4806
13353TIP3    H261475   2.612   5.837  11.087 -0.6584  0.2718  0.1866
13354TIP3   OH261476   6.332   3.861   0.040  0.1910  0.1996  0.4706
13354TIP3    H161477   6.282   3.817   0.109  1.9496 -1.2732  0.8734
13354TIP3    H261478   6.324   3.954   0.060 -1.4038 -0.0558  1.1824
13355TIP3   OH261479   6.119   6.760  15.261 -0.0690  0.0245  0.0628
13355TIP3    H161480   6.180   6.833  15.253 -0.4589  0.3240 -0.2573
13355TIP3    H261481   6.033   6.799  15.246 -0.2659 -0.5377 -0.3281
13356TIP3   OH261482   6.755   2.840   4.433 -0.1848 -0.4408 -0.9353
13356TIP3    H161483   6.710   2.918   4.465  0.8306 -0.3065  0.2657
13356TIP3    H261484   6.686   2.784   4.400 -1.3041 -0.4398  1.2481
13357TIP3   OH261485   3.850   1.852   1.470 -0.0883 -0.2431  0.4130
13357TIP3    H161486   3.811   1.782   1.418  0.0966  0.5267 -0.8099
13357TIP3    H261487   3.787   1.869   1.540 -0.2730 -1.4068  0.5381
13358TIP3   OH261488   2.859   5.589   3.293 -0.0211 -0.0730  0.5257
13358TIP3    H161489   2.922   5.532   3.249  1.2570  1.8264 -0.2087
13358TIP3    H261490   2.792   5.605   3.226 -0.4761 -0.7986  0.7893
13359TIP3   OH261491   4.723   2.306   4.007  0.3167 -0.5114 -0.2797
13359TIP3    H161492   4.680   2.348   3.933 -0.2111  0.9532  0.8087
13359TIP3    H261493   4.661   2.239   4.036  0.4296 -0.9369 -1.0146
13360TIP3   OH261494   2.030   5.948  12.318  0.3533  0.2951 -0.2242
13360TIP3    H161495   1.945   5.913  12.344  0.6681 -0.5155 -0.2715
13360TIP3    H261496   2.094   5.883  12.349  0.8473  0.1108 -1.5702
13361TIP3   OH261497   4.611   2.834   1.998  0.2298  0.1490  0.6407
13361TIP3    H161498   4.632   2.752   2.042  1.2239 -1.0751 -1.9181
13361TIP3    H261499   4.667   2.899   2.041  0.2188 -0.6819  1.9950
13362TIP3   OH261500   5.471   2.694  12.642  0.3203 -0.3774  0.0283
13362TIP3    H161501   5.480   2.698  12.737  1.5010  0.1149 -0.0884
13362TIP3    H261502   5.538   2.754  12.609  0.5788 -1.2691 -1.1370
13363TIP3   OH261503   5.541   6.719   2.359  0.1969  0.5380  0.2153
13363TIP3    H161504   5.588   6.769   2.293  0.9502 -0.9706 -0.4313
13363TIP3    H261505   5.511   6.640   2.314  0.7404 -0.5451  1.6567
13364TIP3   OH261506   1.214   5.038  14.294 -0.3502  0.0200 -0.5042
13364TIP3    H161507   1.274   5.100  14.336 -0.3059 -0.9834  0.9793
13364TIP3    H261508   1.176   5.088  14.222 -0.4305  1.8567  0.7174
13365TIP3   OH261509   6.420   0.192  15.058  0.1666 -0.4375 -0.4361
13365TIP3    H161510   6.356   0.263  15.050  0.7987  0.2510  0.3085
13365TIP3    H261511   6.371   0.120  15.097 -0.4761 -0.4073 -1.1545
13366TIP3   OH261512   6.714   1.845   4.309  0.4938  0.0683  0.5512
13366TIP3    H161513   6.810   1.845   4.306  0.5472  0.1915  1.5762
13366TIP3    H261514   6.691   1.754   4.331  0.4432  0.2449  1.2795
13367TIP3   OH261515   6.311   3.790  11.564 -0.3336 -0.0933  0.2596
13367TIP3    H161516   6.226   3.781  11.606 -0.1601 -0.9299  0.4458
13367TIP3    H261517   6.291   3.815  11.473 -0.8426 -1.5895 -0.0602
13368TIP3   OH261518   6.337   4.405  16.740  0.1188 -0.0522  0.3605
13368TIP3    H161519   6.404   4.414  16.808 -0.2078 -0.4168  0.7346
13368TIP3    H261520   6.284   4.484  16.747 -0.0955 -0.2294  0.7267
13369TIP3   OH261521   5.972   0.051   5.153  0.5842 -0.1762 -0.2279
13369TIP3    H161522   5.885   0.011   5.142 -0.0515  1.1405 -0.2181
13369TIP3    H261523   6.015  -0.003   5.219 -1.3141  0.7279  1.9174
13370TIP3   OH261524   3.675   2.204   1.747 -0.1134 -0.1340  0.1992
13370TIP3    H161525   3.705   2.226   1.836 -1.9972  1.9079  0.3987
13370TIP3    H261526   3.641   2.115   1.755  0.3261 -0.2186  1.3735
13371TIP3   OH261527   5.209   6.152  14.170 -0.2102  0.0971  0.4725
13371TIP3    H161528   5.293   6.161  14.215 -1.0305  1.6049  1.7835
13371TIP3    H261529   5.224   6.082  14.106  2.2021  0.7311  0.2506
13372TIP3   OH261530   1.676   6.049  10.645  0.4107 -0.0742  0.1250
13372TIP3    H161531   1.717   6.134  10.632 -0.1220  0.2005  0.2430
13372TIP3    H261532   1.719   6.014  10.723  0.3325  0.2659  0.3208
13373TIP3   OH261533   2.337   3.209  10.398  0.7535 -0.4903  0.2050
13373TIP3    H161534   2.365   3.300  10.404  1.0246 -0.5305 -0.4022
13373TIP3    H261535   2.378   3.176  10.318 -0.4022 -0.7734 -0.2931
13374TIP3   OH261536   6.024   0.237   3.261  0.4071 -0.1936  0.8133
13374TIP3    H161537   6.044   0.154   3.306 -1.5145 -0.6443  0.9162
13374TIP3    H261538   6.031   0.216   3.168  0.3545 -0.3576  0.8458
13375TIP3   OH261539   5.179   6.645  15.839  0.6670  0.4029 -0.3549
13375TIP3    H161540   5.087   6.666  15.818  0.1818 -0.7982  0.4879
13375TIP3    H261541   5.218   6.730  15.860 -0.3943  0.8764 -0.2141
13376TIP3   OH261542   5.056   0.387  15.565 -0.0764 -0.1706  0.3440
13376TIP3    H161543   5.065   0.467  15.616 -1.8306  0.4128 -0.1748
13376TIP3    H261544   5.015   0.325  15.625 -0.8021  0.0553  0.0919
13377TIP3   OH261545   2.930   3.196  13.842 -0.0576  0.1192 -0.2364
13377TIP3    H161546   2.926   3.106  13.873  0.3922  0.5548  1.2207
13377TIP3    H261547   2.839   3.221  13.827 -0.5446  0.4103  2.5684
13378TIP3   OH261548   3.756   6.646  14.553  0.1699  0.1099  0.5776
13378TIP3    H161549   3.798   6.578  14.605 -1.4608 -1.1401  0.3682
13378TIP3    H261550   3.667   6.613  14.538 -0.0605  1.3740 -1.2412
13379TIP3   OH261551   1.694   2.756  12.016 -0.1919  0.1034  0.3553
13379TIP3    H161552   1.628   2.798  12.072  0.7378 -0.2398  1.7590
13379TIP3    H261553   1.667   2.664  12.014 -1.2538  0.3975 -1.3165
13380TIP3   OH261554   6.492   1.577   3.820  0.4037 -0.1582  0.2864
13380TIP3    H161555   6.539   1.585   3.903 -0.5496  1.4008  0.7270
13380TIP3    H261556   6.407   1.539   3.844 -0.2710  1.2352  0.2312
13381TIP3   OH261557   0.456   6.247   2.795  0.0321  0.1632 -0.1230
13381TIP3    H161558   0.374   6.199   2.783  0.2248  0.0331 -0.9723
13381TIP3    H261559   0.432   6.322   2.849 -0.4459 -0.4080  0.4754
13382TIP3   OH261560   0.211   0.175   1.708 -0.1802  0.4533  0.1970
13382TIP3    H161561   0.265   0.211   1.638 -1.3815 -0.1351 -1.0927
13382TIP3    H261562   0.262   0.103   1.744  1.5302  2.2861  1.6798
13383TIP3   OH261563   6.107   6.198   1.785  0.1036 -0.6296  0.6801
13383TIP3    H161564   6.180   6.254   1.758  0.4498 -1.0382  0.7589
13383TIP3    H261565   6.095   6.138   1.712 -0.0045 -0.7092  0.7642
13384TIP3   OH261566   2.128   6.677   4.769  0.6479  1.3432  0.2888
13384TIP3    H161567   2.051   6.634   4.808  0.1182 -0.1970 -2.2052
13384TIP3    H261568   2.154   6.743   4.834 -0.4610 -0.5913  2.9253
13385TIP3   OH261569   3.373   6.158   3.159  0.0627 -0.4945  0.4940
13385TIP3    H161570   3.355   6.064   3.165  1.0824 -0.6198  3.0467
13385TIP3    H261571   3.306   6.198   3.213 -0.3914  0.2881 -0.6172
13386TIP3   OH261572   2.114   1.135   0.946  0.2698 -0.3586 -0.0402
13386TIP3    H161573   2.128   1.061   0.887  1.5433  0.8707 -1.3601
13386TIP3    H261574   2.106   1.096   1.033  2.6440 -1.9502 -0.4523
13387TIP3   OH261575   0.171   4.348  11.456 -0.6435  0.0811  0.3939
13387TIP3    H161576   0.230   4.421  11.439 -1.5291  1.2405  2.1280
13387TIP3    H261577   0.107   4.381  11.519 -1.8630 -1.7920  0.2398
13388TIP3   OH261578   0.706   1.355  11.947  0.0633 -0.1447  0.3676
13388TIP3    H161579   0.655   1.351  12.027 -1.4038  1.4169 -0.4222
13388TIP3    H261580   0.648   1.322  11.879 -0.2029  2.1825 -0.6423
13389TIP3   OH261581   2.457   4.480   2.777 -0.1389 -0.1858 -0.0721
13389TIP3    H161582   2.440   4.392   2.743 -1.6443 -0.4940  1.3508
13389TIP3    H261583   2.547   4.498   2.751  0.4946 -2.4773  0.2532
13390TIP3   OH261584   1.997   4.531  12.135 -0.1156  0.0575  0.0665
13390TIP3    H161585   1.994   4.584  12.215  0.5470 -0.4254  0.4276
13390TIP3    H261586   1.905   4.507  12.119 -0.2373 -0.0157  0.8112
13391TIP3   OH261587   5.196   4.191  17.182 -0.3103  0.3057 -0.5614
13391TIP3    H161588   5.131   4.128  17.153 -2.3441  0.8724  2.3538
13391TIP3    H261589   5.156   4.277  17.166 -0.3523  0.6636  1.2141
13392TIP3   OH261590   2.843   0.306  14.279 -1.0751 -0.3408 -0.5947
13392TIP3    H161591   2.748   0.313  14.269 -1.2282 -1.2652  0.0659
13392TIP3    H261592   2.866   0.224  14.236 -0.2735  0.8189 -2.4722
13393TIP3   OH261593   0.336   5.778  14.925 -0.0965 -0.0227 -0.3217
13393TIP3    H161594   0.336   5.832  14.846 -1.4885 -1.4586 -1.3569
13393TIP3    H261595   0.360   5.691  14.894 -0.2849 -0.5310  0.9190
13394TIP3   OH261596   5.751   1.825  14.132 -0.7583  0.0139  0.4243
13394TIP3    H161597   5.761   1.760  14.062 -0.0233 -0.5352  1.0286
13394TIP3    H261598   5.712   1.901  14.088 -1.0611 -0.6055 -0.4176
13395TIP3   OH261599   4.534   4.881   5.042 -0.2407 -0.0291  0.7868
13395TIP3    H161600   4.562   4.890   5.133 -1.1247 -0.6591  1.1441
13395TIP3    H261601   4.575   4.799   5.013  1.6905  1.1583 -0.0615
13396TIP3   OH261602   1.154   5.668   0.566  0.1168 -0.2070 -0.1836
13396TIP3    H161603   1.167   5.709   0.651  0.3336 -1.9914  0.6896
13396TIP3    H261604   1.149   5.741   0.504  1.1782  1.0752  1.1884
13397TIP3   OH261605   6.080   4.758   3.435 -0.6200 -0.6867  0.0031
13397TIP3    H161606   6.020   4.684   3.439 -0.5348 -0.8209 -1.0385
13397TIP3    H261607   6.156   4.730   3.486 -1.4872 -0.4353  1.5215
13398TIP3   OH261608   0.686   3.506   4.082  0.0883 -0.1676 -0.1378
13398TIP3    H161609   0.754   3.451   4.043 -0.3404  0.4631 -1.8381
13398TIP3    H261610   0.611   3.447   4.092 -0.0898 -0.1127 -1.1248
13399TIP3   OH261611   2.204   3.179  14.215 -0.4280 -0.1459 -0.1265
13399TIP3    H161612   2.143   3.108  14.238  0.8260 -1.8347 -1.6986
13399TIP3    H261613   2.199   3.185  14.120  0.8396  0.6448 -0.1594
13400TIP3   OH261614   0.811   3.210   2.509  0.4132  0.5335 -0.4915
13400TIP3    H161615   0.905   3.197   2.524  0.7665  2.8235 -0.4182
13400TIP3    H261616   0.769   3.138   2.557  2.0633  0.2848  0.6562
13401TIP3   OH261617   2.015   1.067  13.842  0.0963 -0.1234  0.0592
13401TIP3    H161618   2.065   1.089  13.763 -0.5744 -0.7538 -0.5534
13401TIP3    H261619   1.928   1.103  13.827  0.5847  1.9380  1.5917
13402TIP3   OH261620   3.777   0.427  14.664 -0.0765  0.1216 -0.4467
13402TIP3    H161621   3.764   0.348  14.716 -0.5566  0.0262 -0.7137
13402TIP3    H261622   3.803   0.395  14.577 -1.0000  0.2252 -0.7743
13403TIP3   OH261623   0.092   3.176   2.544  0.1122  0.2944 -0.4900
13403TIP3    H161624   0.098   3.081   2.550 -2.1667  0.1124 -0.0591
13403TIP3    H261625   0.031   3.201   2.613  1.1884  2.1748 -0.1372
13404TIP3   OH261626   2.070   0.716  11.345 -0.2939 -0.2071 -0.4003
13404TIP3    H161627   2.027   0.797  11.371 -0.2376 -0.2163 -0.2781
13404TIP3    H261628   2.147   0.744  11.296 -0.7240 -0.1947 -1.0813
13405TIP3   OH261629   6.640   5.325  14.815  0.3876  0.1432  1.2072
13405TIP3    H161630   6.709   5.272  14.774  1.5003  0.5446  2.4646
13405TIP3    H261631   6.687   5.402  14.849 -1.1032  1.7274 -0.1504
13406TIP3   OH261632   1.777   5.501   6.561  0.5145 -0.2983  0.6241
13406TIP3    H161633   1.872   5.495   6.569  0.4441 -0.9120  1.0651
13406TIP3    H261634   1.756   5.443   6.487  0.4333 -0.5992  0.8807
13407TIP3   OH261635   3.400   6.112   5.527  0.4922  0.1849  0.3282
13407TIP3    H161636   3.411   6.200   5.563 -0.5136 -0.2869  1.9309
13407TIP3    H261637   3.337   6.123   5.456  0.3158  0.7647  0.5654
13408TIP3   OH261638   2.429   2.969   0.340  0.0996 -0.9029 -0.2252
13408TIP3    H161639   2.448   2.884   0.300 -3.4302 -1.6968 -0.4865
13408TIP3    H261640   2.334   2.975   0.340  0.0874  1.4549  3.1876
13409TIP3   OH261641   6.481   3.094  16.086 -0.0227 -0.8741  0.0635
13409TIP3    H161642   6.399   3.075  16.132 -0.4591 -0.0493 -0.3469
13409TIP3    H261643   6.546   3.038  16.129 -1.0288 -2.5077 -0.4470
13410TIP3   OH261644   2.288   3.761   4.891 -0.6867  0.5665 -0.8300
13410TIP3    H161645   2.299   3.750   4.797  0.8636 -0.0653 -0.5998
13410TIP3    H261646   2.376   3.775   4.924 -0.6275 -2.9037  0.9663
13411TIP3   OH261647   3.103   5.063  12.435 -0.4026  0.2211 -0.2392
13411TIP3    H161648   3.171   5.033  12.495  0.7009 -0.0289 -1.5567
13411TIP3    H261649   3.062   5.136  12.480  1.0960  0.7133  0.3967
13412TIP3   OH261650   0.260   0.372   0.854  0.3577  0.1665 -0.0570
13412TIP3    H161651   0.202   0.448   0.853  1.3210  0.9343 -1.3319
13412TIP3    H261652   0.344   0.406   0.822  0.8114 -1.4267 -0.6695
13413TIP3   OH261653   5.092   3.378  11.280  0.3340 -0.1633 -0.7128
13413TIP3    H161654   5.113   3.397  11.188 -0.0987  1.0312 -0.5803
13413TIP3    H261655   5.080   3.464  11.320  0.9395 -0.6447  0.5748
13414TIP3   OH261656   5.829   6.063   3.062 -0.0016 -0.8800 -0.4400
13414TIP3    H161657   5.805   6.002   2.993 -0.7967  0.0736 -1.0329
13414TIP3    H261658   5.898   6.117   3.023 -0.4182 -0.3703 -0.4738
13415TIP3   OH261659   4.892   0.810   3.005 -0.6743  0.5016  0.8403
13415TIP3    H161660   4.886   0.902   3.031  1.9130  1.1097 -0.3666
13415TIP3    H261661   4.924   0.765   3.083  0.8565  1.1970  0.6642
13416TIP3   OH261662   5.283   2.310  17.148 -0.1444 -0.3108  0.1007
13416TIP3    H161663   5.242   2.228  17.174 -2.0278  0.8594  1.0418
13416TIP3    H261664   5.210   2.370  17.135  1.1935  1.3100 -0.2655
13417TIP3   OH261665   4.803   4.547   5.502  0.0948 -0.3296 -0.1719
13417TIP3    H161666   4.804   4.636   5.466  0.8279 -0.1280  0.3278
13417TIP3    H261667   4.720   4.510   5.471  0.1309  0.2596 -1.0206
13418TIP3   OH261668   4.548   1.787   4.835 -0.4102  0.2360 -0.1690
13418TIP3    H161669   4.595   1.868   4.820  1.4543 -0.6305  0.6984
13418TIP3    H261670   4.506   1.768   4.751  1.6419  0.5611 -1.3363
13419TIP3   OH261671   2.317   6.309   6.423  0.1640  0.1058  0.0464
13419TIP3    H161672   2.290   6.285   6.511  0.9252  1.6263  0.7325
13419TIP3    H261673   2.244   6.358   6.387 -1.9964 -3.9920 -1.8831
13420TIP3   OH261674   2.409   6.671  11.176  0.5785 -0.8004 -0.3754
13420TIP3    H161675   2.407   6.707  11.264  0.5141 -1.6032 -0.0365
13420TIP3    H261676   2.454   6.737  11.123 -0.3757  0.1896  0.0197
13421TIP3   OH261677   2.823   3.653   0.380 -0.1246  0.2462  0.1957
13421TIP3    H161678   2.792   3.742   0.392  2.1556  1.2131 -0.5806
13421TIP3    H261679   2.875   3.635   0.459  1.2537  0.4798 -0.6271
13422TIP3   OH261680   2.518   1.768   0.522  0.3818 -0.5811 -0.2611
13422TIP3    H161681   2.476   1.685   0.547 -0.0565 -0.2647  0.0837
13422TIP3    H261682   2.445   1.830   0.515  0.7176 -0.1979 -0.4005
13423TIP3   OH261683   3.563   5.029  11.755  0.0939 -0.7991  0.2781
13423TIP3    H161684   3.637   5.056  11.701 -0.2858  1.4970  0.7890
13423TIP3    H261685   3.597   5.031  11.844 -0.8443  1.7547  0.6801
13424TIP3   OH261686   5.563   5.067   0.397 -0.5991  0.1904  0.4917
13424TIP3    H161687   5.557   5.116   0.316 -0.5827 -1.3675 -0.4833
13424TIP3    H261688   5.538   5.130   0.465 -0.1090  1.6591 -0.6409
13425TIP3   OH261689   3.798   5.470  11.338  0.3044 -0.6163  0.1553
13425TIP3    H161690   3.742   5.392  11.330 -1.4682  0.3047  2.3815
13425TIP3    H261691   3.739   5.543  11.318  1.2987  0.2771  0.4551
13426TIP3   OH261692   4.803   1.062  12.792  0.0164 -0.1138  0.3607
13426TIP3    H161693   4.818   0.979  12.748 -0.1102  1.2630 -2.5504
13426TIP3    H261694   4.855   1.058  12.872 -0.5644 -3.2059  0.6996
13427TIP3   OH261695   3.717   3.917   4.995  0.3578 -0.3127 -0.2770
13427TIP3    H161696   3.736   3.957   5.080  1.5470 -1.6829  0.1630
13427TIP3    H261697   3.772   3.838   4.994  0.9490  0.0552 -2.6350
13428TIP3   OH261698   4.973   6.573   3.493 -0.0196 -1.0673 -0.0448
13428TIP3    H161699   4.952   6.527   3.574  0.7134  1.1183  1.4545
13428TIP3    H261700   4.908   6.541   3.430 -0.4825 -2.9661  1.3028
13429TIP3   OH261701   2.108   2.953   2.316 -0.2015 -0.2310 -0.3413
13429TIP3    H161702   2.191   2.986   2.281 -0.3547  2.0137  1.1940
13429TIP3    H261703   2.126   2.863   2.342  1.6713  0.1325 -0.2940
13430TIP3   OH261704   3.463   1.660  15.829  0.0381 -0.4008  0.5457
13430TIP3    H161705   3.441   1.613  15.749  3.2087 -0.1748 -0.6030
13430TIP3    H261706   3.389   1.721  15.842 -1.0841 -1.2004 -1.5511
13431TIP3   OH261707   2.490   3.977  10.752  0.2852  1.0420 -0.6411
13431TIP3    H161708   2.420   3.914  10.738  0.2657  1.4365 -2.6321
13431TIP3    H261709   2.463   4.026  10.830  0.5985 -1.6881  1.3341
13432TIP3   OH261710   5.233   1.126  16.290 -0.3223 -0.0981  0.2455
13432TIP3    H161711   5.255   1.216  16.314  1.1729  0.0118 -1.2995
13432TIP3    H261712   5.318   1.084  16.272 -1.0196 -1.6660  0.4183
13433TIP3   OH261713   5.620   3.599   3.207  0.1699  0.2166  0.4498
13433TIP3    H161714   5.630   3.504   3.212 -1.6205 -0.0182  0.3216
13433TIP3    H261715   5.578   3.623   3.289  1.2033  0.9959  0.7561
13434TIP3   OH261716   5.337   0.766  15.500  0.5487  0.6584  0.9339
13434TIP3    H161717   5.298   0.839  15.451 -2.6750 -1.7033 -0.3154
13434TIP3    H261718   5.283   0.759  15.579 -1.2754 -2.1597 -0.4225
13435TIP3   OH261719   6.775   2.725  10.528 -0.7488 -0.2221 -0.0981
13435TIP3    H161720   6.841   2.793  10.525 -0.3035 -0.6641 -1.6156
13435TIP3    H261721   6.691   2.771  10.521 -0.6666  0.3695  2.2717
13436TIP3   OH261722   4.835   3.471   2.221  0.7477  0.0959  0.5372
13436TIP3    H161723   4.770   3.402   2.232 -0.2491  0.9978  0.4353
13436TIP3    H261724   4.900   3.433   2.161  0.1100 -0.6829  0.3239
13437TIP3   OH261725   0.234   5.431  12.840 -0.2178  0.0699  0.4437
13437TIP3    H161726   0.155   5.397  12.799 -0.1359 -0.1382  0.4575
13437TIP3    H261727   0.221   5.526  12.842  0.8685  0.3822 -2.4191
13438TIP3   OH261728   3.779   1.756  14.432 -0.3158  0.1759  0.5732
13438TIP3    H161729   3.718   1.765  14.504  0.8963  1.8616  1.4495
13438TIP3    H261730   3.810   1.665  14.438 -1.2347 -0.1037  1.3030
13439TIP3   OH261731   4.972   1.619   5.070 -0.3263 -0.3798  0.2029
13439TIP3    H161732   4.880   1.621   5.094 -0.1792 -2.3474  1.1893
13439TIP3    H261733   4.980   1.543   5.012  0.7429 -0.5917  0.5981
13440TIP3   OH261734   0.131   2.023   4.499 -0.5566 -0.5549  0.5235
13440TIP3    H161735   0.076   2.069   4.436  0.4585 -0.1671 -0.1091
13440TIP3    H261736   0.167   1.949   4.450  0.1930 -0.2829  0.6493
13441TIP3   OH261737   5.119   5.411  16.509  0.0282  0.4874 -0.4582
13441TIP3    H161738   5.172   5.488  16.528 -0.1995  0.6482 -0.4681
13441TIP3    H261739   5.173   5.359  16.450  1.8174 -1.2008  2.3841
13442TIP3   OH261740   2.988   6.201  15.453  0.4325  0.2942 -0.5633
13442TIP3    H161741   2.972   6.109  15.431 -0.7952  0.5371 -0.7915
13442TIP3    H261742   3.083   6.209  15.456  0.5596 -0.9340 -0.7540
13443TIP3   OH261743   5.393   0.958   4.651  0.0123  0.9848  0.1722
13443TIP3    H161744   5.353   0.897   4.589 -0.3736 -0.0247  1.3929
13443TIP3    H261745   5.410   0.907   4.730 -0.1682  2.4009  1.1796
13444TIP3   OH261746   0.454   5.041  11.924  0.5635 -0.4558 -0.8584
13444TIP3    H161747   0.476   4.961  11.876  1.1603 -0.7802 -0.0625
13444TIP3    H261748   0.488   5.026  12.012 -3.1189 -1.1834  0.6546
13445TIP3   OH261749   3.089   2.362   4.134  0.3178 -0.3618  0.3846
13445TIP3    H161750   3.094   2.458   4.141 -0.6056 -0.2589 -0.1734
13445TIP3    H261751   3.148   2.341   4.061  0.2947 -0.1837  0.3126
13446TIP3   OH261752   1.035   4.989  10.538 -0.4760  0.3414 -0.1759
13446TIP3    H161753   0.940   4.989  10.525 -0.5644  0.3586  0.4314
13446TIP3    H261754   1.066   4.914  10.488 -1.2709 -2.0547  2.6302
13447TIP3   OH261755   6.619   6.499   4.801 -0.4020  0.3190  0.2359
13447TIP3    H161756   6.685   6.509   4.733 -0.8753  0.5213 -0.2081
13447TIP3    H261757   6.552   6.564   4.778 -1.4476 -0.8590 -0.1729
13448TIP3   OH261758   6.720   2.116  14.921 -0.5297 -0.3416  0.0330
13448TIP3    H161759   6.795   2.109  14.980  1.0718  0.1892 -1.8210
13448TIP3    H261760   6.687   2.205  14.934  1.1817  0.5529 -1.3220
13449TIP3   OH261761   5.041   4.950  11.220  0.4637  0.1792 -0.3713
13449TIP3    H161762   5.021   4.862  11.253  0.3435  0.1075 -0.6340
13449TIP3    H261763   4.958   4.981  11.184  0.6582  0.1503 -0.8547
13450TIP3   OH261764   6.217   2.969   1.193 -0.0109  0.1495 -0.4724
13450TIP3    H161765   6.195   3.013   1.111  0.0840 -0.2647 -0.7217
13450TIP3    H261766   6.311   2.950   1.186 -0.4075 -1.7778 -1.1870
13451TIP3   OH261767   2.229   5.338   4.447  0.3687  0.3194 -0.0037
13451TIP3    H161768   2.241   5.243   4.455  0.8573  0.4060  0.2866
13451TIP3    H261769   2.303   5.376   4.494  0.4051  0.8495 -0.4819
13452TIP3   OH261770   4.795   4.733  16.621  0.3015 -0.2253 -0.1444
13452TIP3    H161771   4.699   4.732  16.627  0.3548 -0.4174  0.9134
13452TIP3    H261772   4.813   4.761  16.532 -0.7532 -2.4734 -1.1412
13453TIP3   OH261773   1.038   1.317   3.426 -0.0234  0.3322  0.1617
13453TIP3    H161774   1.051   1.232   3.384  0.8294  0.3279  0.4166
13453TIP3    H261775   1.125   1.356   3.430 -0.2834  0.8752  0.7883
13454TIP3   OH261776   1.005   1.349  13.782  0.7197  0.4131 -0.2216
13454TIP3    H161777   0.913   1.345  13.808  1.0784 -0.0486  1.0658
13454TIP3    H261778   1.048   1.394  13.854  1.4623  0.9150 -0.9667
13455TIP3   OH261779   4.913   5.058   6.203 -0.6378  0.5391 -0.1750
13455TIP3    H161780   4.880   5.082   6.289 -1.0914  0.9987 -0.4697
13455TIP3    H261781   4.996   5.105   6.195 -1.2105  1.5354 -0.4890
13456TIP3   OH261782   3.645   4.683   2.542 -0.5020 -0.5964 -0.0568
13456TIP3    H161783   3.665   4.634   2.462 -0.7689  0.2905 -0.6861
13456TIP3    H261784   3.668   4.623   2.613  1.1365 -0.8809 -0.7727
13457TIP3   OH261785   2.197   1.786  14.554  1.0636  0.4064  0.0052
13457TIP3    H161786   2.292   1.791  14.564  1.0938 -1.5295  1.2674
13457TIP3    H261787   2.169   1.725  14.623 -0.9733  0.1247 -0.9981
13458TIP3   OH261788   3.964   4.251   4.607 -0.0590 -0.1245 -0.5119
13458TIP3    H161789   4.057   4.272   4.610  0.0734 -0.7220 -0.4426
13458TIP3    H261790   3.933   4.296   4.528 -0.0058  1.1955  0.1793
13459TIP3   OH261791   3.135   2.971  17.007 -0.0619  0.1848 -0.2934
13459TIP3    H161792   3.188   2.944  16.932 -0.6775 -1.5272 -0.1554
13459TIP3    H261793   3.045   2.957  16.979 -0.2879 -1.5335  1.0834
13460TIP3   OH261794   1.565   4.643  13.933 -0.4306  0.2741  0.2934
13460TIP3    H161795   1.549   4.683  14.019 -0.4724  3.5114 -1.0604
13460TIP3    H261796   1.651   4.602  13.941 -1.3810 -1.4448  2.4539
13461TIP3   OH261797   2.425   5.937  12.506 -0.0640 -0.0039  0.0756
13461TIP3    H161798   2.451   5.849  12.476  0.8205 -0.2862  1.5307
13461TIP3    H261799   2.337   5.925  12.541  0.8979 -0.9203  2.4219
13462TIP3   OH261800   0.152   6.670   2.831 -0.2557 -0.3974  0.1476
13462TIP3    H161801   0.136   6.742   2.770 -1.0500  0.0744  0.8841
13462TIP3    H261802   0.241   6.639   2.810  0.4371  1.3333  0.3393
13463TIP3   OH261803   3.042   0.185   6.130 -0.0858 -0.7510  0.0340
13463TIP3    H161804   3.035   0.167   6.036 -0.0155  1.6246 -0.4973
13463TIP3    H261805   3.105   0.257   6.135  0.3816 -1.2558  1.9821
13464TIP3   OH261806   1.843   1.775   0.943  0.4604 -0.5364 -0.2498
13464TIP3    H161807   1.774   1.712   0.964 -0.3285  0.0305 -1.0705
13464TIP3    H261808   1.850   1.830   1.021 -0.2027 -0.4415 -0.2496
13465TIP3   OH261809   4.998   0.645  12.161  0.4098  0.2243 -0.4462
13465TIP3    H161810   5.053   0.682  12.092  1.2342  0.4046  0.2906
13465TIP3    H261811   5.034   0.558  12.177 -0.1317 -0.0380 -0.6265
13466TIP3   OH261812   4.990   0.276   4.850 -0.1431  0.5263  0.0081
13466TIP3    H161813   4.907   0.235   4.874 -1.1556  2.5843  0.1584
13466TIP3    H261814   5.030   0.299   4.934 -0.1985  1.0164 -0.0972
13467TIP3   OH261815   5.391   6.125   1.584  0.0435  0.4804  0.2757
13467TIP3    H161816   5.307   6.169   1.573  0.4314  0.9401 -0.9796
13467TIP3    H261817   5.451   6.171   1.525  1.7876  1.6569  2.7751
13468TIP3   OH261818   6.670   4.130  16.934 -0.0261 -0.2784  0.4014
13468TIP3    H161819   6.751   4.080  16.937  0.2010  0.0557 -0.0523
13468TIP3    H261820   6.601   4.066  16.947  0.2819 -0.6422  0.2416
13469TIP3   OH261821   6.603   0.613   3.341  0.0339  0.2144 -0.7414
13469TIP3    H161822   6.604   0.708   3.351  0.6872  0.3042 -1.4785
13469TIP3    H261823   6.600   0.579   3.430 -1.0222  0.9224 -0.4925
13470TIP3   OH261824   0.507   5.143   0.943 -0.3808 -0.6368  0.1296
13470TIP3    H161825   0.484   5.158   0.851 -1.1539  0.2004  0.4455
13470TIP3    H261826   0.522   5.230   0.978 -2.3275 -0.7507  1.3606
13471TIP3   OH261827   0.453   4.464  11.811  0.1087 -0.3930 -0.0701
13471TIP3    H161828   0.488   4.414  11.884 -1.0980 -0.3881  0.5402
13471TIP3    H261829   0.406   4.399  11.758  0.5173 -0.3019 -0.5504
13472TIP3   OH261830   6.270   0.976  14.333  0.3269 -0.3281 -0.4452
13472TIP3    H161831   6.272   0.935  14.246  1.7136  0.0549 -0.6168
13472TIP3    H261832   6.360   0.973  14.363 -0.0709 -0.1085  0.8392
13473TIP3   OH261833   5.856   6.691   4.880  0.5940 -0.2470  0.1576
13473TIP3    H161834   5.769   6.696   4.841  0.7085 -0.0248 -0.0774
13473TIP3    H261835   5.879   6.782   4.899  0.6009 -0.3430  0.6100
13474TIP3   OH261836   0.258   3.804  14.545  0.1290 -0.2151  0.2569
13474TIP3    H161837   0.331   3.849  14.587  1.0002 -0.3432 -1.0360
13474TIP3    H261838   0.263   3.831  14.453  0.1847 -2.2895 -0.4080
13475TIP3   OH261839   3.750   3.961  16.235  0.4886 -0.7183  0.0314
13475TIP3    H161840   3.751   3.995  16.324 -0.0189 -2.8641  0.9128
13475TIP3    H261841   3.669   3.996  16.197  1.1304  0.9102  0.0496
13476TIP3   OH261842   2.409   1.179  13.661  0.6296  0.3671 -0.0495
13476TIP3    H161843   2.429   1.250  13.722 -0.3723  1.3535 -0.8282
13476TIP3    H261844   2.491   1.131  13.652  1.3791  1.5321  0.3572
13477TIP3   OH261845   0.435   3.694  10.498 -0.6121 -0.0514  0.2580
13477TIP3    H161846   0.514   3.748  10.499 -0.7936  0.2106  0.4914
13477TIP3    H261847   0.467   3.604  10.491 -0.3159  0.1104 -0.6017
13478TIP3   OH261848   0.873   4.893  12.322  0.1767 -0.2738  0.4155
13478TIP3    H161849   0.872   4.906  12.227 -0.1268 -0.5915  0.3683
13478TIP3    H261850   0.862   4.798  12.332  1.9970 -0.4913  0.7334
13479TIP3   OH261851   4.034   1.176  16.655  0.4365 -0.5575  0.3772
13479TIP3    H161852   4.125   1.162  16.678  0.2067  1.1404  2.6071
13479TIP3    H261853   4.037   1.237  16.581  1.0749 -1.4190 -0.3416
13480TIP3   OH261854   6.517   4.376   2.636  0.0661 -0.3883 -0.5616
13480TIP3    H161855   6.427   4.384   2.603 -0.4759  3.6699  1.3226
13480TIP3    H261856   6.563   4.450   2.597  1.7037 -0.4706  1.1010
13481TIP3   OH261857   4.864   0.982   6.580  0.2400  0.3833 -0.1008
13481TIP3    H161858   4.825   0.897   6.601  1.4646 -0.1459  0.1277
13481TIP3    H261859   4.806   1.046   6.621 -1.4274 -0.2439 -1.3554
13482TIP3   OH261860   0.032   0.829   2.857  0.2761  0.0599 -0.5001
13482TIP3    H161861   0.046   0.870   2.771  1.7030 -1.6394 -1.1407
13482TIP3    H261862  -0.023   0.753   2.839  0.2230 -0.0661  0.1621
13483TIP3   OH261863   2.561   4.599   2.145 -0.2773 -0.2480  0.1135
13483TIP3    H161864   2.566   4.506   2.123 -0.1234 -0.6836  1.8599
13483TIP3    H261865   2.470   4.614   2.168 -0.2565 -0.0063  0.0437
13484TIP3   OH261866   0.176   2.131  15.776 -0.1545 -0.3746 -0.0539
13484TIP3    H161867   0.182   2.035  15.777  0.1779 -0.3578 -0.3576
13484TIP3    H261868   0.241   2.159  15.712 -0.7300  0.0232 -0.4692
13485TIP3   OH261869   4.706   2.025   4.115  0.5811 -0.1154  0.0592
13485TIP3    H161870   4.736   1.950   4.165  0.2146 -1.1244 -1.1952
13485TIP3    H261871   4.784   2.081   4.106  0.5965  0.2184  1.9110
13486TIP3   OH261872   6.122   4.842   2.832  0.1435  0.4570 -0.4461
13486TIP3    H161873   6.181   4.838   2.757 -1.5336  0.0211 -1.7992
13486TIP3    H261874   6.078   4.927   2.823 -1.7226 -0.5613 -1.2982
13487TIP3   OH261875   4.023   4.308  13.399 -0.1996  0.1850  0.6454
13487TIP3    H161876   4.049   4.220  13.425 -0.9880 -0.6251 -1.1750
13487TIP3    H261877   4.088   4.334  13.334 -0.9357  0.2309 -0.0932
13488TIP3   OH261878   2.433   4.717   2.916  0.1151  0.1395 -0.0090
13488TIP3    H161879   2.450   4.629   2.882 -0.3366  0.3283 -0.7685
13488TIP3    H261880   2.480   4.775   2.856 -1.5973  0.5504 -1.0265
13489TIP3   OH261881   0.185   2.443  16.852 -0.3102  0.1338 -0.0789
13489TIP3    H161882   0.228   2.393  16.782 -0.0721 -1.4903  1.1718
13489TIP3    H261883   0.187   2.533  16.821  0.5035 -0.4239 -1.8087
13490TIP3   OH261884   5.629   3.841  16.698  0.1127  0.3547 -0.3233
13490TIP3    H161885   5.602   3.770  16.756  0.2331 -0.9469 -1.7692
13490TIP3    H261886   5.573   3.915  16.722 -0.1570 -0.2846  1.0945
13491TIP3   OH261887   2.540   2.352  13.732  0.6176 -1.0146 -0.2250
13491TIP3    H161888   2.476   2.330  13.665  0.8076 -2.8680  0.1472
13491TIP3    H261889   2.494   2.340  13.815  0.6853  0.2842  0.0325
13492TIP3   OH261890   6.614   5.265  13.602 -0.2182  0.0947 -0.9323
13492TIP3    H161891   6.557   5.248  13.676 -1.4284 -2.3948 -2.2984
13492TIP3    H261892   6.702   5.247  13.634 -0.5297  0.6895  0.3061
13493TIP3   OH261893   0.873   5.277  14.426 -0.1270  0.7097 -1.0572
13493TIP3    H161894   0.796   5.275  14.369  0.2179 -0.5509 -1.5215
13493TIP3    H261895   0.879   5.188  14.461 -1.0666  1.7540  2.0376
13494TIP3   OH261896   0.101   0.661   3.337 -0.1219  0.3101  0.7986
13494TIP3    H161897   0.134   0.624   3.255 -1.2461 -0.0342  0.4767
13494TIP3    H261898   0.007   0.673   3.321 -0.1247  1.4953  1.5782
13495TIP3   OH261899   0.960   1.305  11.808  0.1857  0.7306 -0.0375
13495TIP3    H161900   0.892   1.334  11.869 -1.2755 -0.0762 -1.1988
13495TIP3    H261901   1.033   1.366  11.821 -0.9568  1.9505  0.8770
13496TIP3   OH261902   5.700   3.594  16.847  0.0631  0.5917  0.0606
13496TIP3    H161903   5.636   3.537  16.803  0.4310  1.0950 -1.1909
13496TIP3    H261904   5.661   3.612  16.932 -0.7441 -0.3400 -0.0909
13497TIP3   OH261905   4.340   4.459   6.201  0.4028  0.2879  0.4603
13497TIP3    H161906   4.299   4.545   6.184 -1.9148 -0.4761  1.7221
13497TIP3    H261907   4.267   4.398   6.199  2.3179 -2.2911 -3.6354
13498TIP3   OH261908   0.208   5.699   4.800  0.1592  0.7530  0.2028
13498TIP3    H161909   0.293   5.714   4.760  0.2025  0.6240  0.2452
13498TIP3    H261910   0.200   5.768   4.866  1.4897 -0.8783  2.2098
13499TIP3   OH261911   0.412   6.426   4.866 -0.0631 -0.3576 -0.3396
13499TIP3    H161912   0.431   6.359   4.800  1.3035 -0.7624  0.4324
13499TIP3    H261913   0.456   6.504   4.834  2.0727 -0.9838  0.8500
13500TIP3   OH261914   5.714   1.409   1.013  0.1900 -0.1604  0.3681
13500TIP3    H161915   5.806   1.388   0.997 -0.3357 -0.9582 -1.9143
13500TIP3    H261916   5.699   1.488   0.961 -0.6601 -0.6368 -0.1200
13501TIP3   OH261917   2.782   0.746  11.657 -0.9217 -0.0377  0.0756
13501TIP3    H161918   2.809   0.832  11.689  0.6426 -0.2357 -0.5889
13501TIP3    H261919   2.687   0.750  11.653 -0.8345  2.0362 -0.9338
13502TIP3   OH261920   3.544   3.346  14.103 -0.2566 -0.0159 -0.1057
13502TIP3    H161921   3.560   3.380  14.192 -1.4010 -1.1494  0.5634
13502TIP3    H261922   3.627   3.361  14.058  0.8259 -0.6229  1.5618
13503TIP3   OH261923   5.953   5.471  15.242 -0.0834 -0.5582 -0.1589
13503TIP3    H161924   5.920   5.509  15.324  0.9026  1.1574 -0.4892
13503TIP3    H261925   5.907   5.519  15.173  1.8246  0.7515 -0.6024
13504TIP3   OH261926   1.737   2.430   2.352  0.4865 -0.1367  0.1190
13504TIP3    H161927   1.784   2.503   2.312  0.0441  0.1426  0.0941
13504TIP3    H261928   1.777   2.419   2.438 -2.2141  3.0632  2.0469
13505TIP3   OH261929   4.482   4.819   4.070 -0.2553 -0.2900 -0.6854
13505TIP3    H161930   4.458   4.909   4.049 -0.7299 -0.2220  0.0995
13505TIP3    H261931   4.398   4.772   4.074 -0.2720 -0.1956  1.4151
13506TIP3   OH261932   1.446   3.581  10.611 -0.1601 -0.6435  0.0571
13506TIP3    H161933   1.469   3.670  10.585 -0.9546 -0.1813  0.8764
13506TIP3    H261934   1.525   3.546  10.651  0.0164 -0.1303  0.1646
13507TIP3   OH261935   5.074   0.082   5.453 -0.1988 -1.0722  0.2766
13507TIP3    H161936   5.014   0.039   5.514  0.2167 -2.1824 -0.0845
13507TIP3    H261937   5.042   0.173   5.450 -1.6964 -1.5637  0.2904
13508TIP3   OH261938   1.526   6.560  17.092  0.2145 -0.0652  0.1259
13508TIP3    H161939   1.529   6.589  17.001  0.3860 -1.1214 -0.2165
13508TIP3    H261940   1.434   6.536  17.106 -0.0434  1.1192  0.5735
13509TIP3   OH261941   6.250   3.133   4.852 -0.1934 -0.3479 -0.0203
13509TIP3    H161942   6.250   3.150   4.757  0.7778 -2.2403 -0.3905
13509TIP3    H261943   6.244   3.220   4.891 -0.6145  0.4800 -1.8083
13510TIP3   OH261944   1.378   2.482   1.065  0.6039  0.5107 -0.3510
13510TIP3    H161945   1.440   2.463   0.995  0.0581 -0.4544 -0.6064
13510TIP3    H261946   1.319   2.547   1.028  0.7321  0.5157 -0.5470
13511TIP3   OH261947   0.432   5.184   2.945 -0.2755 -0.0040  0.2719
13511TIP3    H161948   0.359   5.180   2.883 -3.4416  0.7281  3.6046
13511TIP3    H261949   0.404   5.248   3.011  2.8933 -0.5858  2.4045
13512TIP3   OH261950   4.315   0.657   1.663 -0.3134 -0.1396 -0.3052
13512TIP3    H161951   4.283   0.595   1.728  1.9107  0.5722  1.5706
13512TIP3    H261952   4.344   0.602   1.590 -0.1533 -1.1723  0.5163
13513TIP3   OH261953   5.865   3.328  16.559  0.2599 -0.1717 -0.1793
13513TIP3    H161954   5.862   3.424  16.558 -0.9110 -0.1929 -0.0822
13513TIP3    H261955   5.773   3.301  16.557  0.5425 -1.2841  0.7936
13514TIP3   OH261956   5.201   0.912   2.741  0.0759 -0.0566 -0.1875
13514TIP3    H161957   5.137   0.982   2.758  1.8517  1.3303  1.2566
13514TIP3    H261958   5.274   0.958   2.699  2.1639 -0.5519  2.6584
13515TIP3   OH261959   2.008   1.378  14.350 -0.3020  0.1352 -0.2775
13515TIP3    H161960   2.047   1.381  14.263  0.1801  2.5266 -0.0532
13515TIP3    H261961   2.056   1.310  14.396 -0.1111 -0.7032 -1.6457
13516TIP3   OH261962   4.228   5.649  13.676  0.3230 -0.5711 -0.1162
13516TIP3    H161963   4.181   5.724  13.712 -1.4666 -1.3644 -0.6688
13516TIP3    H261964   4.307   5.642  13.730 -0.3907  0.5783  1.1508
13517TIP3   OH261965   5.803   1.605  16.209  0.7280  0.0045  0.3417
13517TIP3    H161966   5.896   1.611  16.186  0.6451  2.4450  0.3859
13517TIP3    H261967   5.767   1.691  16.188 -1.4265 -0.7049  0.8459
13518TIP3   OH261968   2.911   2.628  15.022  0.2621 -0.4196  0.2957
13518TIP3    H161969   2.995   2.669  15.005 -0.0223  0.7860  1.5954
13518TIP3    H261970   2.886   2.660  15.109 -0.2679 -2.8666  1.1313
13519TIP3   OH261971   2.093   4.023  16.195 -0.0490  0.6903  0.6157
13519TIP3    H161972   2.165   4.072  16.235  1.4087 -0.9304  0.0758
13519TIP3    H261973   2.110   4.026  16.101  0.3725 -1.2344  0.5955
13520TIP3   OH261974   1.936   5.783  12.769  0.1883 -0.3726 -0.0278
13520TIP3    H161975   1.865   5.739  12.722 -0.0594  0.4561 -0.4534
13520TIP3    H261976   1.893   5.856  12.815  0.6127 -0.4676  0.5373
13521TIP3   OH261977   4.763   4.717  11.696 -0.4612 -0.1147 -0.0509
13521TIP3    H161978   4.714   4.732  11.776  0.4076  3.3087 -0.0002
13521TIP3    H261979   4.700   4.731  11.625 -0.5238 -0.0175  0.0242
13522TIP3   OH261980   1.112   2.990  14.690 -0.1972 -0.4346 -0.1995
13522TIP3    H161981   1.164   2.994  14.770 -0.6664 -0.6963  0.1252
13522TIP3    H261982   1.144   3.063  14.637  0.2465 -0.3732  0.1439
13523TIP3   OH261983   3.914   6.624  13.628  0.0199  0.0403 -0.3128
13523TIP3    H161984   3.974   6.631  13.553  0.0998 -1.6891 -0.4416
13523TIP3    H261985   3.827   6.643  13.590  0.4067  2.4912 -0.1361
13524TIP3   OH261986   0.871   2.566  14.840 -0.0542 -0.1919 -0.3008
13524TIP3    H161987   0.936   2.575  14.910 -1.7537  0.0552  1.3397
13524TIP3    H261988   0.877   2.648  14.791  0.9428 -0.2233 -0.2558
13525TIP3   OH261989   0.400   3.014  16.960 -0.5145  0.1736  0.4096
13525TIP3    H161990   0.399   3.016  17.056  1.3489  1.6352  0.4635
13525TIP3    H261991   0.338   3.083  16.935  0.0030  0.7196  0.6068
13526TIP3   OH261992   1.737   5.319   4.557  0.2654  0.5646 -0.0783
13526TIP3    H161993   1.804   5.286   4.616  0.2560 -0.7332 -0.7678
13526TIP3    H261994   1.722   5.409   4.587  1.4040  0.4720  0.8653
13527TIP3   OH261995   4.371   5.817  11.733 -0.5929  0.2299  0.6270
13527TIP3    H161996   4.428   5.744  11.757 -2.0957 -1.3336 -0.3515
13527TIP3    H261997   4.289   5.800  11.780 -1.1233  1.0507  0.0269
13528TIP3   OH261998   5.209   1.710  13.048  0.3656 -0.2429 -0.0468
13528TIP3    H161999   5.123   1.703  13.005  0.1793  2.1348 -0.1696
13528TIP3    H262000   5.188   1.739  13.137  1.0697  0.8901 -0.2470
13529TIP3   OH262001   2.943   1.621  16.930  0.2098  0.2215  0.0444
13529TIP3    H162002   3.014   1.572  16.887 -0.3717  0.6048 -1.4119
13529TIP3    H262003   2.879   1.636  16.860 -0.6445  1.1350  1.0006
13530TIP3   OH262004   3.743   4.561  13.887  0.2643 -0.9945  0.4255
13530TIP3    H162005   3.740   4.526  13.976  1.7237 -1.1700  0.4145
13530TIP3    H262006   3.835   4.577  13.870  0.0512 -1.3917 -1.2419
13531TIP3   OH262007   1.264   0.930   1.415 -0.6288  0.7800  0.1278
13531TIP3    H162008   1.338   0.955   1.360 -0.3683 -1.7576 -0.7916
13531TIP3    H262009   1.303   0.914   1.501 -0.6051  2.2078  0.3969
13532TIP3   OH262010   5.684   3.860   2.074 -0.3552 -0.0898 -0.5358
13532TIP3    H162011   5.687   3.807   2.154 -0.8528  0.7129  0.0281
13532TIP3    H262012   5.596   3.897   2.074  0.1934  1.2560 -0.5690
13533TIP3   OH262013   2.647   4.316   1.771 -0.0028 -0.9209 -0.0118
13533TIP3    H162014   2.563   4.272   1.766 -1.0024  0.9202 -0.4567
13533TIP3    H262015   2.645   4.381   1.701  2.0173 -1.1595 -0.3757
13534TIP3   OH262016   4.660   1.059  13.329  0.5107 -0.0386  0.5868
13534TIP3    H162017   4.654   1.155  13.334 -2.4419 -0.1482  0.6607
13534TIP3    H262018   4.609   1.028  13.404 -2.1298 -1.6317 -1.7058
13535TIP3   OH262019   2.697   2.539  14.649  0.4725 -0.0166  0.3870
13535TIP3    H162020   2.635   2.608  14.626 -0.3768 -0.3894  1.4929
13535TIP3    H262021   2.646   2.475  14.699  1.9171  0.1058  2.1467
13536TIP3   OH262022   0.801   3.619   1.891  0.5887  0.0325 -0.3397
13536TIP3    H162023   0.731   3.682   1.905 -1.4429 -2.2312  0.3872
13536TIP3    H262024   0.820   3.584   1.978  1.1438 -0.8766 -0.8111
13537TIP3   OH262025   6.214   2.774   4.850 -0.1478  0.3131 -0.0783
13537TIP3    H162026   6.175   2.774   4.938 -0.3229  1.1065 -0.1503
13537TIP3    H262027   6.291   2.830   4.858 -0.9096  1.5129 -0.7362
13538TIP3   OH262028   2.767   4.821  12.732  0.2138  0.6557  0.4858
13538TIP3    H162029   2.679   4.819  12.695  0.4403 -1.5022 -0.0707
13538TIP3    H262030   2.771   4.746  12.791  1.7921  0.4847  0.2166
13539TIP3   OH262031   1.800   4.188   1.314 -0.2128  0.5637  0.4094
13539TIP3    H162032   1.793   4.094   1.334 -0.0052  0.3268 -0.5513
13539TIP3    H262033   1.820   4.190   1.220  0.0643  1.5673  0.4842
13540TIP3   OH262034   2.797   1.531  11.043 -0.0779  0.4723 -0.1188
13540TIP3    H162035   2.771   1.537  10.952  1.0156 -0.6812 -0.5392
13540TIP3    H262036   2.862   1.600  11.054  1.3600 -0.7228 -0.8197
13541TIP3   OH262037   2.293   2.481  16.164 -0.1598  0.2613 -0.3190
13541TIP3    H162038   2.219   2.473  16.225 -0.4064  0.3324 -0.6068
13541TIP3    H262039   2.334   2.565  16.188  0.0245  0.0706  0.0526
13542TIP3   OH262040   0.483   5.785  14.439  0.2666 -0.3077  0.2148
13542TIP3    H162041   0.574   5.760  14.451  0.5128 -0.7448 -2.0329
13542TIP3    H262042   0.433   5.707  14.462  0.5679 -0.5239  0.1341
13543TIP3   OH262043   0.208   3.634  13.678  0.1754  0.0137  0.4030
13543TIP3    H162044   0.282   3.644  13.618 -0.4727 -0.4701 -0.5075
13543TIP3    H262045   0.141   3.589  13.626 -0.2991 -0.7064  1.5820
13544TIP3   OH262046   2.444   4.387  16.970  0.7430  0.1923  0.3686
13544TIP3    H162047   2.399   4.361  16.890  0.3051  1.7571  0.0757
13544TIP3    H262048   2.375   4.418  17.028  1.2762  1.1071  0.5249
13545TIP3   OH262049   5.146   6.602   2.133 -0.2658  0.1831 -0.2972
13545TIP3    H162050   5.137   6.545   2.209  0.9200  0.5559  0.1274
13545TIP3    H262051   5.239   6.599   2.111 -0.6535 -0.3113 -2.0511
13546TIP3   OH262052   5.900   3.379   3.549 -0.4010 -0.2821  0.7719
13546TIP3    H162053   5.863   3.465   3.533  0.2536  0.2516  1.9665
13546TIP3    H262054   5.929   3.348   3.463  1.4474  1.6877  0.6010
13547TIP3   OH262055   5.591   1.861   4.863 -0.1322 -0.4296  0.1611
13547TIP3    H162056   5.550   1.809   4.931  1.7103 -0.5596  1.2358
13547TIP3    H262057   5.681   1.829   4.859  0.5350  1.3883 -0.4744
13548TIP3   OH262058   4.927   3.970   3.683 -0.7893 -0.1597  0.1447
13548TIP3    H162059   4.834   3.993   3.691 -0.7004  0.8382 -1.3117
13548TIP3    H262060   4.972   4.032   3.741 -0.7982  1.5694 -1.6002
13549TIP3   OH262061   5.195   1.817  11.771  0.1778  0.2539 -0.2432
13549TIP3    H162062   5.228   1.877  11.704 -2.8060  1.1038 -1.1267
13549TIP3    H262063   5.215   1.730  11.738 -0.0557  0.6900 -1.5842
13550TIP3   OH262064   1.851   6.494   3.059 -0.2545 -0.1808  0.6540
13550TIP3    H162065   1.826   6.435   2.989 -0.3049  1.1034 -0.4653
13550TIP3    H262066   1.905   6.442   3.118 -0.0208 -1.2325 -0.4695
13551TIP3   OH262067   2.841   0.288   3.136  0.1488  0.0590 -0.3684
13551TIP3    H162068   2.765   0.308   3.191  0.4407  0.6629 -0.1702
13551TIP3    H262069   2.876   0.207   3.171  2.1981  1.9906  2.4258
13552TIP3   OH262070   3.949   1.370  11.026  0.0429 -0.2067 -0.2498
13552TIP3    H162071   3.955   1.276  11.039 -0.9753 -0.2288  0.0906
13552TIP3    H262072   3.874   1.383  10.969 -0.0466  0.4244 -0.0021
13553TIP3   OH262073   3.512   5.407  14.913 -0.3136  0.7188  0.3334
13553TIP3    H162074   3.468   5.345  14.970  0.0319  1.5510  1.5531
13553TIP3    H262075   3.516   5.364  14.828  0.7721 -1.3125  1.3584
13554TIP3   OH262076   5.976   2.477   3.060  0.1763 -0.1162  0.0057
13554TIP3    H162077   5.986   2.417   3.135 -0.7338  0.4296  0.5741
13554TIP3    H262078   6.009   2.561   3.092 -2.9403  0.9171  0.8735
13555TIP3   OH262079   6.099   5.277   6.805 -0.1087  0.1472 -0.2548
13555TIP3    H162080   6.146   5.197   6.828  0.1689  0.4250  0.1342
13555TIP3    H262081   6.033   5.248   6.741  0.4869 -0.2633 -0.6917
13556TIP3   OH262082   0.306   5.030   2.035  0.2064 -0.2602 -0.6071
13556TIP3    H162083   0.234   5.093   2.033  0.9613  0.7207  0.8299
13556TIP3    H262084   0.293   4.976   1.957 -2.5786 -0.7010  0.0532
13557TIP3   OH262085   4.698   3.087  11.436  0.2956 -0.0241  0.1431
13557TIP3    H162086   4.731   3.165  11.392  1.2447  0.0478  0.9532
13557TIP3    H262087   4.648   3.121  11.510 -0.6918 -0.1628 -0.4406
13558TIP3   OH262088   6.564   4.995  14.141  0.0467  0.2532 -0.0527
13558TIP3    H162089   6.623   4.941  14.193 -1.1997 -0.7056  0.4469
13558TIP3    H262090   6.528   5.058  14.203 -1.0473 -0.5578  0.1795
13559TIP3   OH262091   6.425   2.021   1.760  0.4681 -0.1272  0.1585
13559TIP3    H162092   6.499   2.001   1.703 -0.3822 -1.0642 -0.6599
13559TIP3    H262093   6.423   1.947   1.822 -0.4266 -0.6817 -0.5142
13560TIP3   OH262094   1.187   5.555   1.507  0.2894  0.2506  0.0493
13560TIP3    H162095   1.206   5.634   1.458 -0.6536 -0.0909 -0.9010
13560TIP3    H262096   1.119   5.511   1.457 -0.8986  0.0011  1.7866
13561TIP3   OH262097   5.789   5.245  14.728 -0.0083 -0.8387 -0.2047
13561TIP3    H162098   5.883   5.241  14.713  0.0430  0.3062 -0.3200
13561TIP3    H262099   5.751   5.262  14.642  0.1379  3.7517  0.3770
13562TIP3   OH262100   0.998   2.903   3.090  0.3514  0.4392  0.0205
13562TIP3    H162101   0.924   2.955   3.060  0.8636  1.4797  0.5189
13562TIP3    H262102   0.963   2.814   3.100 -1.1076  1.1317  1.3014
13563TIP3   OH262103   6.131   5.180   1.050  0.7458 -0.4621 -0.2079
13563TIP3    H162104   6.058   5.131   1.089  0.0532 -0.0793 -0.9963
13563TIP3    H262105   6.168   5.120   0.985 -0.8702  0.4124 -2.0542
13564TIP3   OH262106   1.888   0.957   0.745  0.3467  0.0499  0.6063
13564TIP3    H162107   1.809   0.956   0.691  0.0158  0.9662  1.0633
13564TIP3    H262108   1.935   1.036   0.718  0.3723  0.3015  1.3790
13565TIP3   OH262109   6.348   3.769   1.629  0.1832  0.0545  0.5677
13565TIP3    H162110   6.270   3.752   1.576 -0.3170  0.8108  1.0422
13565TIP3    H262111   6.332   3.721   1.710  0.5381 -0.3580  0.3991
13566TIP3   OH262112   1.156   2.313  15.477 -0.0977 -0.2297 -0.1035
13566TIP3    H162113   1.130   2.236  15.427 -0.5117 -2.4180  3.2499
13566TIP3    H262114   1.075   2.362  15.490 -0.4977 -1.0642  0.6433
13567TIP3   OH262115   3.690   2.005   1.163  0.1185  0.0983 -0.4244
13567TIP3    H162116   3.785   2.009   1.164  0.0966  1.6388  1.2802
13567TIP3    H262117   3.666   1.964   1.246 -0.7041  2.4457  0.5794
13568TIP3   OH262118   1.468   3.524   3.238 -0.1324 -0.1991 -0.2119
13568TIP3    H162119   1.385   3.561   3.208  0.6170  2.2420  0.5531
13568TIP3    H262120   1.533   3.590   3.217  1.4605 -1.5394  0.3024
13569TIP3   OH262121   2.588   3.737  11.454 -0.5945  0.3710 -0.0839
13569TIP3    H162122   2.642   3.708  11.528 -1.0888  3.0232  1.4894
13569TIP3    H262123   2.625   3.822  11.430 -2.5866  1.1539 -0.5450
13570TIP3   OH262124   1.435   1.478  14.078 -1.0757 -0.0657 -0.2015
13570TIP3    H162125   1.460   1.387  14.062 -1.0210  0.0013 -0.5165
13570TIP3    H262126   1.503   1.512  14.136 -0.8092 -0.0772 -0.5064
13571TIP3   OH262127   2.542   4.258  11.540  0.1377 -0.2889  0.0121
13571TIP3    H162128   2.492   4.324  11.492 -2.6177 -1.8141  0.5788
13571TIP3    H262129   2.626   4.253  11.494 -0.2167  2.2942 -1.0956
13572TIP3   OH262130   5.403   3.213  13.449  0.3606 -0.2141  0.3229
13572TIP3    H162131   5.491   3.197  13.483  0.1795  0.4402  1.1361
13572TIP3    H262132   5.367   3.280  13.507 -1.8346 -2.6610  2.0582
13573TIP3   OH262133   3.431   6.497   5.338  0.1163 -0.1501  0.3394
13573TIP3    H162134   3.511   6.447   5.357 -0.2810 -0.8227  0.2964
13573TIP3    H262135   3.361   6.432   5.347 -0.5541  0.7066  1.6551
13574TIP3   OH262136   0.019   4.729  16.360 -0.3522 -0.0587 -0.2065
13574TIP3    H162137   0.057   4.647  16.392 -0.1104  0.1552  0.0635
13574TIP3    H262138   0.086   4.795  16.379 -0.3958  0.1464 -0.7469
13575TIP3   OH262139   6.752   1.816   0.445 -0.1014  0.1962 -0.1588
13575TIP3    H162140   6.729   1.903   0.479  0.0518 -0.1006  0.7415
13575TIP3    H262141   6.848   1.815   0.447 -0.0426 -1.1639  3.1061
13576TIP3   OH262142   4.113   5.619   2.009  0.0387  0.6252 -0.1643
13576TIP3    H162143   4.132   5.577   1.925 -0.1380  0.5619 -0.1721
13576TIP3    H262144   4.131   5.552   2.074  0.8022  0.8695 -0.1060
13577TIP3   OH262145   3.649   2.140  16.257 -0.1345  0.3115 -0.0227
13577TIP3    H162146   3.579   2.075  16.263  0.5232 -1.2066 -4.4413
13577TIP3    H262147   3.607   2.223  16.279 -1.3053 -1.2552  4.6808
13578TIP3   OH262148   1.036   2.553  13.136  0.5958  0.2198  0.2383
13578TIP3    H162149   0.965   2.574  13.196  1.2917  1.2865  0.7243
13578TIP3    H262150   1.078   2.637  13.118  2.2652 -0.4840  0.6547
13579TIP3   OH262151   5.807   5.074   5.410 -0.2379  0.0156  0.5360
13579TIP3    H162152   5.842   5.011   5.473  0.8501  0.0323 -0.0195
13579TIP3    H262153   5.715   5.084   5.433 -0.3874 -1.6518  0.7459
13580TIP3   OH262154   2.909   1.766  16.014 -0.2995 -0.0487 -0.8165
13580TIP3    H162155   2.857   1.686  16.030 -2.0608  1.1865  0.0211
13580TIP3    H262156   2.845   1.837  16.018  1.6680  1.8165  2.2326
13581TIP3   OH262157   4.809   3.908  15.878  0.2037  0.0857 -0.4271
13581TIP3    H162158   4.828   3.923  15.786  1.6344  1.6259  0.0697
13581TIP3    H262159   4.894   3.899  15.920 -0.2218  2.5951  1.1963
13582TIP3   OH262160   0.937   6.595   4.061  0.1145 -0.2431  0.2746
13582TIP3    H162161   0.970   6.551   4.139  1.6092  0.6727  0.2141
13582TIP3    H262162   1.017   6.624   4.015 -0.6709  3.5373  0.9240
13583TIP3   OH262163   0.223   1.374  16.118 -0.3287  0.3764 -0.4052
13583TIP3    H162164   0.165   1.443  16.085 -1.3986  0.5225  1.6409
13583TIP3    H262165   0.251   1.327  16.039 -0.9282  2.0686 -1.7077
13584TIP3   OH262166   0.968   6.492   0.445  0.2084 -0.1532  0.4893
13584TIP3    H162167   0.939   6.487   0.536 -1.0509  1.1180  0.1824
13584TIP3    H262168   0.934   6.413   0.404 -2.1688  0.8621  0.3535
13585TIP3   OH262169   4.901   6.609   5.911  0.3267  0.9096  0.4128
13585TIP3    H162170   4.812   6.580   5.893  0.2052  1.6512 -0.2053
13585TIP3    H262171   4.943   6.533   5.951 -0.8046  0.8036  1.4518
13586TIP3   OH262172   4.914   4.078  15.185 -0.0325 -0.2877  0.4530
13586TIP3    H162173   4.997   4.043  15.219 -0.5001 -1.0110  0.8655
13586TIP3    H262174   4.903   4.034  15.100  0.6659  0.8209 -0.2424
13587TIP3   OH262175   3.251   0.291   0.080  0.6412  1.0948  0.0686
13587TIP3    H162176   3.224   0.344   0.155 -0.6718 -0.3171  0.6607
13587TIP3    H262177   3.170   0.277   0.031  0.7131 -1.1551  0.4900
13588TIP3   OH262178   3.570   0.682  16.197 -0.2667  0.5312 -0.4219
13588TIP3    H162179   3.541   0.664  16.107 -1.0124  0.9285 -0.2684
13588TIP3    H262180   3.489   0.690  16.247  0.1295  0.9996  0.1533
13589TIP3   OH262181   4.480   4.458  16.498  0.5884 -0.5612  0.2341
13589TIP3    H162182   4.427   4.425  16.426 -0.7490  1.3572  0.2674
13589TIP3    H262183   4.567   4.421  16.483 -0.1753 -1.8631 -1.1697
13590TIP3   OH262184   5.063   0.304  13.926 -0.2025 -0.0658 -0.0015
13590TIP3    H162185   5.016   0.285  14.007  1.1398 -0.7800  0.6558
13590TIP3    H262186   5.089   0.218  13.892  1.7639  0.3114  0.4051
13591TIP3   OH262187   2.956   2.956  12.956  0.3387 -0.4455 -0.0164
13591TIP3    H162188   2.940   3.047  12.982 -1.1038  0.0012 -2.2182
13591TIP3    H262189   2.885   2.907  12.998 -0.5608 -0.0864 -1.0546
13592TIP3   OH262190   4.219   0.588  14.486  0.5502 -0.1956 -0.1022
13592TIP3    H162191   4.163   0.639  14.544  1.7514  1.5998 -0.4325
13592TIP3    H262192   4.286   0.550  14.543  0.6165 -0.0097 -0.0550
13593TIP3   OH262193   4.435   4.405   2.615  0.3595 -0.1134  0.2140
13593TIP3    H162194   4.367   4.429   2.552  0.2153 -1.0092  0.0062
13593TIP3    H262195   4.458   4.315   2.591  0.0790 -0.5839  1.6458
13594TIP3   OH262196   4.099   6.717  11.005 -0.9481 -0.0619 -0.3468
13594TIP3    H162197   4.040   6.679  10.940 -0.9013 -0.5686 -0.1029
13594TIP3    H262198   4.156   6.775  10.955  0.5611 -2.1059 -1.1718
13595TIP3   OH262199   6.036   2.620  16.509  0.1696 -0.1313  0.4814
13595TIP3    H162200   5.961   2.569  16.539 -0.9721  0.1343 -1.7494
13595TIP3    H262201   6.016   2.710  16.533 -0.1862 -0.0713 -0.0426
13596TIP3   OH262202   4.143   5.515  12.434  0.6844  0.4662 -0.4665
13596TIP3    H162203   4.158   5.471  12.351  1.5904  0.5044 -0.3283
13596TIP3    H262204   4.099   5.449  12.488  1.4603 -0.0767 -0.4751
13597TIP3   OH262205   0.722   5.024   4.737  0.5910  0.3821  0.1341
13597TIP3    H162206   0.627   5.022   4.754  0.5667  0.9480  0.0941
13597TIP3    H262207   0.744   4.933   4.717 -0.4774  0.6274 -2.6798
13598TIP3   OH262208   6.481   2.018  12.692  0.1715 -0.2786 -0.2689
13598TIP3    H162209   6.523   2.102  12.675  0.8271 -0.1430  1.8198
13598TIP3    H262210   6.390   2.040  12.713  0.6758  0.1106  1.7078
13599TIP3   OH262211   1.757   3.123  10.889  0.3448  0.4199 -0.3364
13599TIP3    H162212   1.716   3.051  10.842 -0.2711  0.4867  0.0849
13599TIP3    H262213   1.805   3.172  10.822 -0.0720  0.2013 -0.7957
13600TIP3   OH262214   6.730   6.137   6.565 -0.2431 -0.6758 -0.3503
13600TIP3    H162215   6.729   6.139   6.661  0.0960 -0.1429 -0.3535
13600TIP3    H262216   6.744   6.045   6.543  0.5447 -0.6804  0.1238
13601TIP3   OH262217   3.552   5.001   0.191  0.1835  0.4942 -0.3578
13601TIP3    H162218   3.522   5.051   0.267  0.8635  1.6108 -0.7789
13601TIP3    H262219   3.487   5.019   0.123 -0.3017 -0.3172 -0.1145
13602TIP3   OH262220   4.849   0.987   5.786 -0.1480  0.8659 -0.5446
13602TIP3    H162221   4.818   0.988   5.876 -0.3578  1.4122 -0.6216
13602TIP3    H262222   4.935   1.029   5.790 -0.2827  1.1551 -0.6415
13603TIP3   OH262223   0.287   4.580  17.019  0.1449 -0.2111 -0.0836
13603TIP3    H162224   0.264   4.564  17.111 -0.4510 -0.0952 -0.2093
13603TIP3    H262225   0.207   4.560  16.971 -0.0579  1.3545 -0.4204
13604TIP3   OH262226   2.026   5.050  11.525  0.1101 -0.2160  0.8549
13604TIP3    H162227   2.009   4.968  11.478 -0.7753  0.6018 -0.3236
13604TIP3    H262228   1.991   5.036  11.613 -0.6833 -0.8720  0.4473
13605TIP3   OH262229   5.676   1.708   5.825  0.0082 -0.2428 -0.4573
13605TIP3    H162230   5.737   1.719   5.897  0.2839  0.8172 -0.8304
13605TIP3    H262231   5.632   1.793   5.817 -0.1018 -0.3740 -1.4487
13606TIP3   OH262232   3.589   4.324   2.104  0.2327 -0.0489  0.1687
13606TIP3    H162233   3.602   4.241   2.059 -0.3313 -1.0412  1.7732
13606TIP3    H262234   3.495   4.340   2.099  0.0217 -0.6331  1.7070
13607TIP3   OH262235   5.110   1.031   3.957 -0.0698  0.0035 -0.2903
13607TIP3    H162236   5.091   0.988   3.873 -0.1278 -1.9152  0.6590
13607TIP3    H262237   5.026   1.067   3.985 -0.4877 -1.0693 -0.1302
13608TIP3   OH262238   3.293   6.167   1.131 -0.0092 -0.8154  0.2725
13608TIP3    H162239   3.294   6.227   1.057  0.4518  0.4730  1.2863
13608TIP3    H262240   3.379   6.177   1.172 -0.1480 -1.7189  0.8307
13609TIP3   OH262241   1.425   5.115  12.672 -0.5790 -0.6309 -0.1001
13609TIP3    H162242   1.461   5.028  12.652 -0.2900 -0.7355  0.8454
13609TIP3    H262243   1.491   5.176  12.639 -0.6399 -0.7651 -0.4846
13610TIP3   OH262244   1.162   5.178  15.529  0.8459 -0.3820 -0.7795
13610TIP3    H162245   1.173   5.186  15.624 -0.2547 -0.5580 -0.6263
13610TIP3    H262246   1.072   5.207  15.513 -0.6623 -4.6597 -1.1799
13611TIP3   OH262247   5.032   3.347   2.415 -0.2171 -0.4197  0.0933
13611TIP3    H162248   4.987   3.414   2.364  0.6788 -0.0767 -0.2678
13611TIP3    H262249   4.970   3.275   2.421 -0.0270 -0.8609 -2.2981
13612TIP3   OH262250   5.857   5.276  11.271 -0.8138  0.2161  0.0531
13612TIP3    H162251   5.898   5.339  11.330  0.3402 -0.2269 -0.2304
13612TIP3    H262252   5.773   5.256  11.311 -0.7271  1.1107  0.7126
13613TIP3   OH262253   0.867   1.165   2.733 -0.1830  0.1813  0.1197
13613TIP3    H162254   0.798   1.225   2.762  0.3976  0.7943  0.2645
13613TIP3    H262255   0.922   1.217   2.675 -0.4280 -0.6024 -0.8357
13614TIP3   OH262256   4.692   3.548   4.443  0.3383 -0.9914 -0.4578
13614TIP3    H162257   4.632   3.623   4.445  0.4156 -0.9121 -1.0324
13614TIP3    H262258   4.686   3.511   4.531 -0.7642 -1.1461 -0.5771
13615TIP3   OH262259   4.656   1.243   2.475  0.5226 -0.0430 -0.1109
13615TIP3    H162260   4.697   1.324   2.443  1.4843 -0.1025  0.9379
13615TIP3    H262261   4.703   1.173   2.430  0.5219 -0.0671 -0.0735
13616TIP3   OH262262   2.180   1.695  12.849  0.5960  0.4788  0.9878
13616TIP3    H162263   2.218   1.658  12.928 -0.8045  1.6863  2.2825
13616TIP3    H262264   2.172   1.621  12.789  0.6748 -0.6845  2.3724
13617TIP3   OH262265   1.627   0.904  16.415  0.0771  0.1762  0.4005
13617TIP3    H162266   1.534   0.921  16.428  0.3864  1.6771  0.8074
13617TIP3    H262267   1.630   0.828  16.358 -1.3911 -0.5334  1.2270
13618TIP3   OH262268   3.763   0.865  14.664 -0.5394  0.1886  0.4205
13618TIP3    H162269   3.789   0.954  14.641  0.5438  0.0943  1.1813
13618TIP3    H262270   3.767   0.817  14.581  0.4101  0.5114  0.2615
13619TIP3   OH262271   2.267   0.004   3.124 -0.0606 -0.0244  0.0506
13619TIP3    H162272   2.349  -0.045   3.110 -0.8480 -1.3573 -0.0647
13619TIP3    H262273   2.287   0.062   3.197  0.4899 -1.5968  1.2278
13620TIP3   OH262274   1.933   1.755  16.192  0.2240 -0.5201 -0.1015
13620TIP3    H162275   1.875   1.825  16.161  0.1360  0.2242  1.6137
13620TIP3    H262276   1.880   1.676  16.188 -0.5834 -0.0224  0.4672
13621TIP3   OH262277   1.269   4.686  17.180 -0.1742 -0.0005 -0.3517
13621TIP3    H162278   1.258   4.711  17.088 -0.4799 -0.2657 -0.3890
13621TIP3    H262279   1.180   4.675  17.213 -0.0559 -1.0427 -0.3404
13622TIP3   OH262280   5.350   2.552   3.958 -0.6160  0.2680  0.3117
13622TIP3    H162281   5.365   2.599   4.040 -3.3861  0.9067  0.5595
13622TIP3    H262282   5.284   2.604   3.913 -0.3118 -0.9308 -1.6244
13623TIP3   OH262283   0.914   4.518   1.331 -0.4072 -0.4847  0.5015
13623TIP3    H162284   0.855   4.584   1.367  2.6949  3.3298 -0.5626
13623TIP3    H262285   0.995   4.530   1.381  1.4806 -0.6555 -2.2732
13624TIP3   OH262286   0.696   5.150   3.766  0.0123  0.2583  0.4183
13624TIP3    H162287   0.741   5.110   3.691  1.5034  1.2884  0.7155
13624TIP3    H262288   0.748   5.124   3.842 -2.2308 -1.8960  1.3652
13625TIP3   OH262289   4.729   6.100  12.352 -0.3603 -0.4582 -0.0830
13625TIP3    H162290   4.809   6.118  12.400 -0.8824  0.1962  0.5658
13625TIP3    H262291   4.701   6.184  12.318 -0.6652 -0.7131 -0.4689
13626TIP3   OH262292   1.961   0.359   4.226  0.1624 -0.6759 -0.1757
13626TIP3    H162293   1.883   0.379   4.277 -0.0531 -0.2593 -0.6503
13626TIP3    H262294   2.034   0.380   4.283 -0.0762 -1.1795  0.3139
13627TIP3   OH262295   0.782   5.770   5.834  0.1134  0.2088 -0.0880
13627TIP3    H162296   0.736   5.829   5.893  1.3797 -0.0288  1.1902
13627TIP3    H262297   0.807   5.696   5.889  2.0787  0.3679 -0.6941
13628TIP3   OH262298   3.097   0.284  11.575 -0.1727 -0.5967 -0.2168
13628TIP3    H162299   3.138   0.276  11.661 -1.1001 -3.6131  0.0735
13628TIP3    H262300   3.161   0.246  11.514  1.0316  2.6525 -1.1999
13629TIP3   OH262301   3.864   1.497  13.028  0.1671 -0.1668 -0.1702
13629TIP3    H162302   3.921   1.557  13.076  0.6721 -0.5121 -0.3232
13629TIP3    H262303   3.815   1.451  13.096  1.2830 -1.0529  0.0671
13630TIP3   OH262304   0.846   1.315  15.160  0.2689  0.0426 -0.0296
13630TIP3    H162305   0.926   1.272  15.129  1.3219  0.6261  1.7023
13630TIP3    H262306   0.812   1.255  15.227 -0.7911 -0.2168 -0.7819
13631TIP3   OH262307   4.755   5.818  13.568 -0.3170 -0.3379  0.4237
13631TIP3    H162308   4.814   5.866  13.626  4.2472 -1.8448 -2.4212
13631TIP3    H262309   4.731   5.882  13.500 -3.3818  0.6409  2.2213
13632TIP3   OH262310   0.942   0.342   6.058  0.0500 -0.6317  0.4568
13632TIP3    H162311   0.988   0.389   6.127  0.9377  1.1295 -1.2209
13632TIP3    H262312   0.867   0.397   6.037 -0.5505 -1.4444  0.4196
13633TIP3   OH262313   4.152   0.415   0.491  0.5409 -0.6110  0.4252
13633TIP3    H162314   4.113   0.495   0.527 -0.6595  0.2587 -2.4618
13633TIP3    H262315   4.238   0.442   0.459  0.8289 -0.9161  0.9238
13634TIP3   OH262316   3.445   3.612  12.012 -0.7875  0.7016 -0.3901
13634TIP3    H162317   3.394   3.558  12.072  1.3424 -0.2850  0.6142
13634TIP3    H262318   3.503   3.551  11.967  0.0316  1.8679 -0.9853
13635TIP3   OH262319   3.030   3.730  16.281  0.1577 -0.2080  0.0530
13635TIP3    H162320   3.026   3.790  16.356 -0.6108 -1.4207  1.0460
13635TIP3    H262321   3.123   3.709  16.272  0.5929  1.8734 -0.9934
13636TIP3   OH262322   1.217   1.499   3.187  0.1865  0.3649 -0.0872
13636TIP3    H162323   1.122   1.503   3.179  0.1545  0.4441  0.3333
13636TIP3    H262324   1.241   1.415   3.149  0.1449  1.1752 -2.0093
13637TIP3   OH262325   4.371   3.862   4.984  0.1222  0.1092 -0.4943
13637TIP3    H162326   4.351   3.810   4.907 -1.2101  0.4624 -0.4138
13637TIP3    H262327   4.466   3.868   4.986  0.1633  0.2819 -2.2221
13638TIP3   OH262328   6.481   4.695   5.953 -0.0398 -0.1783  0.0090
13638TIP3    H162329   6.394   4.685   5.992  0.2448  1.7176  1.2862
13638TIP3    H262330   6.487   4.788   5.931  1.7287 -0.2219  0.1424
13639TIP3   OH262331   5.316   2.904   1.400  0.4258 -0.5026  0.1746
13639TIP3    H162332   5.330   2.846   1.475  1.0793 -0.3452  0.1806
13639TIP3    H262333   5.238   2.954   1.423  1.0454  0.0787  1.0984
13640TIP3   OH262334   3.609   6.256  14.256  0.0259  0.1330 -0.1322
13640TIP3    H162335   3.694   6.255  14.211  0.1497 -0.4359  0.1108
13640TIP3    H262336   3.563   6.330  14.217 -0.0014 -0.5523 -1.4663
13641TIP3   OH262337   4.679   0.298   1.967  0.0592 -0.2641 -0.1451
13641TIP3    H162338   4.758   0.351   1.976 -0.5411  0.4797  1.1251
13641TIP3    H262339   4.617   0.355   1.922 -0.7544  0.3489  1.6720
13642TIP3   OH262340   1.204   5.229   1.260 -0.0005 -0.4715  0.0168
13642TIP3    H162341   1.283   5.180   1.281 -0.7110 -1.3253  0.7964
13642TIP3    H262342   1.200   5.229   1.164  0.7442 -0.7203 -0.0193
13643TIP3   OH262343   5.200   0.877  12.215  0.0533 -0.9344  0.7324
13643TIP3    H162344   5.146   0.877  12.294  1.0020 -0.7480  1.3802
13643TIP3    H262345   5.279   0.924  12.238  0.3722 -0.9191 -0.3166
13644TIP3   OH262346   0.469   3.550  13.904 -0.5902  0.5415 -0.3736
13644TIP3    H162347   0.556   3.554  13.945  0.3078  0.7442 -2.2006
13644TIP3    H262348   0.463   3.461  13.870 -1.2514  0.4240  0.0399
13645TIP3   OH262349   1.610   5.634  15.309 -0.3048 -0.2325  0.1375
13645TIP3    H162350   1.693   5.602  15.344  0.0376  0.1191 -0.3353
13645TIP3    H262351   1.553   5.557  15.306  0.0405 -0.4987  0.3509
13646TIP3   OH262352   6.264   5.694  12.596  0.1227 -0.2138 -0.3788
13646TIP3    H162353   6.181   5.696  12.548  0.8666 -1.7344 -1.8322
13646TIP3    H262354   6.282   5.601  12.608  1.2346  0.1096  0.6224
13647TIP3   OH262355   0.907   2.516   0.472 -0.0097  0.5858 -1.0286
13647TIP3    H162356   0.829   2.527   0.527  0.3431  2.2337 -0.7984
13647TIP3    H262357   0.924   2.422   0.473  0.6102  0.6001  2.5840
13648TIP3   OH262358   1.340   6.205  11.434 -0.9296 -0.4668 -0.2277
13648TIP3    H162359   1.324   6.137  11.499  0.5239  0.7749  1.5013
13648TIP3    H262360   1.433   6.196  11.412 -0.8270  0.6955 -0.3004
13649TIP3   OH262361   5.508   1.504   2.736  0.6674 -0.3965 -0.4528
13649TIP3    H162362   5.441   1.463   2.683  1.7680 -0.6448 -1.6889
13649TIP3    H262363   5.561   1.431   2.769  0.2288 -0.2227  0.7213
13650TIP3   OH262364   5.225   6.263   6.151 -0.2645 -0.2079 -0.0891
13650TIP3    H162365   5.197   6.232   6.237  0.8409  1.5395  0.9488
13650TIP3    H262366   5.306   6.215   6.133 -0.9181 -1.1742 -0.5709
13651TIP3   OH262367   4.683   2.760  14.412 -0.3610 -0.0490 -0.3590
13651TIP3    H162368   4.764   2.810  14.406 -0.6577  0.4204 -0.4685
13651TIP3    H262369   4.626   2.814  14.467 -0.2551 -0.8374  0.5599
13652TIP3   OH262370   0.564   0.047   3.694 -0.2033  0.1505  0.4894
13652TIP3    H162371   0.504   0.103   3.743  0.5537 -0.4516  2.1714
13652TIP3    H262372   0.641   0.101   3.679  0.4671 -0.3370  1.9831
13653TIP3   OH262373   5.971   0.027  16.202  0.1976 -0.4070 -0.1405
13653TIP3    H162374   5.890   0.056  16.161  0.2091  0.3722  0.3701
13653TIP3    H262375   5.945  -0.049  16.254 -0.2296 -0.1022  0.0982
13654TIP3   OH262376   4.355   5.947   2.308 -0.1674  0.0001  0.4562
13654TIP3    H162377   4.383   5.861   2.275  0.5673 -0.4128  2.0628
13654TIP3    H262378   4.263   5.953   2.283  0.2850 -0.3330 -1.4860
13655TIP3   OH262379   4.991   3.286  15.048 -0.6426 -0.0006 -0.0386
13655TIP3    H162380   4.917   3.286  15.109  0.5083  1.7505  1.4880
13655TIP3    H262381   5.062   3.329  15.097  1.4360 -1.6643 -1.3912
13656TIP3   OH262382   1.405   3.237  14.758 -0.4212  0.2371  0.7154
13656TIP3    H162383   1.362   3.166  14.806 -2.5443  0.7660 -0.3225
13656TIP3    H262384   1.413   3.204  14.669  3.2667 -0.6325  1.1951
13657TIP3   OH262385   1.603   2.548   5.626  0.1259 -0.3713  0.0012
13657TIP3    H162386   1.646   2.623   5.584 -0.7315 -0.9218 -1.9870
13657TIP3    H262387   1.510   2.563   5.611 -0.2121 -0.7898  1.4825
13658TIP3   OH262388   1.876   4.707   4.814 -0.7035 -0.2838  0.5957
13658TIP3    H162389   1.857   4.790   4.770 -1.4625  0.6025  2.4993
13658TIP3    H262390   1.971   4.708   4.827 -0.7884  0.6720  1.2844
13659TIP3   OH262391   1.055   0.774  16.111 -0.0733 -0.2087  0.0874
13659TIP3    H162392   1.143   0.763  16.075 -0.1127  0.8842 -0.3791
13659TIP3    H262393   1.069   0.800  16.202  0.0586 -0.8450  0.2570
13660TIP3   OH262394   5.177   4.744  13.490  0.0294 -0.6485 -0.2897
13660TIP3    H162395   5.104   4.682  13.495 -0.1531 -0.4085  0.0780
13660TIP3    H262396   5.251   4.697  13.527 -0.4340 -0.1821  1.2826
13661TIP3   OH262397   0.183   0.890  16.729 -0.7079 -0.2691  0.2636
13661TIP3    H162398   0.192   0.799  16.757 -0.2439  0.1397  1.4994
13661TIP3    H262399   0.259   0.906  16.673 -0.0856 -0.2679  1.0964
13662TIP3   OH262400   5.713   2.058   2.145  0.0487  0.4326  0.1139
13662TIP3    H162401   5.739   1.966   2.142 -0.0731  0.3964  0.1810
13662TIP3    H262402   5.623   2.056   2.177 -0.2598  0.5142 -0.7110
13663TIP3   OH262403   5.869   0.033  12.409  0.1684 -0.7317  0.1209
13663TIP3    H162404   5.877   0.094  12.336 -1.2350  2.0010  2.0609
13663TIP3    H262405   5.779   0.001  12.405  0.0592 -0.5094  0.6621
13664TIP3   OH262406   5.970   3.447   1.403  0.0780 -0.8909  0.0402
13664TIP3    H162407   5.944   3.360   1.372 -1.2463 -0.7670  0.7567
13664TIP3    H262408   6.020   3.429   1.483 -0.2300 -0.9966  0.2110
13665TIP3   OH262409   1.962   2.483   0.355  0.1972  0.0112 -0.4261
13665TIP3    H162410   1.959   2.423   0.280 -0.5663 -0.9374  0.3307
13665TIP3    H262411   1.907   2.557   0.328  0.4520 -0.0175 -1.0488
13666TIP3   OH262412   0.798   2.370   5.382  0.1180  0.8335 -0.3913
13666TIP3    H162413   0.722   2.408   5.338 -0.4271  0.3358  0.1015
13666TIP3    H262414   0.761   2.313   5.450  0.8927 -0.5431 -1.0612
13667TIP3   OH262415   5.940   0.746   0.583 -0.0435 -0.4028 -0.0466
13667TIP3    H162416   5.911   0.791   0.503  0.8047  1.5085  0.6539
13667TIP3    H262417   6.013   0.799   0.615 -2.7494  1.3422  4.1293
13668TIP3   OH262418   1.508   1.760  15.302  0.0216 -0.4256 -0.4615
13668TIP3    H162419   1.502   1.729  15.211  0.3285  1.1266 -1.0408
13668TIP3    H262420   1.568   1.834  15.298  0.2518 -0.5064  1.0785
13669TIP3   OH262421   4.928   5.968   3.947 -0.2603 -0.0505  0.1675
13669TIP3    H162422   4.952   5.876   3.958 -0.1727 -0.0109  0.3036
13669TIP3    H262423   5.000   6.006   3.897 -0.8476 -0.3255 -0.9293
13670TIP3   OH262424   3.381   6.245  16.955 -0.4554  0.7389 -0.0967
13670TIP3    H162425   3.454   6.218  17.011 -0.7459 -1.0643 -0.5353
13670TIP3    H262426   3.323   6.294  17.014  0.1158  0.4160  0.7606
13671TIP3   OH262427   0.106   6.314   4.066 -0.6464 -0.2760  0.2451
13671TIP3    H162428   0.072   6.244   4.121  1.5144 -0.2521  1.7382
13671TIP3    H262429   0.117   6.388   4.125  0.0847  0.3131 -0.6086
13672TIP3   OH262430   6.198   4.866  13.901 -0.2213  0.3076  0.0590
13672TIP3    H162431   6.170   4.834  13.987  0.6839  0.8487  0.5679
13672TIP3    H262432   6.260   4.937  13.921  0.4238  0.0697 -1.0337
13673TIP3   OH262433   1.708   6.421  15.466  0.5674 -0.2682 -0.1115
13673TIP3    H162434   1.690   6.368  15.389 -0.5356  0.1198 -0.1353
13673TIP3    H262435   1.751   6.361  15.527  1.2163 -0.6391 -0.9235
13674TIP3   OH262436   4.836   3.866  14.595 -0.3150  0.1186  0.6796
13674TIP3    H162437   4.920   3.844  14.635  0.5911 -0.6549 -1.4821
13674TIP3    H262438   4.855   3.938  14.535 -0.8218 -1.0391 -0.9544
13675TIP3   OH262439   1.144   2.648  14.931  0.2412 -0.2702  0.2301
13675TIP3    H162440   1.172   2.656  15.022 -0.5027  2.8891  0.2937
13675TIP3    H262441   1.146   2.554  14.914  3.4068 -0.7667  2.4951
13676TIP3   OH262442   4.876   6.369  16.927  0.0656  0.5845  0.1687
13676TIP3    H162443   4.946   6.392  16.988  0.3745  0.9214 -0.3059
13676TIP3    H262444   4.921   6.323  16.856 -0.2810  0.2572  0.1617
13677TIP3   OH262445   4.740   6.246  10.250 -0.0499  0.4572  0.2468
13677TIP3    H162446   4.768   6.196  10.327  2.0062  1.3049  0.1277
13677TIP3    H262447   4.721   6.333  10.284  0.0012  0.5902 -0.0631
13678TIP3   OH262448   3.313   5.887   3.093  0.3345 -0.1421 -0.4130
13678TIP3    H162449   3.245   5.823   3.111 -1.6164  1.4240 -1.7516
13678TIP3    H262450   3.346   5.864   3.006 -0.7270  0.8804 -1.1211
13679TIP3   OH262451   6.260   4.549  17.055  0.5364  0.3237  0.3088
13679TIP3    H162452   6.278   4.587  16.969  0.2006 -1.0059 -0.3806
13679TIP3    H262453   6.197   4.479  17.038  1.0574 -0.4745  1.5178
13680TIP3   OH262454   2.380   4.653  11.996  0.1577  0.4408  0.3338
13680TIP3    H162455   2.325   4.575  11.988  1.9838 -0.9197  0.2864
13680TIP3    H262456   2.350   4.711  11.926  0.3534 -1.2930 -1.2694
13681TIP3   OH262457   6.136   4.910  12.299  0.7274  0.0120  0.1822
13681TIP3    H162458   6.098   4.967  12.366  1.3946  0.9476 -0.2111
13681TIP3    H262459   6.204   4.862  12.346  1.7466  1.2509  0.0503
13682TIP3   OH262460   2.824   0.525  13.709 -0.9531  0.5033  0.1101
13682TIP3    H162461   2.819   0.451  13.770 -2.0068  1.4773  1.2437
13682TIP3    H262462   2.737   0.530  13.671 -0.7896  0.9891 -0.2046
13683TIP3   OH262463   1.925   4.314  11.487 -0.0694  0.3649 -0.3927
13683TIP3    H162464   2.014   4.349  11.478  0.2616 -0.4354 -0.2890
13683TIP3    H262465   1.868   4.391  11.481  0.7323  1.1786  1.5916
13684TIP3   OH262466   4.502   0.154  10.965  0.4567  0.0164  0.4235
13684TIP3    H162467   4.541   0.075  10.929  2.6198  0.4583  1.5613
13684TIP3    H262468   4.432   0.177  10.905 -0.1702 -2.6774  0.0149
13685TIP3   OH262469   4.622   5.878  14.468 -0.9362 -0.1458  0.6348
13685TIP3    H162470   4.594   5.968  14.451  1.2614  0.5732  0.5359
13685TIP3    H262471   4.615   5.834  14.383  1.4945  1.0036 -0.2486
13686TIP3   OH262472   2.847   2.187  13.999  0.5451  0.0297 -0.0936
13686TIP3    H162473   2.904   2.114  14.024 -0.1286 -0.8489 -1.0466
13686TIP3    H262474   2.866   2.203  13.907 -0.6608 -0.2318 -0.4100
13687TIP3   OH262475   3.586   4.184   3.518 -0.4043  0.1751  0.1417
13687TIP3    H162476   3.513   4.124   3.501 -0.5839 -0.1161  1.7938
13687TIP3    H262477   3.636   4.183   3.436 -1.0957 -1.2450 -0.3126
13688TIP3   OH262478   3.768   4.924  10.875 -0.4275  0.1276  0.5721
13688TIP3    H162479   3.737   4.851  10.928  0.4900 -1.2477 -0.7139
13688TIP3    H262480   3.695   4.943  10.815  0.0149 -1.0596 -0.3849
13689TIP3   OH262481   4.229   5.343  15.135 -0.4641  0.1842 -0.0072
13689TIP3    H162482   4.231   5.305  15.047 -2.1298  0.8580 -0.3796
13689TIP3    H262483   4.299   5.407  15.136 -1.1575  0.9931 -1.2625
13690TIP3   OH262484   4.555   4.671   0.464 -0.0017 -0.0431  0.1016
13690TIP3    H162485   4.564   4.727   0.387  0.8708  0.7597  0.7710
13690TIP3    H262486   4.639   4.626   0.471 -1.1019 -2.5305 -1.2039
13691TIP3   OH262487   4.129   1.039  11.033  0.7217 -0.1759  0.0808
13691TIP3    H162488   4.129   1.097  11.109 -2.2120 -0.2667  0.2802
13691TIP3    H262489   4.130   0.951  11.070 -1.6215 -0.2358  0.1675
13692TIP3   OH262490   4.807   6.062  14.279 -0.1184 -0.3503 -0.7839
13692TIP3    H162491   4.801   6.132  14.214 -1.6274 -0.0179 -0.3361
13692TIP3    H262492   4.745   5.996  14.248  0.9549 -1.3142 -0.9577
13693TIP3   OH262493   3.918   2.075   2.631  0.3758  0.1960 -0.1139
13693TIP3    H162494   3.934   2.041   2.543  0.1022  0.0421 -0.1046
13693TIP3    H262495   4.000   2.119   2.655  0.1822  0.9460 -0.7766
13694TIP3   OH262496   4.097   0.736  16.902 -0.1829  0.2728 -0.1997
13694TIP3    H162497   4.054   0.805  16.952 -2.1509 -1.5890  0.8283
13694TIP3    H262498   4.028   0.698  16.847  0.5858 -1.4677 -0.0501
13695TIP3   OH262499   3.748   0.690   4.729 -0.1784 -0.8613  0.1767
13695TIP3    H162500   3.675   0.650   4.682 -0.9642 -0.2406  0.8401
13695TIP3    H262501   3.710   0.722   4.811  0.4728  0.9865 -0.1959
13696TIP3   OH262502   5.025   0.364   0.442  0.2856 -0.5408  0.0301
13696TIP3    H162503   4.997   0.442   0.488  1.7973  2.0691 -3.0760
13696TIP3    H262504   5.091   0.325   0.499  2.1625  2.5690  0.1910
13697TIP3   OH262505   3.884   3.002  16.699  0.1436  0.2263 -0.3202
13697TIP3    H162506   3.865   3.096  16.704 -0.0989  0.1411  0.4740
13697TIP3    H262507   3.800   2.962  16.679 -0.2535 -0.0188  1.6968
13698TIP3   OH262508   3.365   6.539   0.544 -0.1133 -0.9311 -0.0174
13698TIP3    H162509   3.299   6.505   0.485 -1.0602 -0.5747  0.8137
13698TIP3    H262510   3.316   6.579   0.615  0.9912  0.0992  0.1989
13699TIP3   OH262511   6.565   4.796  11.401 -0.1652 -0.1417 -0.1151
13699TIP3    H162512   6.494   4.743  11.365 -0.2963  0.2805 -0.4958
13699TIP3    H262513   6.535   4.819  11.489  0.4536 -1.7349  0.5463
13700TIP3   OH262514   2.122   5.002  15.387 -0.3882 -0.1814 -0.5156
13700TIP3    H162515   2.166   5.078  15.425 -0.6507 -0.0658 -0.4424
13700TIP3    H262516   2.130   5.014  15.292  1.4420 -1.1400 -0.5265
13701TIP3   OH262517   6.707   0.595  12.518  0.4396  0.5505  0.5925
13701TIP3    H162518   6.797   0.612  12.544  1.4888  0.9995 -2.8204
13701TIP3    H262519   6.701   0.500  12.511  0.9090  0.5582  0.0674
13702TIP3   OH262520   3.227   2.185   4.597  0.4943  0.3552 -0.4570
13702TIP3    H162521   3.263   2.194   4.509 -1.3354  2.9845 -1.0691
13702TIP3    H262522   3.133   2.192   4.586 -0.2232 -3.5591  1.3653
13703TIP3   OH262523   1.654   1.944  13.971 -0.0250  0.1396 -0.1312
13703TIP3    H162524   1.583   1.969  14.030  0.7218  2.2260 -0.0648
13703TIP3    H262525   1.725   1.917  14.030 -0.6182 -1.7312 -0.1962
13704TIP3   OH262526   0.671   3.018   2.347 -0.3940  0.4056 -0.2694
13704TIP3    H162527   0.694   3.105   2.377 -2.4762  0.9292 -0.0583
13704TIP3    H262528   0.721   2.959   2.404 -0.1763  1.4265  0.6309
13705TIP3   OH262529   3.482   4.613   1.101 -0.5754 -0.0015 -0.0077
13705TIP3    H162530   3.405   4.597   1.156  0.4891 -1.9999  1.0302
13705TIP3    H262531   3.461   4.572   1.018 -0.4064 -1.1533  0.4992
13706TIP3   OH262532   1.594   1.237   5.031  0.7181  0.6192 -0.3552
13706TIP3    H162533   1.553   1.323   5.034 -0.6632 -0.0077 -0.3935
13706TIP3    H262534   1.656   1.243   4.958  1.3088  1.8492  0.2298
13707TIP3   OH262535   6.158   3.282   3.413  0.1761 -0.8613 -0.5594
13707TIP3    H162536   6.205   3.337   3.475 -0.2296 -0.7752 -0.3241
13707TIP3    H262537   6.141   3.200   3.461 -0.6124 -0.5920 -0.3653
13708TIP3   OH262538   2.834   6.025  15.684  0.0855  0.4411  0.2030
13708TIP3    H162539   2.847   6.078  15.605  0.2217 -0.9367 -0.7295
13708TIP3    H262540   2.753   5.976  15.666  1.6996 -2.1491 -0.4241
13709TIP3   OH262541   3.985   6.292  15.189 -0.3232  0.2646  0.5436
13709TIP3    H162542   4.050   6.279  15.120 -0.7309 -3.0799  0.6379
13709TIP3    H262543   4.013   6.233  15.259 -0.5905  2.6894  2.8508
13710TIP3   OH262544   6.575   2.217  13.896 -0.3623 -0.1988  0.1702
13710TIP3    H162545   6.627   2.140  13.875 -2.1338 -2.0018  1.9153
13710TIP3    H262546   6.595   2.280  13.826  3.2718 -1.1097  0.1948
13711TIP3   OH262547   2.934   5.010   1.386 -0.1816 -0.4155 -0.2119
13711TIP3    H162548   2.924   4.919   1.412  1.3847 -0.6245 -0.2161
13711TIP3    H262549   2.918   5.010   1.291 -0.4333 -0.6395 -0.1691
13712TIP3   OH262550   5.140   6.302   3.183  0.2658 -0.1982 -0.0864
13712TIP3    H162551   5.049   6.319   3.206  0.0735  0.3508 -1.1969
13712TIP3    H262552   5.160   6.366   3.115  1.6698  0.0857  0.5507
13713TIP3   OH262553   1.194   1.852  11.336 -0.7337 -0.6376  0.7177
13713TIP3    H162554   1.109   1.893  11.348 -0.7655 -0.3803 -0.2488
13713TIP3    H262555   1.208   1.854  11.241 -0.3596 -2.1176  0.7248
13714TIP3   OH262556   4.590   5.287  12.634  0.2597 -0.7431 -0.4029
13714TIP3    H162557   4.570   5.252  12.548 -1.6977 -0.8404  0.0630
13714TIP3    H262558   4.686   5.292  12.636  0.3111  0.8594 -3.1975
13715TIP3   OH262559   0.540   4.749   0.815  0.5464  0.1987 -0.0879
13715TIP3    H162560   0.483   4.811   0.770  0.4442 -0.2991 -0.6600
13715TIP3    H262561   0.480   4.684   0.852  0.5786  0.9094  1.2956
13716TIP3   OH262562   2.340   0.887  12.533 -0.1761 -0.3333 -0.1471
13716TIP3    H162563   2.420   0.845  12.565  1.8691  1.6939 -2.1897
13716TIP3    H262564   2.333   0.967  12.585 -0.2245  0.0311 -0.7051
13717TIP3   OH262565   3.597   1.390   2.833  0.1114  0.1287  0.1962
13717TIP3    H162566   3.637   1.475   2.818 -1.2992  1.2996  2.4747
13717TIP3    H262567   3.651   1.349   2.901  1.0658 -1.0475 -1.2291
13718TIP3   OH262568   4.434   6.136  10.271 -0.2111  0.5292  0.2232
13718TIP3    H162569   4.431   6.040  10.276  0.5817  0.4917  0.2099
13718TIP3    H262570   4.466   6.154  10.182 -0.9473  0.8246  0.0171
13719TIP3   OH262571   4.488   6.468  11.291  0.1392  0.5690 -0.0131
13719TIP3    H162572   4.488   6.548  11.344 -0.0337 -0.2240  1.2187
13719TIP3    H262573   4.493   6.499  11.201  0.7564  1.9509  0.4708
13720TIP3   OH262574   0.299   3.444   0.262 -0.1143 -0.0330 -0.8090
13720TIP3    H162575   0.332   3.499   0.333 -0.9015 -1.5648  0.8084
13720TIP3    H262576   0.372   3.388   0.237  0.2682  0.7472 -1.4912
13721TIP3   OH262577   4.293   1.229  12.499 -0.5133  0.1516 -0.0084
13721TIP3    H162578   4.319   1.139  12.481 -0.8357  0.4252 -2.0616
13721TIP3    H262579   4.316   1.243  12.591 -0.1655 -1.9089  0.2541
13722TIP3   OH262580   5.285   3.572   2.655 -0.0727  0.0681  0.0130
13722TIP3    H162581   5.256   3.497   2.603  0.1909  2.1764 -3.5119
13722TIP3    H262582   5.236   3.564   2.737 -1.2359 -3.0547 -0.8150
13723TIP3   OH262583   5.592   5.749  16.865  0.7295 -0.7335 -0.0996
13723TIP3    H162584   5.567   5.717  16.778  0.9848 -0.2285 -0.3575
13723TIP3    H262585   5.610   5.842  16.853 -0.9546 -0.2527  0.8421
13724TIP3   OH262586   3.421   6.404  16.738 -0.3604 -0.2161 -0.2118
13724TIP3    H162587   3.391   6.488  16.773 -1.9795 -0.9423  0.2089
13724TIP3    H262588   3.407   6.342  16.809  0.0707 -0.9884 -0.7909
13725TIP3   OH262589   1.199   3.610  16.362 -0.4241 -0.6011  0.3359
13725TIP3    H162590   1.280   3.558  16.362  0.2141  0.3370  1.5673
13725TIP3    H262591   1.225   3.694  16.399 -1.0913  1.1875 -2.8457
13726TIP3   OH262592   5.532   5.562  12.678  0.3172  0.1949  0.0655
13726TIP3    H162593   5.576   5.574  12.594  0.7170  0.0966  0.2585
13726TIP3    H262594   5.588   5.607  12.741 -0.1604  0.5711  0.2345
13727TIP3   OH262595   3.878   1.021   0.100  0.1560  0.6473 -0.2521
13727TIP3    H162596   3.858   0.995   0.190  0.3118  0.7938 -0.1762
13727TIP3    H262597   3.969   0.994   0.087  0.2122  0.8522 -0.2840
13728TIP3   OH262598   4.195   3.309   1.036  0.2959  0.0825  0.6168
13728TIP3    H162599   4.111   3.290   0.994  0.2122  0.0622  0.7920
13728TIP3    H262600   4.226   3.224   1.067  1.6478 -0.3903 -1.7272
13729TIP3   OH262601   1.977   3.188  13.276  0.3016 -0.5150 -0.1713
13729TIP3    H162602   1.983   3.158  13.367  0.2080 -0.8803 -0.2829
13729TIP3    H262603   2.050   3.249  13.266  0.5810 -0.8114  0.0242
13730TIP3   OH262604   0.787   5.821   2.023 -0.1058 -0.1226 -0.4099
13730TIP3    H162605   0.806   5.771   1.944  3.6495  2.5262 -1.4702
13730TIP3    H262606   0.853   5.792   2.086  0.3179  1.4425 -0.0999
13731TIP3   OH262607   2.608   0.537  11.887  0.4781 -0.1894 -0.1579
13731TIP3    H162608   2.566   0.467  11.837  1.4283 -1.2128  0.4436
13731TIP3    H262609   2.552   0.613  11.872  0.6174 -0.4766 -2.6359
13732TIP3   OH262610   3.526   3.071  12.556 -0.0468  0.3840 -0.1600
13732TIP3    H162611   3.538   2.981  12.588  0.4153  0.2822 -0.6102
13732TIP3    H262612   3.466   3.062  12.482  0.8364  0.2971 -0.8905
13733TIP3   OH262613   4.899   4.844   2.178 -0.1240 -0.3127 -0.2160
13733TIP3    H162614   4.988   4.873   2.158  0.0135  0.0653  0.8918
13733TIP3    H262615   4.901   4.749   2.162  0.2454 -0.1861 -0.9670
13734TIP3   OH262616   1.311   4.181   4.257  0.4165 -0.0797 -0.0976
13734TIP3    H162617   1.268   4.241   4.195  0.2183  0.0714  0.1866
13734TIP3    H262618   1.377   4.236   4.301 -1.0593  0.4484  1.5562
13735TIP3   OH262619   0.212   6.141   6.834  0.2650 -0.2347 -0.4232
13735TIP3    H162620   0.269   6.112   6.762 -0.0427 -0.0418 -0.7478
13735TIP3    H262621   0.246   6.228   6.857  0.2993 -0.2526 -0.4059
13736TIP3   OH262622   1.491   0.904   1.745 -0.0886 -0.3998  0.3098
13736TIP3    H162623   1.569   0.916   1.799 -1.2742 -0.1552  2.0417
13736TIP3    H262624   1.460   0.993   1.728 -1.6256 -0.5124  2.1876
13737TIP3   OH262625   0.391   0.871   3.143 -0.3193  0.4954  0.8034
13737TIP3    H162626   0.459   0.857   3.209 -0.4795  0.2805  0.9258
13737TIP3    H262627   0.398   0.796   3.085 -1.2159 -0.1342  1.4907
13738TIP3   OH262628   6.300   1.527  11.652 -0.2097  0.2966  0.0455
13738TIP3    H162629   6.381   1.561  11.690 -0.2219 -0.5295  0.8374
13738TIP3    H262630   6.291   1.439  11.689 -0.6193 -0.2469 -1.3176
13739TIP3   OH262631   4.703   2.862  11.281 -0.0324 -0.3805 -0.1109
13739TIP3    H162632   4.701   2.945  11.328 -0.0215 -0.5508  0.1913
13739TIP3    H262633   4.762   2.878  11.206 -0.2366 -0.0423 -0.1998
13740TIP3   OH262634   2.690   0.203  11.300  0.0037 -0.2860 -0.2764
13740TIP3    H162635   2.699   0.266  11.228  2.5706  0.6132  0.7025
13740TIP3    H262636   2.743   0.240  11.370 -1.0191 -1.9985  1.4906
13741TIP3   OH262637   1.877   1.514   6.090 -0.0699 -0.0718 -0.0762
13741TIP3    H162638   1.857   1.594   6.140  0.5194  1.0975 -1.6299
13741TIP3    H262639   1.850   1.443   6.148  3.3380  0.9966  3.2571
13742TIP3   OH262640   4.448   1.122  11.284 -0.1707 -0.5407  0.2032
13742TIP3    H162641   4.390   1.049  11.304 -0.2582 -0.7952 -0.8911
13742TIP3    H262642   4.509   1.087  11.219 -2.5098  1.2274 -3.3062
13743TIP3   OH262643   0.158   1.794   1.014 -0.2334 -0.5765 -0.0659
13743TIP3    H162644   0.197   1.834   1.092  2.4357 -2.0334 -0.5465
13743TIP3    H262645   0.139   1.704   1.040  1.7918 -1.4298 -1.3658
13744TIP3   OH262646   2.378   1.986  15.992  0.0943  0.0418  0.2554
13744TIP3    H162647   2.323   1.930  16.047 -1.8889  2.8592  1.3348
13744TIP3    H262648   2.383   2.069  16.039  0.9125  1.5934 -2.3726
13745TIP3   OH262649   3.670   5.820  13.741 -0.5430  0.4921  0.0839
13745TIP3    H162650   3.669   5.913  13.763  0.9871  0.6630 -0.4521
13745TIP3    H262651   3.744   5.810  13.682 -0.3645 -1.1513  0.5327
13746TIP3   OH262652   3.685   4.257  16.726  0.6025  0.2673 -0.1646
13746TIP3    H162653   3.754   4.264  16.792  1.1708 -0.3128 -0.6870
13746TIP3    H262654   3.667   4.348  16.702  0.2754  0.4981  0.8931
13747TIP3   OH262655   0.170   3.510  15.879 -0.0623 -0.7628  0.1028
13747TIP3    H162656   0.215   3.513  15.794 -1.3643  1.4756 -0.5603
13747TIP3    H262657   0.226   3.562  15.937 -0.3915 -0.2777 -0.0126
13748TIP3   OH262658   4.780   0.426  13.656 -0.0545 -0.2926  0.4108
13748TIP3    H162659   4.768   0.447  13.563  1.7650  0.6843  0.3396
13748TIP3    H262660   4.795   0.332  13.657 -0.7056 -0.4161 -0.2049
13749TIP3   OH262661   5.952   4.532   5.254 -0.1695 -0.6120 -0.4148
13749TIP3    H162662   6.039   4.502   5.225  1.4574  1.4783  1.8839
13749TIP3    H262663   5.943   4.619   5.216 -0.5964 -0.2134  0.5722
13750TIP3   OH262664   1.346   4.406  11.840 -0.0083  0.5883 -0.9854
13750TIP3    H162665   1.417   4.408  11.905  0.9756 -0.3975 -1.9930
13750TIP3    H262666   1.335   4.313  11.820 -0.5843  0.8537 -1.9232
13751TIP3   OH262667   2.310   6.517   5.312 -0.8457  0.4832  0.3427
13751TIP3    H162668   2.289   6.565   5.232 -0.2491  0.6483  0.2839
13751TIP3    H262669   2.335   6.584   5.375  2.0308  0.1784 -0.3489
13752TIP3   OH262670   6.676   0.069  16.707 -0.2312  0.7345 -0.0245
13752TIP3    H162671   6.581   0.072  16.715 -0.1165  1.7706  1.2861
13752TIP3    H262672   6.700  -0.019  16.735 -0.7766  0.5880 -0.0149
13753TIP3   OH262673   0.368   1.025  17.120 -0.3125 -0.1741  0.1890
13753TIP3    H162674   0.289   1.079  17.125 -0.0794  0.2123 -0.2007
13753TIP3    H262675   0.339   0.937  17.143 -1.2593 -0.4397 -1.8731
13754TIP3   OH262676   4.662   0.914  14.072  0.6171  0.4633  1.0725
13754TIP3    H162677   4.638   0.879  13.986 -1.2075  0.0131  1.7371
13754TIP3    H262678   4.754   0.889  14.083  0.7415  0.1132 -0.5246
13755TIP3   OH262679   0.654   0.911  15.149  0.1404 -0.4603  0.1017
13755TIP3    H162680   0.562   0.897  15.126 -0.1285 -1.7608  1.7316
13755TIP3    H262681   0.653   0.986  15.208 -0.4012 -2.3544  2.6916
13756TIP3   OH262682   3.227   4.376   0.583  0.2847  0.2077  0.6028
13756TIP3    H162683   3.133   4.381   0.562  0.6024  0.5365 -0.9185
13756TIP3    H262684   3.263   4.459   0.550  1.3793 -0.6458 -0.4385
13757TIP3   OH262685   1.667   5.095  16.231 -0.6379 -0.1839 -0.2064
13757TIP3    H162686   1.712   5.158  16.174  1.3946 -1.0230  0.3859
13757TIP3    H262687   1.689   5.010  16.195 -0.0972 -0.6908  1.2496
13758TIP3   OH262688   6.743   0.112  10.692 -0.4994  0.4753  0.0821
13758TIP3    H162689   6.774   0.193  10.733  1.4011 -0.1471  0.0025
13758TIP3    H262690   6.648   0.118  10.695 -0.4042  2.1181  1.2421
13759TIP3   OH262691   2.588   6.586   1.937  0.4993  0.0638 -0.3436
13759TIP3    H162692   2.667   6.569   1.885 -0.6315  2.7135 -3.1606
13759TIP3    H262693   2.515   6.570   1.877 -0.9651  1.2576  1.0280
13760TIP3   OH262694   4.387   4.338  13.060  0.0891  0.6456 -0.3241
13760TIP3    H162695   4.384   4.255  13.106 -2.6176  0.8559  0.0152
13760TIP3    H262696   4.430   4.317  12.976 -0.4460 -1.0675 -0.2080
13761TIP3   OH262697   2.736   5.303   1.659 -0.3258 -0.1871  0.3878
13761TIP3    H162698   2.700   5.351   1.584  3.2392  1.0250 -0.7291
13761TIP3    H262699   2.661   5.256   1.695 -2.3047 -0.7895 -3.8946
13762TIP3   OH262700   1.193   1.713  17.146  0.6286  0.1692 -0.5868
13762TIP3    H162701   1.251   1.659  17.093 -1.1095 -1.8529 -0.5425
13762TIP3    H262702   1.205   1.802  17.111  1.2369 -0.7178 -2.8349
13763TIP3   OH262703   1.105   4.712  12.479  0.2340  0.4882  0.3969
13763TIP3    H162704   1.156   4.676  12.551 -0.3738  2.0692  1.6673
13763TIP3    H262705   1.029   4.655  12.472  0.5526  0.0278  0.6363
13764TIP3   OH262706   0.247   4.794   5.602  0.2329  0.4350  0.2262
13764TIP3    H162707   0.256   4.699   5.592  1.0721  0.3175  1.7719
13764TIP3    H262708   0.220   4.806   5.693  2.1454  1.7501  0.6881
13765TIP3   OH262709   1.422   6.120   2.966  0.1850 -0.7374 -0.3440
13765TIP3    H162710   1.373   6.061   2.909 -0.6222 -0.2047 -0.2166
13765TIP3    H262711   1.356   6.180   3.001  0.9399  0.0489 -0.2277
13766TIP3   OH262712   3.848   1.916   0.191  0.0487  0.0759  0.2988
13766TIP3    H162713   3.827   1.831   0.154  0.3040 -0.6562  1.7644
13766TIP3    H262714   3.817   1.979   0.126 -1.2681 -1.0942 -0.2546
13767TIP3   OH262715   3.390   0.705   3.023  0.6455  0.4119 -0.3073
13767TIP3    H162716   3.430   0.792   3.027 -0.2637  0.8071  0.8618
13767TIP3    H262717   3.308   0.718   2.976  0.4579  0.2130 -0.0379
13768TIP3   OH262718   4.778   0.006  16.865  0.9325 -0.1426 -0.3595
13768TIP3    H162719   4.738   0.089  16.892 -0.3466 -0.7493 -0.3207
13768TIP3    H262720   4.717  -0.061  16.895  1.9591 -1.1203 -0.3655
13769TIP3   OH262721   1.533   3.591   3.813 -0.2789 -0.9988  0.2035
13769TIP3    H162722   1.533   3.615   3.905  1.5343  1.0792 -0.2518
13769TIP3    H262723   1.467   3.648   3.773  0.4106 -0.4075 -0.0992
13770TIP3   OH262724   4.630   5.257  16.448  0.0662 -0.2131  0.2498
13770TIP3    H162725   4.700   5.301  16.497 -1.2025  1.7830  0.3933
13770TIP3    H262726   4.552   5.268  16.503 -0.7915 -0.5347 -0.8681
13771TIP3   OH262727   4.346   1.645  12.192 -0.4549 -0.1868  0.6538
13771TIP3    H162728   4.414   1.601  12.242 -0.0515  0.3851  0.6095
13771TIP3    H262729   4.266   1.597  12.214 -0.2346 -0.1331  1.6083
13772TIP3   OH262730   6.193   0.013  15.664 -0.1062  0.9135  0.0879
13772TIP3    H162731   6.179  -0.032  15.747  0.7322  0.8887  0.2204
13772TIP3    H262732   6.287   0.003  15.646 -0.4313  0.0675 -1.3527
13773TIP3   OH262733   0.160   4.560   0.050  0.6488  0.7113 -0.1434
13773TIP3    H162734   0.181   4.582   0.141  1.3898  0.1919 -0.1793
13773TIP3    H262735   0.100   4.629   0.022 -0.0335  0.5817  0.9127
13774TIP3   OH262736   4.019   4.014   4.463  0.2476  0.0488 -0.6422
13774TIP3    H162737   4.078   4.038   4.535 -1.3844  0.5736  0.5866
13774TIP3    H262738   3.937   4.060   4.483 -0.1417  0.5812 -3.1001
13775TIP3   OH262739   5.353   3.733   5.289  0.4117 -0.3720  0.4658
13775TIP3    H162740   5.407   3.702   5.361  2.0951  0.5809 -0.3413
13775TIP3    H262741   5.353   3.662   5.225 -0.4821 -0.9218  1.0404
13776TIP3   OH262742   1.280   3.877   4.960 -1.0302 -0.1142  0.3502
13776TIP3    H162743   1.231   3.822   5.021  0.4964  0.4473  2.1813
13776TIP3    H262744   1.247   3.965   4.974 -1.5133 -0.1433 -0.5387
13777TIP3   OH262745   2.062   0.534   3.957  0.1486 -0.2641 -0.1184
13777TIP3    H162746   2.109   0.522   4.039 -0.6690  0.1094  0.4111
13777TIP3    H262747   2.041   0.445   3.928 -1.0496 -0.3479  0.9566
13778TIP3   OH262748   6.122   5.763  14.726 -0.1722 -0.1967  0.1551
13778TIP3    H162749   6.215   5.744  14.740 -0.3889 -0.2766  1.6062
13778TIP3    H262750   6.122   5.834  14.661  0.8841 -0.3995 -0.0883
13779TIP3   OH262751   4.020   6.335  10.624  0.3728  0.0178  0.7718
13779TIP3    H162752   4.004   6.262  10.565  0.6153  0.3181  0.3356
13779TIP3    H262753   4.003   6.298  10.711 -0.0241 -0.4130  0.5214
13780TIP3   OH262754   1.553   4.827   5.803  0.1722 -0.7791 -0.4839
13780TIP3    H162755   1.601   4.901   5.765 -0.7928  0.6040  0.8817
13780TIP3    H262756   1.575   4.830   5.896 -1.5695 -0.8681 -0.0497
13781TIP3   OH262757   3.587   5.505   5.739 -0.1238 -0.6275  0.1869
13781TIP3    H162758   3.617   5.517   5.648  1.1983 -0.2984  0.6378
13781TIP3    H262759   3.618   5.418   5.763  0.7075 -0.1931  0.7390
13782TIP3   OH262760   2.590   6.183  13.244  0.0717 -0.7351 -0.1858
13782TIP3    H162761   2.660   6.204  13.182  0.2206 -0.1466  0.1684
13782TIP3    H262762   2.557   6.098  13.215 -0.5101 -0.0446 -1.6650
13783TIP3   OH262763   2.790   1.002  16.728 -0.1024 -0.4369  0.1744
13783TIP3    H162764   2.738   0.970  16.801 -1.1973  0.6004 -0.1103
13783TIP3    H262765   2.726   1.021  16.659  0.8349 -0.7409 -0.8063
13784TIP3   OH262766   6.054   0.543  14.395  0.7837 -0.3372  0.4055
13784TIP3    H162767   5.990   0.487  14.350  0.3307 -0.4532  1.1751
13784TIP3    H262768   6.139   0.513  14.363  0.4451  0.1793 -1.0485
13785TIP3   OH262769   1.459   5.284   4.729  0.4595 -0.3816  0.5576
13785TIP3    H162770   1.469   5.307   4.637  2.2330 -1.4617  0.4469
13785TIP3    H262771   1.432   5.193   4.728  1.8576 -0.8253  1.1019
13786TIP3   OH262772   4.845   3.683   5.210 -0.0071  0.0201 -0.3471
13786TIP3    H162773   4.881   3.638   5.134 -1.6936 -1.3209 -0.4225
13786TIP3    H262774   4.897   3.652   5.284 -0.0533 -0.7396 -0.6253
13787TIP3   OH262775   5.215   4.518  15.959  0.1996  0.4308  0.4450
13787TIP3    H162776   5.310   4.508  15.949  0.2188 -0.0767  1.0944
13787TIP3    H262777   5.204   4.605  15.997  0.3653  0.7206 -0.1586
13788TIP3   OH262778   4.032   0.749  13.915  0.3626 -0.1546 -0.3532
13788TIP3    H162779   3.957   0.712  13.962  0.5221  0.0572  0.0788
13788TIP3    H262780   4.034   0.841  13.942  2.2972 -0.6946  1.7173
13789TIP3   OH262781   4.969   5.340   2.048  0.2912 -0.0027 -0.2137
13789TIP3    H162782   4.898   5.403   2.056 -1.0936 -1.2472 -1.8843
13789TIP3    H262783   4.966   5.288   2.128 -0.3945  0.2441 -0.0783
13790TIP3   OH262784   4.871   3.855  10.471 -0.1073  0.1541 -1.0337
13790TIP3    H162785   4.776   3.848  10.464 -0.2695  1.9860 -1.2200
13790TIP3    H262786   4.886   3.898  10.555  0.6575 -1.3657 -0.3594
13791TIP3   OH262787   3.519   3.436  11.541  0.3848  0.0702 -0.2760
13791TIP3    H162788   3.434   3.393  11.553  0.3428  0.5948  1.7868
13791TIP3    H262789   3.499   3.518  11.496 -0.1023 -0.1558 -0.4773
13792TIP3   OH262790   0.341   3.072   5.982  0.3380  0.5832 -0.4791
13792TIP3    H162791   0.370   3.040   6.067  0.2216  2.6300  0.3730
13792TIP3    H262792   0.250   3.098   5.997 -0.0460 -0.1008 -1.5433
13793TIP3   OH262793   3.745   0.227  13.302  0.6345  0.0711 -0.4152
13793TIP3    H162794   3.787   0.307  13.271  0.0109  1.2252  1.5698
13793TIP3    H262795   3.818   0.172  13.331  0.9759  0.8621  0.2853
13794TIP3   OH262796   2.982   0.767  14.763 -0.3863  0.2577  0.8129
13794TIP3    H162797   3.061   0.782  14.711  0.0556  1.6915  1.8375
13794TIP3    H262798   2.992   0.824  14.839 -1.5914 -0.8571  1.8610
13795TIP3   OH262799   4.019   2.564  13.446  0.1775 -0.4367  0.3035
13795TIP3    H162800   3.990   2.580  13.356  0.9258  0.4682  0.2027
13795TIP3    H262801   4.000   2.646  13.492 -1.3868 -1.3202  1.3217
13796TIP3   OH262802   5.397   5.263   5.260 -0.5754 -0.0172  0.0723
13796TIP3    H162803   5.477   5.299   5.299 -1.4389  1.3900  0.6598
13796TIP3    H262804   5.331   5.332   5.275 -1.5646 -0.5472 -1.6090
13797TIP3   OH262805   6.746   0.539  14.025 -0.1952 -0.1640  0.3954
13797TIP3    H162806   6.680   0.491  13.975 -0.8296 -0.0731  1.1184
13797TIP3    H262807   6.718   0.631  14.020 -1.1061 -0.2972  2.0655
13798TIP3   OH262808   6.643   5.066   1.672  0.5259  0.4365  0.1062
13798TIP3    H162809   6.651   5.149   1.627  0.7872 -0.2379 -1.1383
13798TIP3    H262810   6.731   5.047   1.703  1.0492 -0.5632 -1.8451
13799TIP3   OH262811   6.752   6.197   3.567  0.8219 -0.2801  0.3887
13799TIP3    H162812   6.765   6.287   3.596 -0.2081  0.4713 -1.3222
13799TIP3    H262813   6.686   6.162   3.627 -1.2224  1.2068 -0.8827
13800TIP3   OH262814   0.920   5.844   2.402  0.0013 -0.3715 -0.1876
13800TIP3    H162815   0.931   5.781   2.473 -1.5492 -1.6421 -1.0186
13800TIP3    H262816   1.006   5.848   2.359  0.5557 -0.6627  0.8664
13801TIP3   OH262817   0.226   5.232   3.891 -0.4621  0.3896  0.4905
13801TIP3    H162818   0.157   5.239   3.957 -0.8883  0.3491  0.0545
13801TIP3    H262819   0.181   5.249   3.808 -0.3342 -1.4545  0.0012
13802TIP3   OH262820   0.529   1.732  13.171  0.3533  0.0196  0.5415
13802TIP3    H162821   0.491   1.732  13.084 -0.1683  2.2689  0.7195
13802TIP3    H262822   0.453   1.724  13.230  0.3546  1.8896  0.8349
13803TIP3   OH262823   2.006   3.168  11.014 -0.6532 -0.1638 -0.3010
13803TIP3    H162824   1.942   3.177  11.084 -0.4720  0.4924 -0.2024
13803TIP3    H262825   2.080   3.223  11.042 -0.6314  0.2183 -1.0593
13804TIP3   OH262826   1.606   2.575   4.063 -1.3485  0.3668 -0.1854
13804TIP3    H162827   1.628   2.579   3.970 -2.2999 -1.2144 -0.5154
13804TIP3    H262828   1.554   2.654   4.079 -0.4776  1.0846 -0.7680
13805TIP3   OH262829   4.993   4.917   5.294 -0.3872 -0.3265 -0.3994
13805TIP3    H162830   4.929   4.907   5.364 -0.4404  3.3419  0.2737
13805TIP3    H262831   5.054   4.844   5.307 -3.0305 -2.5846  0.3719
13806TIP3   OH262832   0.759   3.935   5.613 -0.6024  0.6289  0.0229
13806TIP3    H162833   0.822   3.876   5.571  0.1047  1.3964 -0.0181
13806TIP3    H262834   0.733   3.889   5.693 -0.3106  0.1123 -0.1717
13807TIP3   OH262835   5.721   2.588   4.634 -0.0635  0.5286  0.0338
13807TIP3    H162836   5.810   2.587   4.669 -0.4208  1.5849  1.0145
13807TIP3    H262837   5.665   2.594   4.711 -1.0209 -0.6435 -0.5425
13808TIP3   OH262838   1.544   6.042   5.579 -0.5597  0.8342  0.0473
13808TIP3    H162839   1.485   5.970   5.600 -1.7317  1.1090 -2.0329
13808TIP3    H262840   1.488   6.120   5.581  0.5334  1.6370  1.5483
13809TIP3   OH262841   5.838   4.091   5.527  0.5412 -0.2983  0.3048
13809TIP3    H162842   5.832   4.018   5.588 -2.3609 -1.9751 -1.7518
13809TIP3    H262843   5.871   4.053   5.446  1.9023  1.3534  0.0254
13810TIP3   OH262844   3.461   4.700  10.744  0.3568  0.4225  0.0762
13810TIP3    H162845   3.466   4.608  10.768  0.5398  0.4614  0.1919
13810TIP3    H262846   3.372   4.712  10.711  0.8781 -0.2230 -1.7036
13811TIP3   OH262847   0.905   0.800  15.576 -0.1778  0.0715 -0.7313
13811TIP3    H162848   0.989   0.817  15.617  0.1493 -0.3900 -1.1923
13811TIP3    H262849   0.858   0.746  15.640 -1.0048  2.1118  0.4855
13812TIP3   OH262850   1.085   5.997  13.383 -0.6882  0.2682  0.3499
13812TIP3    H162851   1.142   5.967  13.311 -2.1659 -1.3011 -0.2476
13812TIP3    H262852   1.091   5.927  13.448 -2.1363 -0.1015  0.1288
13813TIP3   OH262853   6.255   2.125   5.942 -0.1715 -0.1620 -0.0979
13813TIP3    H162854   6.234   2.215   5.919 -0.6349 -0.5351 -1.2073
13813TIP3    H262855   6.184   2.073   5.903  1.0964 -1.1589 -1.1930
13814TIP3   OH262856   4.760   2.429  13.787 -0.2821 -0.0561 -0.4365
13814TIP3    H162857   4.694   2.363  13.805  0.1924 -0.8743 -1.6188
13814TIP3    H262858   4.843   2.388  13.811 -0.0328  0.3052 -0.6666
13815TIP3   OH262859   4.125   6.134  16.207  1.0881  0.4774 -0.1749
13815TIP3    H162860   4.111   6.048  16.167 -0.2436  0.5028  0.1830
13815TIP3    H262861   4.192   6.175  16.153  0.4164 -0.0795 -1.4678
13816TIP3   OH262862   0.626   0.148  11.355  0.6820 -0.4053 -0.1109
13816TIP3    H162863   0.691   0.085  11.388 -0.3813 -0.9747  0.9436
13816TIP3    H262864   0.596   0.109  11.272  0.3928 -1.0534  0.2900
13817TIP3   OH262865   3.935   3.641  16.651 -0.4473  0.3462 -0.1478
13817TIP3    H162866   3.986   3.663  16.573 -1.7037  0.4090 -0.9749
13817TIP3    H262867   3.904   3.725  16.684 -0.4782  0.2629  0.0374
13818TIP3   OH262868   3.753   4.496   1.268  0.7787 -0.0725 -0.1371
13818TIP3    H162869   3.711   4.569   1.223 -1.0408 -1.2811 -0.5048
13818TIP3    H262870   3.763   4.429   1.201 -1.9414 -1.8909  1.1056
13819TIP3   OH262871   4.265   3.287   2.166  0.0938  0.1663 -0.3001
13819TIP3    H162872   4.344   3.297   2.114  1.4363 -0.9248  1.3990
13819TIP3    H262873   4.218   3.214   2.126  0.3706  0.2634 -0.8091
13820TIP3   OH262874   0.016   6.441  15.249  0.4534  0.8864 -0.0593
13820TIP3    H162875  -0.074   6.430  15.220  0.3386  0.6512  0.3702
13820TIP3    H262876   0.063   6.474  15.173  0.0821  0.6412 -0.3956
13821TIP3   OH262877   6.325   4.432  10.895  0.2989  0.5390 -0.3340
13821TIP3    H162878   6.300   4.391  10.812  1.1960 -1.0623  0.1401
13821TIP3    H262879   6.418   4.454  10.883  0.1238  1.3961 -0.1649
13822TIP3   OH262880   4.877   5.265  16.564  0.3036  0.2223  0.0766
13822TIP3    H162881   4.901   5.179  16.599 -1.1800 -0.4876 -0.5649
13822TIP3    H262882   4.950   5.322  16.588  1.6870 -1.3766 -0.1475
13823TIP3   OH262883   2.400   3.899   1.107  0.3168  0.2763 -0.2136
13823TIP3    H162884   2.493   3.920   1.096  0.7278 -0.1091  2.0295
13823TIP3    H262885   2.376   3.854   1.026  2.3071 -0.3251 -0.5321
13824TIP3   OH262886   3.086   0.429  10.515 -0.6726  0.8080  0.5580
13824TIP3    H162887   3.030   0.430  10.437 -1.1533  0.5147  0.8871
13824TIP3    H262888   3.026   0.404  10.586 -0.1268  0.5318  0.9271
13825TIP3   OH262889   5.125   2.103   1.393  0.3132  0.2650 -0.2021
13825TIP3    H162890   5.102   2.180   1.445  0.3414 -1.0579  1.8941
13825TIP3    H262891   5.046   2.049   1.394  0.4304  0.0503 -1.2807
13826TIP3   OH262892   3.464   4.372   2.728  0.1095 -0.1097  0.2407
13826TIP3    H162893   3.538   4.311   2.733  1.1523  1.1769  1.6025
13826TIP3    H262894   3.471   4.409   2.639  1.3319  0.2172  0.4430
13827TIP3   OH262895   6.618   0.833   5.548  0.5002 -0.2190  0.3785
13827TIP3    H162896   6.674   0.898   5.590 -0.8305 -0.1870  2.2553
13827TIP3    H262897   6.638   0.751   5.594  0.4346 -0.6237 -0.3053
13828TIP3   OH262898   2.680   3.013  12.622 -0.0939 -0.1185 -0.3661
13828TIP3    H162899   2.671   2.918  12.635 -0.2922  0.2441  2.9933
13828TIP3    H262900   2.590   3.046  12.622  0.0175  0.2110  0.2977
13829TIP3   OH262901   5.916   1.106  13.394  0.4260 -0.2253  0.2051
13829TIP3    H162902   5.824   1.106  13.368  0.3565  0.4073  0.4403
13829TIP3    H262903   5.964   1.089  13.312  0.0251 -3.3271  0.4806
13830TIP3   OH262904   3.745   5.922   2.941 -0.3863  0.1736 -0.9028
13830TIP3    H162905   3.667   5.898   2.891 -2.2932 -0.4268  2.0676
13830TIP3    H262906   3.725   6.009   2.977  0.1869 -0.0898  0.1036
13831TIP3   OH262907   5.050   0.521   3.632  0.0519 -0.1120 -0.0899
13831TIP3    H162908   5.110   0.596   3.636  0.1824 -0.2126 -0.1349
13831TIP3    H262909   5.040   0.495   3.724  0.4940 -0.4204 -0.1262
13832TIP3   OH262910   2.309   2.012  13.964  0.2086 -0.0754 -0.0985
13832TIP3    H162911   2.396   1.974  13.974  1.0865  1.6102 -0.9240
13832TIP3    H262912   2.258   1.946  13.917  1.8809  0.0342 -2.1636
13833TIP3   OH262913   3.231   4.575   0.026 -0.1073 -0.3617  0.1024
13833TIP3    H162914   3.314   4.542   0.058 -1.0234 -1.8387  1.0738
13833TIP3    H262915   3.220   4.659   0.069  0.8757 -0.1341 -0.0664
13834TIP3   OH262916   2.567   0.690   4.714  0.3246  0.0554 -0.0214
13834TIP3    H162917   2.484   0.709   4.757  0.2336  2.3076 -1.0727
13834TIP3    H262918   2.543   0.639   4.637  0.0505 -0.3229  0.3102
13835TIP3   OH262919   4.630   3.105  12.059  0.0304 -0.1368 -0.4433
13835TIP3    H162920   4.716   3.067  12.076 -0.8121 -1.9179  0.0765
13835TIP3    H262921   4.637   3.141  11.971  1.6379  0.7947  0.0187
13836TIP3   OH262922   5.852   2.256  12.276  0.3661 -0.7109  0.9959
13836TIP3    H162923   5.774   2.215  12.315  0.2112 -0.7088  0.6916
13836TIP3    H262924   5.862   2.213  12.191 -0.9897  1.2466 -0.2342
13837TIP3   OH262925   5.886   0.121   5.634 -0.0649 -0.4488  0.2804
13837TIP3    H162926   5.933   0.189   5.682  0.2000 -0.5150  0.1143
13837TIP3    H262927   5.803   0.162   5.609  0.7315  0.3425 -1.1857
13838TIP3   OH262928   0.229   5.944  12.646 -0.0919  0.8504 -0.5976
13838TIP3    H162929   0.137   5.969  12.646 -0.0850  0.9164 -1.8227
13838TIP3    H262930   0.229   5.851  12.621  0.2101  1.0233 -1.2576
13839TIP3   OH262931   3.673   1.157   4.437  0.1816 -0.6917  0.4102
13839TIP3    H162932   3.621   1.177   4.359 -0.0886 -0.8938  0.5367
13839TIP3    H262933   3.672   1.061   4.442  2.6370 -0.8637 -0.9952
13840TIP3   OH262934   4.975   3.895  13.166 -0.6203 -0.0506  0.1617
13840TIP3    H162935   5.065   3.893  13.132 -0.8935  0.3522 -0.5961
13840TIP3    H262936   4.986   3.883  13.261  0.1636 -0.9322 -0.0198
13841TIP3   OH262937   6.481   1.261  11.672 -0.2878 -0.2032  0.3220
13841TIP3    H162938   6.520   1.286  11.755  0.9138  0.2201 -0.3369
13841TIP3    H262939   6.391   1.238  11.693 -0.4564  1.3761  1.4932
13842TIP3   OH262940   6.767   0.149  15.596 -0.0224  0.3010  0.2883
13842TIP3    H162941   6.678   0.116  15.611 -0.1245  0.3267 -0.2659
13842TIP3    H262942   6.755   0.231  15.548  0.2876  0.4927  0.5357
13843TIP3   OH262943   5.182   1.530  14.766  0.3084 -0.4841 -0.2305
13843TIP3    H162944   5.233   1.450  14.777 -0.4890 -0.8806  0.8409
13843TIP3    H262945   5.245   1.601  14.779  0.6998 -0.9529  0.4834
13844TIP3   OH262946   1.566   2.515   1.521 -0.1457  0.1213  0.1967
13844TIP3    H162947   1.616   2.590   1.552  2.1885 -0.3281 -2.1368
13844TIP3    H262948   1.618   2.439   1.547  0.4881 -0.3668 -2.2553
13845TIP3   OH262949   1.528   4.687  16.729 -0.8463  0.2315  0.4574
13845TIP3    H162950   1.496   4.747  16.661  0.8714 -0.4360 -1.0362
13845TIP3    H262951   1.461   4.619  16.735 -0.4062 -0.4621 -1.6469
13846TIP3   OH262952   4.083   6.384   4.197 -0.9561 -0.5548  0.5810
13846TIP3    H162953   4.127   6.326   4.134 -2.4654 -0.2627 -0.8041
13846TIP3    H262954   4.055   6.459   4.146  1.7860  2.0169  2.5108
13847TIP3   OH262955   1.639   4.766   4.489  0.6709  0.3984 -0.3105
13847TIP3    H162956   1.615   4.734   4.402  0.8027  0.5751 -0.4132
13847TIP3    H262957   1.671   4.856   4.474  2.1652 -0.0974 -0.3026
13848TIP3   OH262958   4.465   5.522  12.455  0.2810 -0.1677 -0.1394
13848TIP3    H162959   4.544   5.529  12.508  0.0592  0.9281  0.0683
13848TIP3    H262960   4.406   5.467  12.508 -0.0045  1.0640  0.8590
13849TIP3   OH262961   6.311   5.739   4.981 -0.0633  0.6259  0.1033
13849TIP3    H162962   6.403   5.719   5.003 -0.7200 -2.3590  0.6100
13849TIP3    H262963   6.304   5.718   4.888 -0.2206  0.8764  0.0597
13850TIP3   OH262964   6.191   3.430   2.881 -0.1320  0.1182  0.0275
13850TIP3    H162965   6.230   3.396   2.800 -1.8139 -0.2002 -0.6931
13850TIP3    H262966   6.129   3.497   2.851 -0.6432  0.1328  1.0683
13851TIP3   OH262967   5.509   6.538  16.766  0.2687  0.1141  0.8179
13851TIP3    H162968   5.538   6.622  16.731  4.7710 -1.0634  1.0376
13851TIP3    H262969   5.539   6.537  16.857 -1.2749 -1.0964  1.3712
13852TIP3   OH262970   1.841   5.788  10.450  0.3665  0.3519 -0.4450
13852TIP3    H162971   1.924   5.758  10.486  0.4334  1.5516  0.4752
13852TIP3    H262972   1.779   5.781  10.523 -0.1836  0.0907 -0.9305
13853TIP3   OH262973   0.678   0.822  12.849 -0.2712 -0.3345 -0.5835
13853TIP3    H162974   0.682   0.907  12.803  3.5679 -0.5954 -1.0202
13853TIP3    H262975   0.610   0.835  12.916 -1.0144  2.4780 -1.7034
13854TIP3   OH262976   0.153   4.567  12.341  0.0486 -0.2554  0.0648
13854TIP3    H162977   0.101   4.645  12.321 -2.7369 -2.2227 -0.9611
13854TIP3    H262978   0.105   4.524  12.412  0.4775 -1.9590 -0.6411
13855TIP3   OH262979   4.219   1.213  14.524 -0.3532 -0.9152  0.4271
13855TIP3    H162980   4.245   1.130  14.564 -1.4864 -2.4895 -1.8821
13855TIP3    H262981   4.281   1.224  14.451 -0.5139  0.0444  0.4287
13856TIP3   OH262982   3.029   2.596   0.544  0.6031 -0.0766 -0.4207
13856TIP3    H162983   3.065   2.523   0.595  0.0534  0.4064  0.7032
13856TIP3    H262984   3.054   2.578   0.454  2.0394 -0.7075  0.0880
13857TIP3   OH262985   2.979   1.744   2.134  1.0140  0.3152  0.3573
13857TIP3    H162986   2.900   1.723   2.185  1.4928 -1.1021  0.5802
13857TIP3    H262987   2.974   1.838   2.118 -0.9991  0.1815 -0.0862
13858TIP3   OH262988   0.916   0.699  12.827  0.1078  0.7884 -0.0639
13858TIP3    H162989   0.842   0.759  12.824 -0.7944 -0.3330 -0.8478
13858TIP3    H262990   0.975   0.728  12.757  0.1981  1.3972  0.2605
13859TIP3   OH262991   1.310   0.255   1.721  0.3765 -0.1241  0.2690
13859TIP3    H162992   1.278   0.202   1.794  0.8289 -1.6691 -0.6225
13859TIP3    H262993   1.277   0.343   1.740 -2.2551 -1.1018  0.7162
13860TIP3   OH262994   6.443   5.628   1.398  0.2012 -0.8183 -0.2082
13860TIP3    H162995   6.480   5.707   1.435 -0.1257 -1.4062  1.4464
13860TIP3    H262996   6.348   5.638   1.409  0.1293 -1.2262 -0.4191
13861TIP3   OH262997   5.556   6.200   1.183  0.4748  0.3802  0.0242
13861TIP3    H162998   5.569   6.271   1.120 -1.5554  0.1479 -0.7326
13861TIP3    H262999   5.467   6.167   1.165  1.4734 -2.6643  0.0269
13862TIP3   OH263000   1.750   0.903  15.969 -0.0684 -0.4862  0.0570
13862TIP3    H163001   1.683   0.956  16.013 -1.9550 -0.1921 -2.8845
13862TIP3    H263002   1.751   0.821  16.018 -1.7074 -0.0391  0.9469
13863TIP3   OH263003   5.484   5.586  16.322 -0.1254 -0.3860 -0.1787
13863TIP3    H163004   5.428   5.515  16.289 -0.2987 -0.4382  0.2225
13863TIP3    H263005   5.570   5.568  16.285 -0.0754 -1.0358  0.2482
13864TIP3   OH263006   3.125   0.189   3.301 -0.2484  0.6777  0.1608
13864TIP3    H163007   3.078   0.266   3.268 -0.6010  0.5743  0.4181
13864TIP3    H263008   3.064   0.116   3.289 -0.2926  0.6023  0.8216
13865TIP3   OH263009   6.715   3.256  14.206 -0.3363 -0.0086 -0.1245
13865TIP3    H163010   6.636   3.296  14.244 -1.0623 -1.3907 -0.1273
13865TIP3    H263011   6.714   3.285  14.114 -0.2033  0.8994  0.1468
13866TIP3   OH263012   0.155   6.241  11.140  0.1544 -0.3123 -0.2065
13866TIP3    H163013   0.066   6.229  11.172 -0.0794  1.1570 -0.2308
13866TIP3    H263014   0.170   6.166  11.082 -0.9181 -0.7808  0.0929
13867TIP3   OH263015   0.047   3.960   5.108 -0.0457  0.4172 -0.3409
13867TIP3    H163016   0.062   3.919   5.193 -0.5578 -0.1921 -0.5350
13867TIP3    H263017   0.125   3.940   5.057 -1.9523 -4.1989 -1.9241
13868TIP3   OH263018   2.267   1.473   4.029  0.0642  0.4082 -0.4074
13868TIP3    H163019   2.277   1.475   3.934 -1.3124  0.5595 -0.5695
13868TIP3    H263020   2.180   1.510   4.045  0.1499  0.1072  0.8976
13869TIP3   OH263021   2.169   5.818   1.903  0.1941  0.1026  0.3136
13869TIP3    H163022   2.092   5.772   1.938  0.0715  0.1780  0.1425
13869TIP3    H263023   2.243   5.771   1.940  0.0650  0.0240  0.4741
13870TIP3   OH263024   0.700   5.825  16.616  0.2907  0.4091  0.2030
13870TIP3    H163025   0.666   5.756  16.559 -0.6199 -0.8049  2.1265
13870TIP3    H263026   0.622   5.863  16.656  0.8749  1.6669  0.1919
13871TIP3   OH263027   6.672   3.684   2.386  0.4900  0.1942  0.1653
13871TIP3    H163028   6.623   3.684   2.304 -1.2599 -0.8934  1.1461
13871TIP3    H263029   6.638   3.761   2.434  1.2050  0.5879  0.0586
13872TIP3   OH263030   0.532   2.021   5.015  0.2816  0.0052  0.2564
13872TIP3    H163031   0.581   1.988   5.090  1.4619  1.8574  0.3652
13872TIP3    H263032   0.599   2.060   4.958 -0.9024  1.2918 -0.3103
13873TIP3   OH263033   6.582   2.574  13.971  0.2317  0.3794 -0.0775
13873TIP3    H163034   6.577   2.657  14.019  1.8860 -0.1187  1.0440
13873TIP3    H263035   6.491   2.555  13.946 -0.3796  1.7576  0.9607
13874TIP3   OH263036   4.469   4.920  13.097 -0.3753 -0.0708 -0.9471
13874TIP3    H163037   4.505   4.849  13.150  1.8865  1.0131 -0.9260
13874TIP3    H263038   4.411   4.876  13.034 -1.9231 -1.5414  1.3306
13875TIP3   OH263039   1.971   1.414  17.041 -0.6012 -0.0441 -0.0605
13875TIP3    H163040   1.906   1.427  17.110 -0.6983 -2.5561  0.4433
13875TIP3    H263041   1.920   1.410  16.960 -0.6204  1.6951 -0.1614
13876TIP3   OH263042   3.500   5.538  14.227 -0.0807  0.2498 -0.9274
13876TIP3    H163043   3.586   5.550  14.187  0.7915 -3.2842 -0.4524
13876TIP3    H263044   3.454   5.479  14.167 -1.1444 -0.0616  0.1567
13877TIP3   OH263045   6.073   3.152   2.865  0.0007 -0.2739 -0.2770
13877TIP3    H163046   6.159   3.142   2.823  2.1006 -2.0010  3.9120
13877TIP3    H263047   6.085   3.224   2.927 -2.2902  0.7533 -0.9063
13878TIP3   OH263048   6.203   6.299   4.610  0.3063  0.2790 -0.1777
13878TIP3    H163049   6.148   6.344   4.674 -1.2881 -1.9591  0.1745
13878TIP3    H263050   6.292   6.303   4.647 -0.4417 -0.2347  1.7910
13879TIP3   OH263051   2.065   2.948   5.480  0.1288 -0.0859  0.6106
13879TIP3    H163052   2.012   2.988   5.411 -0.7894 -0.6926  0.9295
13879TIP3    H263053   2.138   2.908   5.433 -0.6046 -0.6928 -0.0616
13880TIP3   OH263054   3.623   4.155  13.868 -0.1074 -0.9373 -0.3447
13880TIP3    H163055   3.685   4.083  13.875  3.4870  1.7925 -1.0574
13880TIP3    H263056   3.650   4.203  13.790 -0.4972  2.6444  1.5163
13881TIP3   OH263057   4.681   6.673  16.009  0.0166  0.0281  0.1026
13881TIP3    H163058   4.625   6.613  16.058  0.3285  0.5867  1.1632
13881TIP3    H263059   4.651   6.760  16.035 -0.6572  0.3657 -1.6744
13882TIP3   OH263060   2.780   1.909  15.432  0.0765  0.1116  0.3889
13882TIP3    H163061   2.687   1.888  15.438  0.3298 -1.3659 -0.3581
13882TIP3    H263062   2.823   1.824  15.419  1.4736  0.8192  0.1988
13883TIP3   OH263063   5.042   0.852  10.857 -0.4696 -0.4355 -0.4712
13883TIP3    H163064   5.087   0.922  10.810 -0.4626 -0.4444 -0.4779
13883TIP3    H263065   4.974   0.898  10.907 -1.2247 -0.5375 -1.3745
13884TIP3   OH263066   0.653   1.691  15.938  0.0353 -0.3457 -1.5985
13884TIP3    H163067   0.647   1.764  16.000 -1.4558  0.2725 -2.4227
13884TIP3    H263068   0.579   1.635  15.960  0.8186 -1.3271 -1.3733
13885TIP3   OH263069   0.114   3.301  12.254  0.2068 -0.6300  0.0778
13885TIP3    H163070   0.078   3.238  12.317 -0.1521  2.1818  2.9284
13885TIP3    H263071   0.039   3.336  12.208 -0.1507  0.6787  1.5516
13886TIP3   OH263072   5.208   2.547   2.829  0.3095  0.0550 -0.1327
13886TIP3    H163073   5.293   2.578   2.860 -0.1060  2.0596 -0.8270
13886TIP3    H263074   5.224   2.519   2.739  0.6048 -1.5587  0.3751
13887TIP3   OH263075   2.157   4.726   4.786 -0.1132  0.3031 -0.8339
13887TIP3    H163076   2.218   4.777   4.839 -0.1643  0.2284 -0.7017
13887TIP3    H263077   2.213   4.673   4.729  0.0062 -1.0948  0.5162
13888TIP3   OH263078   4.788   2.404  15.274  0.2808  0.2160  0.5062
13888TIP3    H163079   4.758   2.388  15.364  0.3201  0.1992  0.5166
13888TIP3    H263080   4.770   2.497  15.259  1.4286  0.5329  0.9818
13889TIP3   OH263081   0.840   1.863   4.470  0.1442  0.0650 -0.0225
13889TIP3    H163082   0.816   1.864   4.563 -0.7767 -1.7404 -0.1944
13889TIP3    H263083   0.765   1.902   4.425  0.3387  0.3933 -0.0684
13890TIP3   OH263084   4.467   2.457   0.439 -0.1262 -0.2699  0.7333
13890TIP3    H163085   4.545   2.482   0.390  0.3557 -1.4972  0.8158
13890TIP3    H263086   4.501   2.433   0.526 -0.9408  1.7235  1.6695
13891TIP3   OH263087   1.329   2.121  13.020 -0.0822  0.9163 -0.0788
13891TIP3    H163088   1.292   2.207  13.000 -0.0892  0.9791  0.1895
13891TIP3    H263089   1.307   2.107  13.112  0.6436  1.0016  0.1189
13892TIP3   OH263090   0.600   1.932  16.097 -0.1538 -0.4669  0.1420
13892TIP3    H163091   0.645   1.917  16.180  0.1600  0.3749  0.1384
13892TIP3    H263092   0.515   1.968  16.123  0.4602  1.1163  0.1039
13893TIP3   OH263093   1.313   0.688  12.343  0.4292  0.4203  0.0739
13893TIP3    H163094   1.241   0.731  12.298  0.1116 -1.4786 -1.3778
13893TIP3    H263095   1.370   0.656  12.273  2.1188  0.9133  1.1645
13894TIP3   OH263096   5.115   3.207   4.585 -0.0353 -0.1258 -0.0393
13894TIP3    H163097   5.188   3.236   4.531  1.4162 -0.3568  1.7028
13894TIP3    H263098   5.120   3.112   4.584 -0.8220 -0.1712 -0.5402
13895TIP3   OH263099   3.186   1.264   4.597 -0.4074  0.0654  0.1294
13895TIP3    H163100   3.233   1.189   4.633 -0.4795  0.5361  1.2538
13895TIP3    H263101   3.104   1.227   4.563  0.3126 -0.6072 -0.9376
13896TIP3   OH263102   5.403   1.340  16.382  0.4802  0.2289  0.0494
13896TIP3    H163103   5.458   1.413  16.354 -0.6516  1.3530  0.6390
13896TIP3    H263104   5.322   1.382  16.413 -1.7560 -1.4205 -3.0526
13897TIP3   OH263105   3.418   2.988   6.039 -0.3933  0.2883  0.2327
13897TIP3    H163106   3.481   3.058   6.055 -1.2115  0.7158  1.9223
13897TIP3    H263107   3.375   2.976   6.124  0.2677 -2.8351  0.2342
13898TIP3   OH263108   2.078   4.940  12.271 -0.1327  0.4395 -0.4333
13898TIP3    H163109   1.984   4.954  12.258  0.0080  0.1869 -1.9501
13898TIP3    H263110   2.087   4.925  12.365 -1.6438  0.2264 -0.2851
13899TIP3   OH263111   4.782   2.818  15.996 -0.3110  0.2236 -0.7581
13899TIP3    H163112   4.790   2.862  16.081  1.3289  1.1043 -1.3308
13899TIP3    H263113   4.723   2.744  16.013 -0.3163  0.5991  1.0516
13900TIP3   OH263114   3.679   4.455  13.070 -0.6244  0.1377  0.3037
13900TIP3    H163115   3.649   4.366  13.052 -0.1857 -0.0832  0.6553
13900TIP3    H263116   3.742   4.474  13.000 -0.6351  0.1328  0.2927
13901TIP3   OH263117   4.394   5.778  12.352 -0.1930 -0.0874 -0.2632
13901TIP3    H163118   4.393   5.685  12.373 -0.4359  0.3817  2.0483
13901TIP3    H263119   4.466   5.814  12.405 -1.0230  1.2547  0.0076
13902TIP3   OH263120   5.051   3.522   4.591 -0.2251  0.0947  0.7039
13902TIP3    H163121   5.020   3.432   4.599  0.1871 -0.1250 -0.0712
13902TIP3    H263122   4.990   3.573   4.643 -0.3965 -0.6464  1.2443
13903TIP3   OH263123   5.669   4.723  16.197 -0.3080 -0.4918  0.2414
13903TIP3    H163124   5.736   4.660  16.171 -0.2937 -0.6480  0.6437
13903TIP3    H263125   5.694   4.805  16.154  0.3386 -0.4589  0.6596
13904TIP3   OH263126   5.255   0.391   5.345 -0.2549  0.0329 -0.1488
13904TIP3    H163127   5.342   0.411   5.309  0.4205 -1.4916  0.5199
13904TIP3    H263128   5.208   0.474   5.341  2.1441  1.6666  2.0153
13905TIP3   OH263129   4.705   1.444   0.249 -0.1915  0.0910 -0.2810
13905TIP3    H163130   4.629   1.415   0.198 -0.3766  0.9868 -0.5325
13905TIP3    H263131   4.728   1.529   0.211 -0.7519  1.1085  1.5457
13906TIP3   OH263132   3.280   1.707  13.394 -0.0934  0.1538 -0.1910
13906TIP3    H163133   3.338   1.728  13.320  0.9596  0.1182  0.6069
13906TIP3    H263134   3.208   1.770  13.386  2.1594  3.1758  1.2322
13907TIP3   OH263135   0.573   6.059  13.551 -0.1539 -0.4237  0.0283
13907TIP3    H163136   0.631   6.135  13.542  0.1466 -0.7432 -0.8044
13907TIP3    H263137   0.589   6.007  13.472 -2.3449 -0.0112 -0.7562
13908TIP3   OH263138   6.209   5.846  15.858  0.3635  0.0164  0.4387
13908TIP3    H163139   6.254   5.917  15.904  0.2982  1.1904 -1.2080
13908TIP3    H263140   6.274   5.812  15.797 -0.2935  0.2494 -0.4159
13909TIP3   OH263141   3.557   4.871  15.598  0.6343  0.3087 -0.7252
13909TIP3    H163142   3.598   4.806  15.541 -1.3010 -0.4470 -1.3249
13909TIP3    H263143   3.547   4.949  15.543 -1.1859 -0.4042 -1.4926
13910TIP3   OH263144   6.156   0.974  11.367 -0.3832  0.3187  0.3206
13910TIP3    H163145   6.076   0.946  11.322 -1.1082  0.0202  1.7415
13910TIP3    H263146   6.146   1.068  11.376 -0.9288  0.1996  1.1075
13911TIP3   OH263147   3.691   2.480   3.227 -0.0945 -0.4162  0.0232
13911TIP3    H163148   3.668   2.425   3.152 -1.1287  1.5865 -1.1975
13911TIP3    H263149   3.619   2.467   3.289 -0.4322 -0.2826 -0.3388
13912TIP3   OH263150   1.991   4.091  12.584 -0.1221 -0.4806 -0.2892
13912TIP3    H163151   2.009   3.998  12.599 -0.4664 -0.2382  1.9745
13912TIP3    H263152   2.075   4.127  12.555  0.0417 -1.4395 -1.0860
13913TIP3   OH263153   3.525   1.255   4.834  0.2126 -0.0062  0.2824
13913TIP3    H163154   3.445   1.218   4.797  1.3029 -0.6862 -1.5109
13913TIP3    H263155   3.556   1.189   4.896 -0.2572 -0.0049  0.5291
13914TIP3   OH263156   5.526   3.185  16.890 -0.0610 -0.4419 -0.0552
13914TIP3    H163157   5.582   3.214  16.961  1.4685 -0.1903 -1.3045
13914TIP3    H263158   5.503   3.266  16.844  1.8722 -0.8281 -1.8650
13915TIP3   OH263159   0.302   0.002   2.285  0.0456  0.2433 -0.5199
13915TIP3    H163160   0.302  -0.092   2.266 -1.1504  0.0290  0.4266
13915TIP3    H263161   0.393   0.022   2.304  0.1639 -0.9913  0.3944
13916TIP3   OH263162   0.268   0.516  15.450  0.2611  0.2264 -0.2295
13916TIP3    H163163   0.354   0.543  15.417  0.7371 -0.0530  0.7243
13916TIP3    H263164   0.254   0.571  15.526 -0.1674 -0.0926 -0.0775
13917TIP3   OH263165   6.743   2.675  10.792 -0.3313 -0.3006  0.4643
13917TIP3    H163166   6.784   2.684  10.706  0.3259 -2.7948  0.4305
13917TIP3    H263167   6.657   2.637  10.773  0.0756 -1.4945  0.8870
13918TIP3   OH263168   2.701   3.612  11.669 -0.4562 -0.3136  0.6160
13918TIP3    H163169   2.772   3.676  11.664 -0.6580 -0.1517 -0.5091
13918TIP3    H263170   2.745   3.530  11.691 -0.2272  0.2292  2.3592
13919TIP3   OH263171   4.485   4.251  15.367  0.1807  0.8578  0.0696
13919TIP3    H163172   4.507   4.270  15.458 -1.0985  1.0492  0.3571
13919TIP3    H263173   4.568   4.259  15.320  0.8887  0.5685  1.2462
13920TIP3   OH263174   4.235   6.694   5.222  0.0132  0.0582  0.0663
13920TIP3    H163175   4.298   6.763   5.204 -0.0547  0.3949  1.0655
13920TIP3    H263176   4.150   6.737   5.214 -0.0032  0.5757  2.4442
13921TIP3   OH263177   5.990   1.073   2.223  0.1191  0.1522  0.8257
13921TIP3    H163178   6.022   1.048   2.137 -0.6982  0.6590  0.3550
13921TIP3    H263179   5.919   1.135   2.205  0.5231  0.9629  1.8804
13922TIP3   OH263180   6.420   0.418   5.777  0.9779 -0.0542  0.4873
13922TIP3    H163181   6.434   0.376   5.862 -1.3608 -1.4000  0.3037
13922TIP3    H263182   6.376   0.351   5.724  0.5120  1.4192 -1.0881
13923TIP3   OH263183   2.482   2.284   1.767 -0.4231 -0.1097  0.4475
13923TIP3    H163184   2.542   2.309   1.698  0.0554 -0.3483  0.7733
13923TIP3    H263185   2.521   2.206   1.807 -0.7518 -0.0505  0.9054
13924TIP3   OH263186   2.335   2.597   2.212 -0.8338  0.1023  0.1744
13924TIP3    H163187   2.368   2.686   2.226 -0.1174 -0.3757  1.7318
13924TIP3    H263188   2.243   2.601   2.237 -0.9138  0.4890 -0.1661
13925TIP3   OH263189   5.932   0.809  12.159  0.1853  0.2574 -0.4338
13925TIP3    H163190   5.959   0.826  12.069  2.1750 -1.4662 -0.2600
13925TIP3    H263191   5.955   0.717  12.173  1.6048  0.9339  2.3401
13926TIP3   OH263192   2.719   4.667   1.243 -0.2667  0.2541 -0.2430
13926TIP3    H163193   2.677   4.713   1.170  1.7327 -0.1379 -1.7373
13926TIP3    H263194   2.709   4.574   1.222 -4.3730 -0.2695  2.8058
13927TIP3   OH263195   3.745   6.480  12.513  0.0045  0.0398 -0.6495
13927TIP3    H163196   3.666   6.429  12.531 -0.4063  0.5719 -0.8997
13927TIP3    H263197   3.760   6.469  12.419 -1.3360  2.0728 -1.1649
13928TIP3   OH263198   5.542   2.885  13.881  0.0859 -0.5425 -0.0621
13928TIP3    H163199   5.547   2.824  13.954 -0.5814 -0.7138 -0.1529
13928TIP3    H263200   5.626   2.876  13.836  0.9264  0.3274  1.2668
13929TIP3   OH263201   1.652   2.770  13.183 -0.3426  0.2065  0.3891
13929TIP3    H163202   1.725   2.827  13.158  0.9090 -2.0130 -1.2890
13929TIP3    H263203   1.692   2.703  13.238 -1.4818 -0.0105  0.9729
13930TIP3   OH263204   1.579   6.100  12.485 -0.2042  0.7693 -0.0052
13930TIP3    H163205   1.529   6.049  12.421  0.3815 -0.3380  0.3986
13930TIP3    H263206   1.525   6.178  12.500  0.7717  2.3867 -3.7180
13931TIP3   OH263207   1.384   3.619   2.585 -0.3951  0.1133  0.4807
13931TIP3    H163208   1.473   3.614   2.552 -0.8797 -0.3675 -0.7786
13931TIP3    H263209   1.331   3.574   2.520 -1.4191 -0.6126  1.7800
13932TIP3   OH263210   0.241   0.367   2.000  0.2979  0.2069 -0.0338
13932TIP3    H163211   0.251   0.401   1.911  1.1911 -2.5563 -1.1088
13932TIP3    H263212   0.264   0.440   2.057  0.2567  1.8921 -2.0779
13933TIP3   OH263213   6.373   2.203  14.356  0.0634 -0.7043  0.1295
13933TIP3    H163214   6.410   2.130  14.304 -0.5957 -0.3225 -0.9122
13933TIP3    H263215   6.377   2.172  14.446  1.8578 -1.1407 -0.0475
13934TIP3   OH263216   3.374   0.659   4.205 -0.9214 -0.5555  0.2722
13934TIP3    H163217   3.405   0.743   4.171 -0.4918 -0.8827 -0.1622
13934TIP3    H263218   3.290   0.679   4.245 -1.7024 -0.2253 -1.4269
13935TIP3   OH263219   0.646   6.532   4.992 -0.4828 -0.1857 -0.2119
13935TIP3    H163220   0.646   6.614   4.942  0.8531  0.1211  0.2447
13935TIP3    H263221   0.591   6.473   4.941 -0.7889  0.7316 -0.9839
13936TIP3   OH263222   1.801   6.666  16.429  0.7199 -0.0796  0.2769
13936TIP3    H163223   1.709   6.651  16.406  0.1534 -0.6239  2.6350
13936TIP3    H263224   1.797   6.722  16.506  2.4528  1.1518 -0.4781
13937TIP3   OH263225   6.490   2.871  10.598  0.2686 -0.1919 -0.0974
13937TIP3    H163226   6.525   2.923  10.525 -1.7053  0.5237 -0.6006
13937TIP3    H263227   6.456   2.935  10.659 -0.6914 -0.8502  0.0807
13938TIP3   OH263228   3.726   2.284  15.798 -0.0833  0.0310 -0.4732
13938TIP3    H163229   3.748   2.355  15.738  2.2334  0.5181  0.8006
13938TIP3    H263230   3.633   2.296  15.817  0.0132  2.1715 -1.0426
13939TIP3   OH263231   6.298   6.562  15.135 -0.3218 -0.5864 -0.1262
13939TIP3    H163232   6.224   6.614  15.105  1.2651  1.3101 -0.9339
13939TIP3    H263233   6.284   6.553  15.230 -1.1707  0.3964 -0.1441
13940TIP3   OH263234   3.019   3.355  15.171 -0.0050 -0.3472 -0.6315
13940TIP3    H163235   3.004   3.317  15.258 -0.8892  1.4391  0.0487
13940TIP3    H263236   3.094   3.414  15.184 -1.0197  0.9855 -0.7102
13941TIP3   OH263237   2.394   4.124  13.509 -0.9705 -0.2392  0.0684
13941TIP3    H163238   2.469   4.103  13.565 -0.6974  3.0755  1.2064
13941TIP3    H263239   2.430   4.124  13.420 -0.7098 -2.7615  0.1139
13942TIP3   OH263240   3.761   6.368  13.716 -0.1912 -0.4049 -0.4735
13942TIP3    H163241   3.744   6.453  13.757 -0.5899 -0.2957 -0.8634
13942TIP3    H263242   3.773   6.387  13.623  1.4221 -0.5669 -0.3371
13943TIP3   OH263243   5.372   6.003   0.688  0.1404  0.3383 -0.7115
13943TIP3    H163244   5.363   5.999   0.592  0.5688 -0.1245 -0.7421
13943TIP3    H263245   5.289   6.038   0.719 -0.8090 -1.4189 -1.1235
13944TIP3   OH263246   4.684   5.585   3.460 -0.0224  0.1680 -0.0410
13944TIP3    H163247   4.654   5.595   3.550 -1.6389  1.3993 -0.6710
13944TIP3    H263248   4.735   5.504   3.460 -0.7584 -0.3301  1.7719
13945TIP3   OH263249   0.600   3.975  12.160 -0.3516 -0.5045 -0.1710
13945TIP3    H163250   0.624   3.890  12.198 -0.3201 -0.8214 -0.8915
13945TIP3    H263251   0.551   3.953  12.080 -0.8793  0.1521 -0.0407
13946TIP3   OH263252   0.239   5.906   5.221  0.1094 -0.5568  0.0293
13946TIP3    H163253   0.210   5.942   5.138 -0.9233 -0.7639  0.2917
13946TIP3    H263254   0.186   5.828   5.235 -0.0632 -0.2719  1.0967
13947TIP3   OH263255   6.176   6.447  13.575  0.2143 -0.0619 -0.4831
13947TIP3    H163256   6.238   6.519  13.567 -1.1111  1.0261 -1.5766
13947TIP3    H263257   6.154   6.424  13.485 -0.5032 -0.8410 -0.1293
13948TIP3   OH263258   2.053   2.462  15.921  0.1299 -0.2365  0.1531
13948TIP3    H163259   2.076   2.371  15.901 -0.3486 -0.3605  0.1368
13948TIP3    H263260   2.135   2.510  15.914  0.8009 -0.9791  2.0845
13949TIP3   OH263261   5.515   6.011   2.538 -0.1990  0.2520 -0.1934
13949TIP3    H163262   5.442   5.988   2.480 -0.2378  1.1101 -0.4875
13949TIP3    H263263   5.576   6.060   2.482  0.5708 -0.3798  0.0711
13950TIP3   OH263264   0.668   0.837  15.477  0.0452  0.0325 -0.0388
13950TIP3    H163265   0.646   0.926  15.450 -0.5711 -0.3940 -1.0124
13950TIP3    H263266   0.748   0.846  15.529 -0.5250  1.2534  0.6618
13951TIP3   OH263267   3.790   4.302   5.768  0.0022  0.0773 -0.5014
13951TIP3    H163268   3.797   4.234   5.834 -1.1829  0.7908  0.3896
13951TIP3    H263269   3.837   4.377   5.805 -1.0460  0.6272 -0.2334
13952TIP3   OH263270   6.659   2.815   5.109  0.0467  0.7605 -0.5090
13952TIP3    H163271   6.614   2.741   5.069  0.9312  0.7051 -1.4247
13952TIP3    H263272   6.747   2.782   5.128 -0.3590  0.7312  1.6544
13953TIP3   OH263273   6.076   6.100  16.385 -0.8371 -0.4759 -0.2170
13953TIP3    H163274   6.123   6.023  16.416 -0.5240 -0.7184 -1.2530
13953TIP3    H263275   6.046   6.077  16.298 -0.4324  0.6933 -0.6914
13954TIP3   OH263276   5.856   5.477  11.069 -0.1377 -0.5432 -0.2972
13954TIP3    H163277   5.848   5.434  10.983 -1.7654  0.9213 -0.9284
13954TIP3    H263278   5.848   5.405  11.132  0.4610 -1.5698 -1.3414
13955TIP3   OH263279   3.621   3.646   2.892  0.1958 -0.0988 -0.2828
13955TIP3    H163280   3.684   3.597   2.946  0.0812  0.8932  0.8076
13955TIP3    H263281   3.594   3.585   2.824  0.2534 -1.4526  0.8657
13956TIP3   OH263282   2.243   5.379  16.611 -0.6019  0.1576  0.3556
13956TIP3    H163283   2.250   5.433  16.689  1.4788 -0.4541  0.6651
13956TIP3    H263284   2.173   5.317  16.631  0.4449 -0.5311  2.1361
13957TIP3   OH263285   5.361   3.498   3.842  0.1983 -0.5292 -0.0669
13957TIP3    H163286   5.452   3.498   3.814 -0.3476  0.5915 -2.0615
13957TIP3    H263287   5.349   3.414   3.886  2.6074  0.0214  1.8857
13958TIP3   OH263288   5.630   2.132   4.751 -0.1238 -0.5821 -0.8821
13958TIP3    H163289   5.666   2.044   4.757  0.4166 -0.3443 -0.4916
13958TIP3    H263290   5.541   2.125   4.783 -0.4802 -1.2108 -1.9744
13959TIP3   OH263291   6.183   5.593  11.586  0.4131  0.3846 -0.0105
13959TIP3    H163292   6.218   5.627  11.668  1.2395  1.2021 -0.6764
13959TIP3    H263293   6.094   5.626  11.581  0.2953  0.1673  0.6433
13960TIP3   OH263294   3.564   0.240   0.950  0.0013  0.0397  1.0705
13960TIP3    H163295   3.558   0.188   1.030  1.4049 -0.3666  0.9386
13960TIP3    H263296   3.581   0.176   0.881 -2.4226  0.2265  0.1897
13961TIP3   OH263297   6.488   1.064  11.917  0.0850  0.0404  0.9831
13961TIP3    H163298   6.557   1.002  11.891 -0.1483 -0.0578  0.5949
13961TIP3    H263299   6.536   1.139  11.953  0.4963  0.7745 -0.9694
13962TIP3   OH263300   3.138   1.699   1.344  0.2748  0.7318  0.3211
13962TIP3    H163301   3.056   1.724   1.386 -0.8412 -0.0550 -1.2893
13962TIP3    H263302   3.150   1.607   1.367 -2.4292 -1.0091 -3.9056
13963TIP3   OH263303   1.166   3.589   4.463 -0.6015 -0.7319  0.3176
13963TIP3    H163304   1.257   3.577   4.490 -0.4605 -0.5627 -0.0673
13963TIP3    H263305   1.121   3.510   4.494  0.1835 -2.0277 -1.6312
13964TIP3   OH263306   0.008   3.447   4.897  0.5008 -1.2965  0.0084
13964TIP3    H163307  -0.025   3.361   4.871 -1.9954 -0.0391 -1.2929
13964TIP3    H263308   0.013   3.497   4.815  0.7759  0.1434  0.8614
13965TIP3   OH263309   0.020   3.439   1.281 -0.7203  0.5979  0.4597
13965TIP3    H163310   0.062   3.479   1.357  0.7743 -1.2888  0.6917
13965TIP3    H263311   0.092   3.418   1.222 -1.5739 -0.5732 -0.2052
13966TIP3   OH263312   6.109   5.855   0.046  0.7845 -0.4990 -0.4027
13966TIP3    H163313   6.094   5.863  -0.048 -2.9613  0.2262  0.0718
13966TIP3    H263314   6.165   5.778   0.055  0.6203 -1.0559 -3.1629
13967TIP3   OH263315   1.168   3.825  13.652  0.5102 -0.1632  0.7681
13967TIP3    H163316   1.259   3.802  13.668  0.5335 -1.7975 -1.1849
13967TIP3    H263317   1.118   3.753  13.690  0.0423  0.4577  1.3586
13968TIP3   OH263318   5.725   6.183  11.831  0.2991  0.0691 -0.3860
13968TIP3    H163319   5.816   6.203  11.809  0.4911 -1.6087 -1.3200
13968TIP3    H263320   5.679   6.186  11.747  0.0296 -1.5824 -0.3338
13969TIP3   OH263321   5.673   5.654   4.649  0.1539  0.0405 -0.5554
13969TIP3    H163322   5.666   5.566   4.613 -0.2013 -0.2870  0.2786
13969TIP3    H263323   5.588   5.694   4.631 -0.0005 -0.1011 -0.1693
13970TIP3   OH263324   5.879   0.995  13.099 -0.0818  0.4101  0.7428
13970TIP3    H163325   5.795   0.969  13.137 -0.0313  3.4288  3.3304
13970TIP3    H263326   5.941   0.928  13.129 -0.8495  0.4073  2.4206
13971TIP3   OH263327   5.223   0.148  13.717 -0.0055 -0.2117  0.5882
13971TIP3    H163328   5.266   0.193  13.790  0.0120 -2.2406  1.9232
13971TIP3    H263329   5.239   0.055  13.734 -1.5899 -0.8353 -1.0192
13972TIP3   OH263330   0.137   2.695   1.287 -0.9128 -0.3170  0.1583
13972TIP3    H163331   0.098   2.732   1.366 -1.9178 -1.4507  0.2378
13972TIP3    H263332   0.129   2.600   1.300 -1.1818 -0.5137 -1.3413
13973TIP3   OH263333   4.936   1.181   4.776  0.3033 -0.3767 -0.0875
13973TIP3    H163334   5.029   1.159   4.781  0.1352 -0.9772  0.6472
13973TIP3    H263335   4.891   1.100   4.799 -0.3939  0.0900  0.2408
13974TIP3   OH263336   2.279   3.211   1.944 -0.1429  0.3757  0.3914
13974TIP3    H163337   2.197   3.228   1.990  0.4912  0.4072  1.5469
13974TIP3    H263338   2.328   3.293   1.951 -0.4025  0.6989 -1.1782
13975TIP3   OH263339   4.054   0.082  12.277  0.2956 -0.1943  0.2940
13975TIP3    H163340   3.966   0.046  12.291  0.6535 -0.9468  0.6443
13975TIP3    H263341   4.098   0.017  12.223  0.3008  0.6965 -0.8292
13976TIP3   OH263342   6.255   2.371   3.312  0.4816 -0.3056 -0.1794
13976TIP3    H163343   6.330   2.314   3.332  1.0317  0.1569 -0.8837
13976TIP3    H263344   6.257   2.438   3.380 -0.5102 -1.4116  1.0003
13977TIP3   OH263345   6.687   6.290   0.215  0.4892 -0.4799  0.1337
13977TIP3    H163346   6.752   6.309   0.283  0.5357  0.5462 -0.1723
13977TIP3    H263347   6.604   6.320   0.251  0.4444 -0.3365 -0.0830
13978TIP3   OH263348   5.327   3.527   3.299 -0.0862 -0.1789  0.7777
13978TIP3    H163349   5.358   3.604   3.347  1.6648 -1.9367  2.6325
13978TIP3    H263350   5.231   3.535   3.301 -0.0498  0.5698  3.3626
13979TIP3   OH263351   1.001   4.841   1.004 -0.4080  0.1136 -0.2473
13979TIP3    H163352   0.985   4.875   1.093 -1.8946 -0.2060 -0.3608
13979TIP3    H263353   1.014   4.747   1.016  0.3314  0.2058 -0.2824
13980TIP3   OH263354   5.744   5.302  15.789 -0.2110  0.3752  0.6821
13980TIP3    H163355   5.802   5.227  15.773 -0.5970  0.0500  0.7854
13980TIP3    H263356   5.778   5.371  15.733  0.1922  0.1413  0.6363
13981TIP3   OH263357   0.630   3.768   5.397  0.1411 -0.8344 -0.1168
13981TIP3    H163358   0.621   3.863   5.389 -1.6606 -0.8674  1.0506
13981TIP3    H263359   0.691   3.744   5.327 -2.2254  0.7144 -2.9253
13982TIP3   OH263360   4.255   0.330   5.378 -0.1480  0.2908  0.7625
13982TIP3    H163361   4.176   0.374   5.346  0.2929  1.3319  1.0408
13982TIP3    H263362   4.230   0.289   5.460 -0.8898 -1.0723 -0.1067
13983TIP3   OH263363   6.090   5.198  13.455 -0.4054 -0.1740 -0.3124
13983TIP3    H163364   6.183   5.186  13.474 -0.8794 -1.0670  1.7981
13983TIP3    H263365   6.068   5.128  13.394  0.1492 -0.3775 -0.2786
13984TIP3   OH263366   0.563   5.850   0.986  0.5530 -0.4955  0.8906
13984TIP3    H163367   0.588   5.894   0.905 -0.1650 -0.3906  0.7204
13984TIP3    H263368   0.483   5.894   1.015 -0.4512 -1.9430  0.4721
13985TIP3   OH263369   1.470   6.688  14.969 -0.2764 -0.1603 -0.3304
13985TIP3    H163370   1.503   6.610  15.014 -0.7431  0.7082  1.6081
13985TIP3    H263371   1.381   6.698  15.001  0.0797  1.6925  0.2116
13986TIP3   OH263372   6.116   5.048   1.477  0.3057  0.3219 -0.3888
13986TIP3    H163373   6.144   5.046   1.568  1.2703 -0.0101 -0.6868
13986TIP3    H263374   6.112   5.141   1.455  0.0303  0.4048 -0.0092
13987TIP3   OH263375   2.902   0.999  11.043  0.1404 -0.3752 -0.1473
13987TIP3    H163376   2.950   0.988  10.961 -2.8634 -0.7857 -1.9919
13987TIP3    H263377   2.932   0.926  11.098  2.9420  0.4702 -0.3998
13988TIP3   OH263378   1.859   6.361  15.901  0.3151 -0.0011  0.2348
13988TIP3    H163379   1.825   6.303  15.969 -2.7936  1.8538  0.4252
13988TIP3    H263380   1.914   6.423  15.947  0.4602 -0.4178  0.6272
13989TIP3   OH263381   5.382   1.493  16.053 -0.1809 -0.1596 -0.4326
13989TIP3    H163382   5.415   1.500  16.143 -2.6102 -0.9464  0.6168
13989TIP3    H263383   5.329   1.571  16.041  0.3601  0.0802 -1.3113
13990TIP3   OH263384   0.954   5.679   0.063 -0.2986  0.0906  0.2905
13990TIP3    H163385   0.965   5.601   0.118  1.9521 -0.9780 -1.5216
13990TIP3    H263386   1.036   5.727   0.073 -0.1166  0.2220 -1.5528
13991TIP3   OH263387   5.872   4.191  15.196 -0.3461 -0.2244 -0.5436
13991TIP3    H163388   5.935   4.259  15.218 -1.0190  0.2079  0.0776
13991TIP3    H263389   5.834   4.164  15.279 -0.6651 -0.8013 -0.8630
13992TIP3   OH263390   4.940   0.072   0.469  0.2659 -0.3379  0.1051
13992TIP3    H163391   4.937   0.152   0.417  0.4813 -1.0449 -1.0460
13992TIP3    H263392   4.894   0.093   0.550  1.6105  1.3869  0.4842
13993TIP3   OH263393   3.543   3.162   5.145  0.1635 -0.2814 -0.3115
13993TIP3    H163394   3.555   3.247   5.188  0.4110  1.1897 -3.0789
13993TIP3    H263395   3.612   3.106   5.182  0.0248  0.7101  1.5223
13994TIP3   OH263396   3.659   1.492   1.870  0.4238  0.6016  0.0854
13994TIP3    H163397   3.583   1.504   1.926 -1.4615 -0.2725 -2.1294
13994TIP3    H263398   3.668   1.398   1.859 -1.2054  0.6775 -3.3439
13995TIP3   OH263399   4.239   3.895  12.097  0.0957 -0.3065  0.4359
13995TIP3    H163400   4.236   3.940  12.181 -2.4190  0.0663  0.2227
13995TIP3    H263401   4.259   3.964  12.033 -1.9354  0.2243  0.3191
13996TIP3   OH263402   5.946   2.031  13.906 -0.1612 -0.1752 -0.3359
13996TIP3    H163403   5.967   2.090  13.833 -0.7543  0.4591 -0.0034
13996TIP3    H263404   6.001   1.954  13.891 -0.7115 -0.3086 -1.7759
13997TIP3   OH263405   3.799   2.785  11.358 -0.1389  0.7316 -0.2420
13997TIP3    H163406   3.788   2.880  11.359  0.2874  0.7912  0.9203
13997TIP3    H263407   3.723   2.752  11.407 -0.5735  0.4282 -1.1053
13998TIP3   OH263408   6.278   5.656   4.714  0.8587  0.2814 -0.6123
13998TIP3    H163409   6.187   5.651   4.686  0.2844 -1.1380  1.2893
13998TIP3    H263410   6.325   5.597   4.655 -0.1674 -1.9897  0.7044
13999TIP3   OH263411   5.763   3.541   1.102  0.2929  0.1385 -0.3765
13999TIP3    H163412   5.758   3.478   1.031  0.6049  1.7072 -1.8640
13999TIP3    H263413   5.677   3.538   1.144 -0.9302  1.1227 -2.6135
14000TIP3   OH263414   2.405   2.411  15.020  0.2092 -0.0838 -0.0876
14000TIP3    H163415   2.485   2.392  15.068  0.5412  1.1299 -0.1100
14000TIP3    H263416   2.344   2.342  15.045  0.5439  0.2298  1.6828
14001TIP3   OH263417   0.633   2.514   2.811  0.2304 -0.0941 -0.0315
14001TIP3    H163418   0.597   2.546   2.893 -0.2262 -0.1583 -0.2069
14001TIP3    H263419   0.579   2.439   2.787 -1.9067  1.9462 -2.1347
14002TIP3   OH263420   2.046   0.157   3.682  0.4632 -0.5716  0.1567
14002TIP3    H163421   2.083   0.203   3.606 -0.7808  0.6062  0.2209
14002TIP3    H263422   1.953   0.178   3.679  0.2863 -1.0479  1.6484
14003TIP3   OH263423   3.633   4.870  15.281 -0.2162 -0.1720 -0.0685
14003TIP3    H163424   3.694   4.909  15.343  0.6817  0.3100 -1.2211
14003TIP3    H263425   3.685   4.806  15.233 -0.9304 -0.6299 -0.2545
14004TIP3   OH263426   4.104   1.738   4.512  0.3146  0.0371  0.9441
14004TIP3    H163427   4.131   1.704   4.426 -1.1751  1.3712 -0.0930
14004TIP3    H263428   4.069   1.661   4.558 -0.2754 -0.4204 -0.2281
14005TIP3   OH263429   0.636   4.942  12.889  0.6174  0.2086  0.0624
14005TIP3    H163430   0.722   4.978  12.913  0.7402  0.4462 -0.7338
14005TIP3    H263431   0.638   4.853  12.923  1.0215  0.3383  0.3984
14006TIP3   OH263432   1.673   0.637  13.083  0.3325  0.8424  0.2952
14006TIP3    H163433   1.578   0.639  13.082  0.3337  2.7136 -1.1552
14006TIP3    H263434   1.700   0.717  13.038  2.6033  0.5570  0.9841
14007TIP3   OH263435   2.675   4.698  15.286 -0.0304 -0.4083  0.1175
14007TIP3    H163436   2.726   4.654  15.219  1.1118 -0.5839  1.0724
14007TIP3    H263437   2.726   4.776  15.308  0.3346 -1.0550  1.7327
14008TIP3   OH263438   5.399   0.811   3.470 -0.5376  0.1179 -0.1376
14008TIP3    H163439   5.470   0.767   3.516 -2.4252 -1.3088  1.6057
14008TIP3    H263440   5.392   0.897   3.513 -0.2263  0.0554  0.0404
14009TIP3   OH263441   4.751   0.803  13.307  0.0050  0.5181  0.2491
14009TIP3    H163442   4.846   0.806  13.297  0.0637  0.1874  0.6837
14009TIP3    H263443   4.727   0.892  13.333  0.2940  0.4028  0.9328
14010TIP3   OH263444   3.210   5.785   5.352  0.0901  0.2559  0.2604
14010TIP3    H163445   3.166   5.869   5.339 -0.4410  0.2149  1.6250
14010TIP3    H263446   3.174   5.752   5.435  0.1800 -1.3851 -0.3207
14011TIP3   OH263447   2.737   3.087  11.903 -0.3364  0.5810 -0.2868
14011TIP3    H163448   2.662   3.026  11.905 -0.7463  0.9653 -1.9808
14011TIP3    H263449   2.790   3.063  11.979 -1.2105 -0.9711 -0.1256
14012TIP3   OH263450   0.847   1.368   5.647 -0.9846 -0.0404 -0.4564
14012TIP3    H163451   0.895   1.363   5.564 -1.3671 -0.7268 -0.6485
14012TIP3    H263452   0.775   1.429   5.629 -1.3458 -0.5567 -0.7810
14013TIP3   OH263453   3.796   1.703   1.740  0.0370 -0.3298  0.4088
14013TIP3    H163454   3.739   1.649   1.795 -0.4135  1.3812  1.6998
14013TIP3    H263455   3.884   1.690   1.776  0.3487 -2.0482 -0.8403
14014TIP3   OH263456   4.037   4.912  12.434  0.4694  0.7022  0.3265
14014TIP3    H163457   4.029   4.991  12.381  1.0200 -0.7146 -1.9962
14014TIP3    H263458   4.125   4.880  12.417 -0.2791 -1.2782 -0.0768
14015TIP3   OH263459   3.450   1.223  11.062 -0.3970  0.1059  0.3395
14015TIP3    H163460   3.478   1.146  11.013 -1.2762  0.3741 -0.6123
14015TIP3    H263461   3.495   1.215  11.146 -0.7381 -1.6296  0.4020
14016TIP3   OH263462   6.044   2.613   6.285 -0.0026  0.0085  0.8646
14016TIP3    H163463   6.031   2.648   6.373  2.2887  0.6430  1.0114
14016TIP3    H263464   6.074   2.524   6.298 -0.3485 -0.1381  0.6844
14017TIP3   OH263465   6.426   1.004  13.693  0.1496 -0.1483  0.5263
14017TIP3    H163466   6.470   0.923  13.718  1.2278 -0.2694 -1.5964
14017TIP3    H263467   6.491   1.072  13.709  0.3240 -0.0632 -0.5072
14018TIP3   OH263468   2.159   2.691   0.993  1.0026  0.5389  0.0516
14018TIP3    H163469   2.220   2.630   0.952  1.4575 -1.0101  2.7918
14018TIP3    H263470   2.082   2.690   0.937  2.6044  0.8051 -2.2712
14019TIP3   OH263471   6.753   2.516   4.654  0.0155 -0.0285 -0.3068
14019TIP3    H163472   6.670   2.554   4.682  1.2583  2.0286  0.7882
14019TIP3    H263473   6.816   2.542   4.721  1.5381 -1.7364 -0.9712
14020TIP3   OH263474   5.456   3.494   5.792  0.4120  0.1765 -0.1178
14020TIP3    H163475   5.447   3.479   5.886  0.0714 -0.9042 -0.3019
14020TIP3    H263476   5.477   3.408   5.756  2.2063  0.8818 -0.8617
14021TIP3   OH263477   1.138   1.210  14.802 -0.5582 -0.4203 -0.4216
14021TIP3    H163478   1.132   1.228  14.895 -1.1059 -1.1464 -0.3026
14021TIP3    H263479   1.094   1.283  14.759  1.7683  1.1644 -0.2676
14022TIP3   OH263480   6.392   0.035  13.931 -0.6071  0.5655  0.5472
14022TIP3    H163481   6.331   0.107  13.916 -1.7690 -0.5425 -0.3448
14022TIP3    H263482   6.355  -0.013  14.005  0.0183  0.7335  0.9751
14023TIP3   OH263483   2.757   1.655   1.185 -0.0411  0.3189  0.4978
14023TIP3    H163484   2.816   1.617   1.120  0.6088 -0.9512  1.7776
14023TIP3    H263485   2.699   1.712   1.134  0.9776  0.0330 -1.0651
14024TIP3   OH263486   2.622   4.808  12.028 -0.2089 -0.2726 -0.3138
14024TIP3    H163487   2.700   4.753  12.028 -0.0193 -0.3215  3.9445
14024TIP3    H263488   2.553   4.752  11.994  0.6150 -2.0799  0.8503
14025TIP3   OH263489   0.723   4.402   4.722  0.1241 -0.3456  0.3278
14025TIP3    H163490   0.800   4.445   4.759 -0.1688  2.3287 -1.8161
14025TIP3    H263491   0.759   4.343   4.655  0.4324  1.9134 -1.6542
14026TIP3   OH263492   3.980   6.759   5.132 -0.1600  0.1011 -0.4097
14026TIP3    H163493   3.946   6.752   5.043 -1.8306  1.2195  0.1070
14026TIP3    H263494   3.961   6.848   5.159  1.2320  0.0976  0.7429
14027TIP3   OH263495   4.142   2.369   6.045 -0.7524  0.2822  0.0985
14027TIP3    H163496   4.124   2.279   6.019 -0.6313  0.2768  0.0296
14027TIP3    H263497   4.091   2.382   6.124  0.7654 -0.5028  1.2576
14028TIP3   OH263498   1.622   3.856  13.190  0.3892 -0.3621  0.2768
14028TIP3    H163499   1.558   3.785  13.196  0.2701 -0.3340 -0.5114
14028TIP3    H263500   1.634   3.870  13.096  0.3653  0.7000  0.4161
14029TIP3   OH263501   1.875   1.164   4.803 -0.3207  0.3294 -0.4220
14029TIP3    H163502   1.880   1.149   4.898 -0.7769 -1.0587 -0.5934
14029TIP3    H263503   1.874   1.259   4.794  0.8078  0.5020  0.8967
14030TIP3   OH263504   5.502   3.534   2.426  0.9490  0.5806  0.0371
14030TIP3    H163505   5.582   3.548   2.477  2.2318 -0.5110 -1.5952
14030TIP3    H263506   5.493   3.439   2.421  1.2239  0.6307 -2.2570
14031TIP3   OH263507   6.286   5.354   0.495  0.5456 -0.1563  0.5609
14031TIP3    H163508   6.197   5.378   0.470  0.7012 -1.1588 -1.0447
14031TIP3    H263509   6.308   5.416   0.565 -1.1109  0.6180  0.4500
14032TIP3   OH263510   1.382   2.580  14.112  0.5882  0.1123  0.3831
14032TIP3    H163511   1.363   2.486  14.111  0.5069  0.1241 -0.7252
14032TIP3    H263512   1.394   2.602  14.019 -0.7492  1.4798  0.5142
14033TIP3   OH263513   3.955   0.444  15.004 -0.4633  0.0135  0.2094
14033TIP3    H163514   3.947   0.474  14.913  1.1832 -0.8601 -0.2658
14033TIP3    H263515   3.871   0.402  15.023 -0.3841 -0.9612 -1.3961
14034TIP3   OH263516   6.320   4.079   1.506 -0.5765  0.0166  0.3476
14034TIP3    H163517   6.275   4.023   1.443  0.5229  1.3008 -1.6719
14034TIP3    H263518   6.278   4.164   1.496  0.2789  0.4791  0.6127
14035TIP3   OH263519   1.590   4.122  12.236  0.3887 -0.6815  0.2586
14035TIP3    H163520   1.606   4.184  12.165  0.0017 -1.4144 -0.4861
14035TIP3    H263521   1.610   4.171  12.316 -0.2812  0.5287 -0.2895
14036TIP3   OH263522   2.809   2.692   0.366 -0.3264  0.0762  0.0786
14036TIP3    H163523   2.865   2.680   0.443 -0.0294 -0.3874 -0.2054
14036TIP3    H263524   2.754   2.767   0.389  0.0547  0.2196  0.5691
14037TIP3   OH263525   2.078   6.501  16.844  0.0945 -0.0925  0.2182
14037TIP3    H163526   2.012   6.481  16.911  1.2978  1.3659  1.9468
14037TIP3    H263527   2.158   6.458  16.876  0.5509  0.1402 -0.5907
14038TIP3   OH263528   4.022   0.215  10.694 -0.1227 -0.0339  0.5572
14038TIP3    H163529   4.029   0.284  10.759  1.0734  0.2024  0.2123
14038TIP3    H263530   3.999   0.137  10.744 -1.5579  0.6134  0.9377
14039TIP3   OH263531   4.615   0.399   2.254 -0.8483 -0.9128  0.6558
14039TIP3    H163532   4.547   0.458   2.287  0.4868  0.4755  1.0349
14039TIP3    H263533   4.600   0.397   2.160 -0.2687  0.9506  0.4809
14040TIP3   OH263534   1.266   0.678   3.626 -0.6190  0.4672  0.0916
14040TIP3    H163535   1.324   0.730   3.682 -0.9879  0.8248  0.1448
14040TIP3    H263536   1.221   0.619   3.686  1.3821 -1.4808 -0.1926
14041TIP3   OH263537   5.934   3.898   2.784  0.0527 -0.7385 -0.3338
14041TIP3    H163538   6.000   3.844   2.828  1.6952  0.5067 -1.1260
14041TIP3    H263539   5.954   3.987   2.814 -0.1694 -0.1326 -1.9171
14042TIP3   OH263540   0.257   4.811   1.175  0.3201  0.2565 -0.1436
14042TIP3    H163541   0.274   4.846   1.088 -2.0744 -0.5566 -1.0101
14042TIP3    H263542   0.177   4.760   1.166 -0.1823  0.3839  2.6049
14043TIP3   OH263543   5.697   1.482  14.197  0.1125  0.7764  0.2661
14043TIP3    H163544   5.710   1.530  14.115  1.5345  0.5038  0.3155
14043TIP3    H263545   5.757   1.524  14.259  0.7608 -0.5130  0.5415
14044TIP3   OH263546   3.177   1.277  13.230  0.0842  0.0016 -0.4572
14044TIP3    H163547   3.152   1.202  13.284  1.8766 -0.6124 -0.4370
14044TIP3    H263548   3.226   1.335  13.288 -1.0741  1.1097 -0.5345
14045TIP3   OH263549   1.140   5.210   3.018  0.1675 -0.5492  0.2924
14045TIP3    H163550   1.118   5.270   2.947 -0.3700 -0.6148  0.4035
14045TIP3    H263551   1.230   5.235   3.043 -0.1449  0.3883  0.5272
14046TIP3   OH263552   6.488   4.329   3.511  0.6126  1.0160  0.0869
14046TIP3    H163553   6.481   4.344   3.606  0.4734  0.0600  0.2401
14046TIP3    H263554   6.472   4.415   3.472  0.3116  1.3496  0.9179
14047TIP3   OH263555   2.354   5.262  11.600 -0.2123  0.0577  0.1558
14047TIP3    H163556   2.359   5.328  11.531 -2.2698 -0.9145 -0.9970
14047TIP3    H263557   2.408   5.190  11.569  0.2424  0.3004  0.3771
14048TIP3   OH263558   5.471   6.563  14.257 -0.0886 -0.4841  0.2646
14048TIP3    H163559   5.542   6.536  14.199  1.1237  2.2238  0.3080
14048TIP3    H263560   5.513   6.568  14.343 -0.6084  0.0714  0.4885
14049TIP3   OH263561   2.834   4.136  15.171  0.2286  0.0101 -0.0964
14049TIP3    H163562   2.911   4.185  15.142 -0.2132 -0.1771 -1.7197
14049TIP3    H263563   2.779   4.201  15.215  0.6485  0.4763 -0.2503
14050TIP3   OH263564   1.927   1.825  13.329 -0.1193  0.4514 -0.3334
14050TIP3    H163565   1.850   1.819  13.386 -0.3096 -2.0964 -0.7395
14050TIP3    H263566   1.905   1.771  13.254  0.4843  3.0202 -2.4963
14051TIP3   OH263567   0.030   6.133   4.269  0.3431  0.7066 -0.3106
14051TIP3    H163568  -0.049   6.107   4.316  2.4321 -0.4988  2.9600
14051TIP3    H263569   0.101   6.105   4.327  3.1673  2.0702 -2.8687
14052TIP3   OH263570   0.525   5.342  14.593  0.3591  0.0863  0.3604
14052TIP3    H163571   0.578   5.419  14.612  0.1262  0.6903 -1.2947
14052TIP3    H263572   0.583   5.286  14.540  0.6375 -1.0646  1.7918
14053TIP3   OH263573   1.906   2.508   1.469  0.1740  0.1855 -0.8874
14053TIP3    H163574   1.888   2.415   1.478 -0.6927  0.5082  1.1315
14053TIP3    H263575   1.870   2.531   1.383 -1.3706 -0.9636 -0.5803
14054TIP3   OH263576   3.826   2.702  12.132 -0.0235 -0.0218  0.2717
14054TIP3    H163577   3.844   2.759  12.207  0.4996 -0.8966  0.8314
14054TIP3    H263578   3.730   2.695  12.130 -0.1567  1.5709 -0.3595
14055TIP3   OH263579   1.758   4.415   0.797  0.0249 -0.0280  0.8732
14055TIP3    H163580   1.824   4.482   0.819 -0.4939  0.6204  0.4972
14055TIP3    H263581   1.775   4.393   0.706  0.9956 -1.3556  1.3523
14056TIP3   OH263582   3.107   1.547   3.196  0.3767  0.3571 -0.0849
14056TIP3    H163583   3.175   1.614   3.189  1.7308 -1.0392 -0.8125
14056TIP3    H263584   3.127   1.500   3.277 -0.6243  0.8423  0.4729
14057TIP3   OH263585   4.895   5.274  13.333  0.0575  0.1005 -0.1725
14057TIP3    H163586   4.926   5.333  13.266  1.4964  0.4181  0.7417
14057TIP3    H263587   4.958   5.282  13.405 -0.0158 -2.0755  0.2286
14058TIP3   OH263588   0.506   0.781   1.996  0.0026 -0.0393 -0.5812
14058TIP3    H163589   0.508   0.875   2.014 -0.0882  0.0736 -1.1279
14058TIP3    H263590   0.419   0.753   2.022  0.5201 -0.2698  0.9773
14059TIP3   OH263591   3.215   6.595  12.002  0.0012  0.4366  0.1899
14059TIP3    H163592   3.158   6.647  11.945  1.3360 -0.4664 -2.1201
14059TIP3    H263593   3.225   6.512  11.956  0.6238 -0.6257  2.1339
14060TIP3   OH263594   1.935   3.545  16.442 -0.0760 -0.2760  0.2197
14060TIP3    H163595   2.017   3.592  16.425 -1.9866  2.2235 -3.6061
14060TIP3    H263596   1.905   3.581  16.526  1.7773  0.1591  0.7608
14061TIP3   OH263597   1.483   6.429   3.042 -0.1990 -0.1167  0.0751
14061TIP3    H163598   1.548   6.417   3.112  0.5866  0.0123 -0.6190
14061TIP3    H263599   1.524   6.391   2.965 -1.3968 -1.0109 -0.1512
14062TIP3   OH263600   5.749   0.569   3.599 -0.0830 -0.1552 -0.1320
14062TIP3    H163601   5.732   0.518   3.520 -0.2943 -1.7365  0.8827
14062TIP3    H263602   5.719   0.657   3.577 -2.7777 -1.1545 -0.9094
14063TIP3   OH263603   5.912   5.530   3.440  0.5587 -0.3891  0.1206
14063TIP3    H163604   5.835   5.584   3.421  0.7281  0.2738  1.1984
14063TIP3    H263605   5.974   5.552   3.371 -0.0993 -0.6943 -0.5800
14064TIP3   OH263606   0.043   3.176  16.154 -0.4411  0.1461  0.4949
14064TIP3    H163607   0.085   3.092  16.134  0.3516  0.5215  0.5579
14064TIP3    H263608  -0.026   3.153  16.217 -1.7824 -0.7765 -1.2249
14065TIP3   OH263609   4.957   4.700   1.382 -0.0672 -0.1807 -0.0485
14065TIP3    H163610   4.879   4.754   1.395  0.9617  0.9163  2.0531
14065TIP3    H263611   4.948   4.629   1.445  0.4796 -0.2046  0.0109
14066TIP3   OH263612   5.191   5.479   4.053  0.3189  0.7268 -0.3960
14066TIP3    H163613   5.278   5.490   4.092 -0.0125  0.0140  0.5679
14066TIP3    H263614   5.209   5.447   3.965  1.0852  2.6900 -1.0052
14067TIP3   OH263615   1.076   4.761  16.365 -0.6537 -0.0071  0.0530
14067TIP3    H163616   0.982   4.752  16.381 -0.6257  0.4579  0.4980
14067TIP3    H263617   1.111   4.796  16.447 -0.6927  3.7226 -1.3133
14068TIP3   OH263618   2.167   5.539   0.762 -0.7658 -0.1471  0.2151
14068TIP3    H163619   2.118   5.483   0.701 -1.5992 -0.4090  1.0918
14068TIP3    H263620   2.163   5.626   0.722 -2.5952 -0.0116  0.5968
14069TIP3   OH263621   6.218   6.156   1.179  0.0844  0.5124  0.0216
14069TIP3    H163622   6.308   6.185   1.197  0.2396 -0.1386  0.3448
14069TIP3    H263623   6.229   6.082   1.118 -0.0407 -1.1583  1.9128
14070TIP3   OH263624   2.506   5.284   5.576 -0.0534 -0.2412  0.8122
14070TIP3    H163625   2.417   5.280   5.540  0.6682  0.2505 -1.0974
14070TIP3    H263626   2.524   5.194   5.604 -1.4101 -0.1967  1.9638
14071TIP3   OH263627   4.960   4.193   0.985  0.0690 -0.3831 -0.4779
14071TIP3    H163628   4.961   4.272   0.931 -1.1147 -0.8939 -1.2693
14071TIP3    H263629   4.880   4.200   1.037  0.3318 -0.7143 -0.0219
14072TIP3   OH263630   1.853   1.599   4.537 -0.3627  0.1739 -0.5683
14072TIP3    H163631   1.840   1.661   4.465 -0.3233 -1.1162 -1.7081
14072TIP3    H263632   1.882   1.518   4.495 -1.2763 -0.9076  0.8046
14073TIP3   OH263633   0.794   0.943   0.804 -0.1776 -0.0012  0.0587
14073TIP3    H163634   0.722   0.893   0.842  0.1816 -0.3373  0.3120
14073TIP3    H263635   0.792   1.027   0.850 -0.2579 -0.1027  0.2423
14074TIP3   OH263636   5.879   5.824   1.368 -0.1433  0.6789 -0.1337
14074TIP3    H163637   5.891   5.911   1.404 -2.2244  1.1022 -0.3319
14074TIP3    H263638   5.900   5.832   1.275  0.6009  0.7243  0.0356
14075TIP3   OH263639   3.341   5.330  10.804 -0.1459  0.2325 -0.4530
14075TIP3    H163640   3.271   5.301  10.746 -0.9134  1.0201  0.0593
14075TIP3    H263641   3.363   5.418  10.773  1.6394 -0.5451 -1.5231
14076TIP3   OH263642   3.326   1.082   1.919 -0.4192  0.1632 -0.3884
14076TIP3    H163643   3.331   1.078   2.015  0.5543  2.4834 -0.2589
14076TIP3    H263644   3.413   1.056   1.890 -0.9093 -1.1669 -0.7017
14077TIP3   OH263645   0.571   4.712  16.752  0.3067  0.1243 -0.0023
14077TIP3    H163646   0.615   4.797  16.744  1.0631 -0.1602  0.9768
14077TIP3    H263647   0.481   4.729  16.726  0.2534  1.4147  0.9692
14078TIP3   OH263648   3.319   2.963  15.880  0.3006 -0.4819 -0.0368
14078TIP3    H163649   3.289   3.006  15.800  1.8771  1.0670  0.1432
14078TIP3    H263650   3.297   2.871  15.868  0.6777 -0.3186 -2.3542
14079TIP3   OH263651   6.642   0.534   1.945 -0.2138 -0.1294  0.1759
14079TIP3    H163652   6.656   0.451   1.900 -1.1554 -0.0976 -0.2114
14079TIP3    H263653   6.726   0.579   1.938  0.2552 -0.9642  0.2271
14080TIP3   OH263654   2.992   6.340  15.195 -0.2667  0.2001  0.0956
14080TIP3    H163655   2.982   6.323  15.289  0.2942 -0.8069 -0.0183
14080TIP3    H263656   3.064   6.403  15.190  1.3440 -1.5510  0.2326
14081TIP3   OH263657   4.332   2.152   6.747 -0.2287 -0.0396  0.3255
14081TIP3    H163658   4.396   2.202   6.798  0.8273 -0.5370 -0.4733
14081TIP3    H263659   4.378   2.073   6.720 -1.5128 -0.9176  0.5792
14082TIP3   OH263660   1.558   6.010   1.933 -0.6289  0.6149  0.1670
14082TIP3    H163661   1.596   6.065   1.865 -1.1770  1.1807  0.3063
14082TIP3    H263662   1.611   6.028   2.011  1.5470 -1.7996 -0.5918
14083TIP3   OH263663   1.566   4.721   1.028 -0.1437 -0.2752  0.6109
14083TIP3    H163664   1.641   4.766   1.066 -0.0724 -0.7161  1.0047
14083TIP3    H263665   1.539   4.776   0.954  0.6020 -0.1437  0.4336
14084TIP3   OH263666   4.858   1.652  12.252  0.1612 -0.0452  0.5476
14084TIP3    H163667   4.888   1.684  12.167 -0.1256  0.4928  0.6448
14084TIP3    H263668   4.852   1.557  12.241  0.3620 -0.0008  0.0417
14085TIP3   OH263669   1.508   6.743   5.548 -0.1538 -0.2805 -0.4545
14085TIP3    H163670   1.439   6.754   5.614 -1.4526 -0.4209 -1.7290
14085TIP3    H263671   1.492   6.656   5.511 -0.2688  0.2928 -1.8161
14086TIP3   OH263672   0.884   2.349   0.226 -0.0629 -0.6640  0.3949
14086TIP3    H163673   0.855   2.314   0.310 -3.1416 -2.9053 -1.3906
14086TIP3    H263674   0.816   2.412   0.202  0.6732 -0.1879 -0.4807
14087TIP3   OH263675   0.952   1.330  13.311  0.1195  0.9253  0.0106
14087TIP3    H163676   0.946   1.413  13.357 -0.9115  1.2422 -0.6845
14087TIP3    H263677   0.862   1.299  13.304  0.4951 -0.3467  0.4071
14088TIP3   OH263678   3.259   1.082  11.623 -0.3208  0.3499  0.8900
14088TIP3    H163679   3.322   1.154  11.627 -0.7610  0.8293 -0.4313
14088TIP3    H263680   3.186   1.111  11.677  0.3546 -0.0138  2.0542
14089TIP3   OH263681   0.564   0.642   2.576 -0.0855 -0.4049 -0.2534
14089TIP3    H163682   0.653   0.663   2.602 -0.0210 -1.4879  0.4686
14089TIP3    H263683   0.531   0.584   2.645 -1.8352  1.0623  0.2161
14090TIP3   OH263684   3.334   1.173  16.420 -0.2490 -0.9009 -0.6680
14090TIP3    H163685   3.353   1.224  16.341  0.5612  1.6051  1.0485
14090TIP3    H263686   3.253   1.210  16.454 -1.3438 -2.8706 -0.9685
14091TIP3   OH263687   4.143   4.475  14.573 -0.4719  0.6983 -0.0027
14091TIP3    H163688   4.211   4.543  14.575  1.2248 -0.9331  1.2430
14091TIP3    H263689   4.188   4.397  14.542 -2.3403  0.0449 -1.2122
14092TIP3   OH263690   2.680   5.495   1.144 -0.3073 -0.1991 -0.2620
14092TIP3    H163691   2.594   5.529   1.168 -1.1267 -0.6272 -2.3334
14092TIP3    H263692   2.740   5.535   1.206 -2.0849 -0.6103  1.8533
14093TIP3   OH263693   1.626   0.766  10.641 -0.2208  0.1543 -0.5749
14093TIP3    H163694   1.538   0.798  10.659  0.9307  2.5652  1.4224
14093TIP3    H263695   1.635   0.688  10.696 -0.3007  1.4100  1.2976
14094TIP3   OH263696   5.608   3.453  13.563 -0.0757  0.2997  0.2618
14094TIP3    H163697   5.599   3.526  13.624 -1.0807 -1.1709  1.9304
14094TIP3    H263698   5.587   3.492  13.477  0.5196  2.1983  0.9224
14095TIP3   OH263699   0.764   3.747   4.229 -0.4296  0.2774  0.2900
14095TIP3    H163700   0.744   3.664   4.187  1.9245 -0.2476  0.0768
14095TIP3    H263701   0.684   3.770   4.276 -1.0102 -2.3210  0.7162
14096TIP3   OH263702   3.278   0.077  15.269 -0.4557  0.4421  0.1164
14096TIP3    H163703   3.355   0.064  15.324 -0.7688  1.7401  0.9208
14096TIP3    H263704   3.204   0.052  15.325 -0.7624  1.5518  0.2297
14097TIP3   OH263705   2.351   1.499   1.914 -0.6746  0.9960 -0.1647
14097TIP3    H163706   2.364   1.440   1.988 -0.9473  0.1026 -0.8147
14097TIP3    H263707   2.261   1.531   1.924  0.1885  3.1999  1.4967
14098TIP3   OH263708   1.525   1.530   1.774  0.0278  0.2870 -0.3842
14098TIP3    H163709   1.527   1.568   1.686 -1.0405 -0.9456 -0.9800
14098TIP3    H263710   1.433   1.534   1.799 -0.1919 -2.1708 -0.6231
14099TIP3   OH263711   1.274   1.207  11.171  0.0625  0.1879  0.0923
14099TIP3    H163712   1.284   1.116  11.143  1.2480  0.4904 -0.5464
14099TIP3    H263713   1.264   1.256  11.089  1.0405  0.7952  0.3110
14100TIP3   OH263714   1.514   3.453  11.843 -0.8348 -0.1207 -0.1752
14100TIP3    H163715   1.582   3.517  11.864 -1.8739  1.1006 -0.4039
14100TIP3    H263716   1.461   3.449  11.923 -0.8291 -0.6442 -0.1955
14101TIP3   OH263717   2.367   3.258  14.464  0.1558 -0.2372  0.3104
14101TIP3    H163718   2.415   3.331  14.425  0.6517 -0.1283  1.1093
14101TIP3    H263719   2.309   3.228  14.395 -0.3165  1.1526  0.0798
14102TIP3   OH263720   1.486   4.660  14.339  0.9905 -0.4271  0.0057
14102TIP3    H163721   1.483   4.565  14.324  0.8177 -0.3223 -0.6702
14102TIP3    H263722   1.537   4.694  14.266 -0.6471  0.2124 -0.8996
14103TIP3   OH263723   0.474   6.234  11.201  0.3695 -0.4685 -0.1211
14103TIP3    H163724   0.458   6.322  11.236  1.7005 -1.0072  2.0948
14103TIP3    H263725   0.387   6.198  11.185 -0.1863  1.5005 -1.8893
14104TIP3   OH263726   1.510   1.419  13.092  0.3052  0.4859  0.0636
14104TIP3    H163727   1.495   1.513  13.087 -0.4076  0.3263 -1.1318
14104TIP3    H263728   1.604   1.410  13.105  0.3243  1.3711  0.5377
14105TIP3   OH263729   2.986   3.221   6.470 -0.0459 -0.1853 -0.2593
14105TIP3    H163730   2.995   3.316   6.471 -0.6250 -0.0962 -1.6911
14105TIP3    H263731   3.075   3.188   6.486  0.2864  0.5988 -0.4762
14106TIP3   OH263732   5.278   6.441   2.987 -0.0227 -0.2834 -0.0508
14106TIP3    H163733   5.281   6.346   2.988  1.4534 -0.2850 -1.1828
14106TIP3    H263734   5.364   6.468   2.955 -0.5154  1.4187 -0.0595
14107TIP3   OH263735   1.534   3.671   4.089  0.2209  0.1070  0.0670
14107TIP3    H163736   1.457   3.628   4.127 -0.5307  0.0255 -1.4636
14107TIP3    H263737   1.517   3.764   4.100 -0.1892  0.0930 -0.4243
14108TIP3   OH263738   1.257   4.402  12.459  0.0740  0.7047 -0.3148
14108TIP3    H163739   1.192   4.376  12.525  0.9631  1.3339  0.8454
14108TIP3    H263740   1.341   4.381  12.499  0.6183 -0.2522 -1.8631
14109TIP3   OH263741   0.200   6.200   6.091 -0.3799  0.2958  0.0300
14109TIP3    H163742   0.126   6.194   6.032  0.1175 -0.6751 -0.5070
14109TIP3    H263743   0.165   6.173   6.176 -0.5654 -0.4780 -0.2882
14110TIP3   OH263744   4.524   0.738  15.507  0.3689 -0.0729 -0.0966
14110TIP3    H163745   4.611   0.718  15.542 -0.1063  1.0230  1.8531
14110TIP3    H263746   4.538   0.811  15.447  0.8442 -0.1805 -0.1208
14111TIP3   OH263747   5.793   2.096  11.498 -0.1473 -0.4292  0.6484
14111TIP3    H163748   5.843   2.147  11.434 -4.1808  3.1178 -0.1391
14111TIP3    H263749   5.718   2.063  11.449 -0.7441 -2.0627  2.5324
14112TIP3   OH263750   3.071   0.167   5.088 -0.4014 -0.6021  0.1569
14112TIP3    H163751   3.071   0.142   4.996  1.4731 -1.3491  0.3264
14112TIP3    H263752   3.063   0.262   5.087  2.9411 -0.2156 -0.9790
14113TIP3   OH263753   4.236   5.203  17.167  0.3974  0.0332 -0.4336
14113TIP3    H163754   4.318   5.163  17.196  1.5603  1.6140 -1.4245
14113TIP3    H263755   4.263   5.273  17.107 -1.5137  2.3381  1.2201
14114TIP3   OH263756   3.158   2.973   1.665  0.0022 -0.2607 -0.6436
14114TIP3    H163757   3.216   2.955   1.738  0.6053  1.3512 -0.6798
14114TIP3    H263758   3.214   3.016   1.600 -1.0097  0.4898 -1.0566
14115TIP3   OH263759   6.617   0.965  12.710 -0.1328 -0.0650  0.1054
14115TIP3    H163760   6.593   0.992  12.621  0.0518 -1.7429 -0.5080
14115TIP3    H263761   6.695   1.017  12.731  0.6291 -0.5958 -1.2826
14116TIP3   OH263762   3.798   0.537  12.162  0.0357  0.2267 -0.0935
14116TIP3    H163763   3.755   0.459  12.125  0.9165 -0.4313  0.2333
14116TIP3    H263764   3.887   0.508  12.182  0.4969  1.4266 -0.3106
14117TIP3   OH263765   5.273   1.014  16.966 -0.2148 -0.9169  0.2715
14117TIP3    H163766   5.241   1.064  16.891  3.1331  0.7587 -0.2373
14117TIP3    H263767   5.240   1.062  17.042 -1.8565 -1.3841 -0.1181
14118TIP3   OH263768   3.578   1.893   2.048 -0.3156 -0.1199 -0.3341
14118TIP3    H163769   3.552   1.985   2.049  1.3743  0.5196 -3.1883
14118TIP3    H263770   3.522   1.851   2.113 -1.8588  2.7305  0.3171
14119TIP3   OH263771   4.479   2.024  13.401  0.1660  0.5773  0.1451
14119TIP3    H163772   4.513   2.035  13.312  1.2701  2.4997  0.7364
14119TIP3    H263773   4.404   2.082  13.406 -0.9335 -0.7917 -0.0031
14120TIP3   OH263774   3.367   5.309  15.137 -0.6640 -0.2216 -0.0050
14120TIP3    H163775   3.349   5.370  15.209 -0.8580 -0.4052  0.1029
14120TIP3    H263776   3.285   5.261  15.125 -0.5182 -0.4481 -0.1042
14121TIP3   OH263777   5.396   5.682  11.459 -0.3188  0.1464  0.4511
14121TIP3    H163778   5.489   5.698  11.444 -0.4633  0.3264 -0.3118
14121TIP3    H263779   5.366   5.760  11.506  0.2395 -0.6280  2.1454
14122TIP3   OH263780   1.498   2.562  12.624 -0.2742  0.2427 -0.4398
14122TIP3    H163781   1.452   2.558  12.540 -1.6050 -2.2281  0.3009
14122TIP3    H263782   1.431   2.588  12.687  0.2440  0.1910  0.1412
14123TIP3   OH263783   6.222   4.116   5.266 -0.0523  0.5383  0.2656
14123TIP3    H163784   6.207   4.138   5.174 -0.5620 -0.4792  0.0975
14123TIP3    H263785   6.266   4.193   5.301  1.8004  0.2632 -1.2594
14124TIP3   OH263786   0.078   5.776   4.473  0.3803  0.1814 -0.2559
14124TIP3    H163787   0.037   5.835   4.537  0.8141 -0.7086  0.8736
14124TIP3    H263788   0.170   5.803   4.472  0.6107 -0.5530  0.3782
14125TIP3   OH263789   3.537   6.582   6.009 -0.0374  0.2030  0.1928
14125TIP3    H163790   3.533   6.612   6.100 -0.4822 -0.3510  0.3608
14125TIP3    H263791   3.592   6.504   6.012  1.8723  1.4634 -0.3822
14126TIP3   OH263792   3.508   1.181   0.706  0.8582  0.0024  0.0759
14126TIP3    H163793   3.496   1.223   0.621  1.2175 -0.9660 -0.4626
14126TIP3    H263794   3.419   1.164   0.737  0.7289 -0.6645 -0.6317
14127TIP3   OH263795   0.760   5.740  14.453  0.4596 -0.0299  0.2532
14127TIP3    H163796   0.827   5.774  14.513  0.8977  0.3380 -0.4250
14127TIP3    H263797   0.803   5.666  14.409  1.1662  1.4371 -1.6460
14128TIP3   OH263798   5.458   4.515   1.796  0.2953  0.2543  0.1001
14128TIP3    H163799   5.487   4.430   1.830  0.8469  0.7857  0.9949
14128TIP3    H263800   5.522   4.537   1.728 -0.1154 -0.2526 -0.4593
14129TIP3   OH263801   0.310   5.594  14.221 -0.7217  0.3340 -0.1458
14129TIP3    H163802   0.288   5.649  14.146 -2.3434 -0.4949 -0.3058
14129TIP3    H263803   0.406   5.600  14.228 -0.4540 -0.1261 -2.7167
14130TIP3   OH263804   4.696   6.422   1.633 -0.5318 -0.0667 -0.2501
14130TIP3    H163805   4.789   6.403   1.644 -0.7356 -0.4245  1.0768
14130TIP3    H263806   4.663   6.430   1.723 -1.8965 -0.5674 -0.6887
14131TIP3   OH263807   4.074   4.672   2.825 -0.3676  0.6956  0.0011
14131TIP3    H163808   4.164   4.704   2.824  0.7613 -2.0056  2.3581
14131TIP3    H263809   4.074   4.599   2.763 -1.3098  1.3816 -0.8462
14132TIP3   OH263810   6.120   5.218   0.750 -0.4241  0.4119  0.7098
14132TIP3    H163811   6.161   5.136   0.777  0.4821  0.7777  0.5083
14132TIP3    H263812   6.088   5.201   0.661 -0.3469  0.2408  0.7153
14133TIP3   OH263813   1.583   1.177  12.237  0.3853  0.4167  0.2632
14133TIP3    H163814   1.592   1.112  12.307 -0.7471  1.8806  1.8556
14133TIP3    H263815   1.522   1.138  12.175  0.1229 -0.2694  0.9391
14134TIP3   OH263816   0.671   4.209  15.561  0.0848 -0.0095 -0.0412
14134TIP3    H163817   0.675   4.200  15.466  1.2906  0.6726 -0.0736
14134TIP3    H263818   0.730   4.142  15.595 -1.0622 -0.8928  0.2986
14135TIP3   OH263819   5.080   1.114   5.846 -0.3961 -0.0924  0.5603
14135TIP3    H163820   5.067   1.207   5.831  0.1685 -0.1765 -0.5555
14135TIP3    H263821   5.079   1.105   5.942  1.2693  1.3385  0.7709
14136TIP3   OH263822   4.379   6.081  12.159 -0.3168 -0.2638  0.3672
14136TIP3    H163823   4.463   6.047  12.188  0.4120  1.4812  0.3565
14136TIP3    H263824   4.316   6.048  12.223  0.0586 -2.9125 -0.4837
14137TIP3   OH263825   5.265   1.346   2.713 -0.1474 -0.4724  0.1383
14137TIP3    H163826   5.281   1.262   2.670 -0.0411 -0.6332  0.4892
14137TIP3    H263827   5.199   1.326   2.779  0.1732 -0.3603  0.4906
14138TIP3   OH263828   2.091   5.924  13.335  0.0511  0.0568  0.3142
14138TIP3    H163829   2.074   6.013  13.303  0.2071  0.0929  0.3298
14138TIP3    H263830   2.186   5.914  13.327  0.0090 -0.1838  0.1152
14139TIP3   OH263831   1.694   0.679  16.119  0.0092  0.4549 -0.1829
14139TIP3    H163832   1.675   0.666  16.212 -0.2717  0.3079 -0.2609
14139TIP3    H263833   1.788   0.662  16.111 -0.0921 -0.2032 -0.0450
14140TIP3   OH263834   0.762   5.651   3.646 -0.3572  0.1840  0.0487
14140TIP3    H163835   0.812   5.601   3.581 -0.1704  0.0913  0.2602
14140TIP3    H263836   0.767   5.597   3.725 -1.1237 -0.0168 -0.0365
14141TIP3   OH263837   1.394   2.841   0.318 -0.0198 -0.4391 -0.1291
14141TIP3    H163838   1.371   2.755   0.354 -0.7735 -0.0846  0.2619
14141TIP3    H263839   1.318   2.896   0.336  0.4700  0.3295 -0.3413
14142TIP3   OH263840   5.533   6.593  17.034  0.2099  0.3427  0.2716
14142TIP3    H163841   5.482   6.520  17.070 -0.7762  1.3929  1.1006
14142TIP3    H263842   5.492   6.671  17.072  3.5136  1.2118  2.4048
14143TIP3   OH263843   3.958   0.559  17.103 -0.0413  0.9425  0.2909
14143TIP3    H163844   3.939   0.467  17.082  0.0547  1.2607 -1.3181
14143TIP3    H263845   4.042   0.577  17.060  0.3346  1.5818  1.2515
14144TIP3   OH263846   6.599   0.397  15.851  0.5360  0.0094  0.1712
14144TIP3    H163847   6.570   0.396  15.760  1.2270  3.0250 -0.2090
14144TIP3    H263848   6.535   0.343  15.897 -0.2470 -1.0169 -1.9828
14145TIP3   OH263849   6.554   5.803  14.896 -0.5937  0.1567  0.5717
14145TIP3    H163850   6.518   5.767  14.815  0.4858  2.7647 -1.1539
14145TIP3    H263851   6.495   5.875  14.919  0.5491  1.0952  0.6368
14146TIP3   OH263852   3.243   1.113  14.682 -0.1636 -0.0520 -0.0431
14146TIP3    H163853   3.184   1.188  14.672  1.0179  0.8730 -0.1747
14146TIP3    H263854   3.223   1.079  14.770  0.5081  1.5091  0.7437
14147TIP3   OH263855   0.477   6.236  15.958  0.2443 -0.1784 -0.3803
14147TIP3    H163856   0.411   6.275  15.901  0.0404 -0.0229 -0.0418
14147TIP3    H263857   0.519   6.311  16.001  1.0230 -0.2504 -1.0110
14148TIP3   OH263858   6.765   6.415   5.510 -0.1387  0.2632 -0.1685
14148TIP3    H163859   6.678   6.414   5.470 -0.0647  0.8878 -0.3426
14148TIP3    H263860   6.813   6.345   5.465 -0.8371 -0.7353  0.5834
14149TIP3   OH263861   5.061   3.165   2.061 -0.3305  0.1563  0.1523
14149TIP3    H163862   5.104   3.080   2.053  1.0196  0.6359  1.6327
14149TIP3    H263863   5.074   3.207   1.976  1.4634 -0.0478  0.2948
14150TIP3   OH263864   2.440   3.368  12.828 -0.4580  0.2417 -0.4705
14150TIP3    H163865   2.408   3.285  12.792 -1.8872 -1.1559  3.5178
14150TIP3    H263866   2.521   3.344  12.873 -1.2468  0.7607  1.3191
14151TIP3   OH263867   2.380   1.755   3.157  0.1594 -0.5532  0.0961
14151TIP3    H163868   2.337   1.810   3.092 -0.2610 -0.4837  0.4289
14151TIP3    H263869   2.471   1.783   3.157  0.1322 -0.4666 -0.3688
14152TIP3   OH263870   3.372   4.914  10.934 -0.3956 -0.0158 -0.2399
14152TIP3    H163871   3.431   4.855  10.887  0.7803  1.4737 -0.7010
14152TIP3    H263872   3.303   4.933  10.871  0.4271  0.8591 -0.9015
14153TIP3   OH263873   0.555   3.561  12.734 -0.2924  0.5570 -0.1942
14153TIP3    H163874   0.649   3.555  12.723 -0.1380  1.3811  0.6060
14153TIP3    H263875   0.519   3.496  12.673  0.8437 -1.1489  0.8856
14154TIP3   OH263876   1.849   1.849  14.172 -0.3136 -0.3874 -0.2129
14154TIP3    H163877   1.898   1.773  14.201 -1.2671 -0.9913 -0.1408
14154TIP3    H263878   1.911   1.922  14.180 -0.0024 -0.8012  1.7208
14155TIP3   OH263879   2.961   2.471   4.721 -0.0391  0.0165  0.2150
14155TIP3    H163880   2.901   2.432   4.786 -1.2522  0.5992 -0.5176
14155TIP3    H263881   3.022   2.523   4.773 -0.6547  0.0364  0.9398
14156TIP3   OH263882   0.613   1.449  12.810  0.1824 -0.1576  0.1674
14156TIP3    H163883   0.694   1.485  12.846  0.6766 -0.1334 -0.9357
14156TIP3    H263884   0.639   1.410  12.726 -0.7803 -0.9668  0.2231
14157TIP3   OH263885   4.558   3.950  16.384 -0.1362  0.2501  0.0878
14157TIP3    H163886   4.532   4.020  16.324 -1.5605 -1.1410 -1.0087
14157TIP3    H263887   4.495   3.956  16.456 -0.8116 -0.4068 -0.4310
14158TIP3   OH263888   5.587   6.547   4.352 -0.3212 -0.0781 -0.0468
14158TIP3    H163889   5.570   6.474   4.412 -2.0641 -0.1814 -0.6074
14158TIP3    H263890   5.635   6.508   4.279 -0.8683 -0.5749 -0.1422
14159TIP3   OH263891   6.016   0.868   3.206 -0.5631  0.1420 -0.1774
14159TIP3    H163892   6.033   0.810   3.280 -1.6186  1.1703  0.9021
14159TIP3    H263893   5.921   0.873   3.200 -0.4871  1.1658 -0.7271
14160TIP3   OH263894   6.279   0.878  15.006  0.0976  0.5788  0.3180
14160TIP3    H163895   6.279   0.909  14.916 -0.7759  0.1367  0.1574
14160TIP3    H263896   6.217   0.936  15.051 -0.8351 -0.3286  0.2219
14161TIP3   OH263897   0.733   6.235   2.796 -0.4474 -0.1599  0.5999
14161TIP3    H163898   0.639   6.247   2.795 -1.0424 -3.7764  0.5219
14161TIP3    H263899   0.749   6.171   2.866  1.6498 -1.3326 -0.8286
14162TIP3   OH263900   4.616   1.087   2.992 -0.7158 -0.0999 -0.2639
14162TIP3    H163901   4.664   1.115   2.914 -0.2148 -0.6989 -0.1845
14162TIP3    H263902   4.677   1.028   3.037 -0.3061  1.5749  1.4950
14163TIP3   OH263903   4.944   0.462  13.100 -0.6120 -0.0232 -0.6308
14163TIP3    H163904   4.991   0.378  13.095 -0.4092 -0.1888  2.5541
14163TIP3    H263905   5.011   0.528  13.083 -0.5058 -0.3962 -1.8176
14164TIP3   OH263906   2.969   1.478  15.161 -0.0266  0.2557 -0.1155
14164TIP3    H163907   3.004   1.411  15.220  0.4795  2.2218  1.9729
14164TIP3    H263908   2.874   1.465  15.162 -0.0024  0.0971  0.9666
14165TIP3   OH263909   1.118   4.730   4.950  0.2657  0.5153  0.2072
14165TIP3    H163910   1.199   4.759   4.991  0.1125  1.4518 -0.1117
14165TIP3    H263911   1.050   4.778   4.997 -0.1680 -0.6873  0.8571
14166TIP3   OH263912   0.444   1.341  16.766 -0.0359  0.7229 -0.0275
14166TIP3    H163913   0.384   1.307  16.699  0.4660 -0.6844  0.2032
14166TIP3    H263914   0.524   1.288  16.756 -0.0238  0.3227  1.8175
14167TIP3   OH263915   2.708   4.566   1.605 -0.0295 -0.2575  0.3001
14167TIP3    H163916   2.674   4.629   1.668  0.2875 -1.3666  1.6334
14167TIP3    H263917   2.635   4.549   1.546 -0.0054  1.6122 -0.3434
14168TIP3   OH263918   3.759   5.140  13.320 -0.1206  0.4912 -0.1199
14168TIP3    H163919   3.814   5.213  13.349  1.4072 -0.9854  0.8913
14168TIP3    H263920   3.733   5.096  13.401 -0.3438 -0.5432 -0.7418
14169TIP3   OH263921   6.564   3.606   1.185  0.4212 -0.5903  0.3018
14169TIP3    H163922   6.597   3.589   1.273  2.3353  1.3207  0.0683
14169TIP3    H263923   6.631   3.569   1.127 -0.0078 -0.4230 -0.3104
14170TIP3   OH263924   5.373   3.922   2.034  0.4340  0.2273 -0.0642
14170TIP3    H163925   5.375   3.849   1.972  0.1260  0.1718 -0.0100
14170TIP3    H263926   5.283   3.924   2.065  0.6590  0.0554  0.6259
14171TIP3   OH263927   2.424   2.438   6.444  0.1507 -0.0171  0.0255
14171TIP3    H163928   2.401   2.352   6.480 -0.2151 -0.1223 -0.4528
14171TIP3    H263929   2.476   2.419   6.366  0.7985  0.2093  0.3974
14172TIP3   OH263930   0.340   6.680  16.563 -0.1166 -0.1474 -0.1168
14172TIP3    H163931   0.249   6.655  16.545 -0.6713  1.6170  0.0357
14172TIP3    H263932   0.336   6.774  16.581  1.7462 -0.0356 -0.0835
14173TIP3   OH263933   4.231   5.490  14.766  0.4138  0.3704  0.2616
14173TIP3    H163934   4.263   5.493  14.676  1.4455  0.6584  0.6355
14173TIP3    H263935   4.270   5.565  14.809 -0.5513  0.5796  0.8079
14174TIP3   OH263936   3.157   0.734   2.877 -0.1097  0.0820 -0.5440
14174TIP3    H163937   3.162   0.786   2.797 -0.3012  1.6826  0.4397
14174TIP3    H263938   3.089   0.776   2.929  1.2352  0.1975  1.2155
14175TIP3   OH263939   3.316   4.417   2.022 -0.5057 -0.7516  0.7529
14175TIP3    H163940   3.281   4.332   2.047 -0.9383 -1.4154 -1.8676
14175TIP3    H263941   3.330   4.411   1.928  1.4396  1.3996  0.8110
14176TIP3   OH263942   4.633   0.572  14.326  0.0964  0.3736  0.3884
14176TIP3    H163943   4.587   0.494  14.296 -1.6560  1.0535  1.1621
14176TIP3    H263944   4.714   0.539  14.364  0.9292 -0.7575 -2.2045
14177TIP3   OH263945   3.360   5.087   5.049  0.0097  0.1601  0.2688
14177TIP3    H163946   3.412   5.151   5.001 -2.6957  0.6122 -2.3294
14177TIP3    H263947   3.383   5.003   5.010 -0.1337  0.1873  0.1236
14178TIP3   OH263948   4.491   3.459   1.115 -0.4707  0.5675  0.6313
14178TIP3    H163949   4.548   3.384   1.099  0.6270  1.9954 -3.2607
14178TIP3    H263950   4.403   3.422   1.122  0.0609 -1.1135 -1.0201
14179TIP3   OH263951   4.437   4.899  13.664  0.2346 -0.3926 -0.5228
14179TIP3    H163952   4.507   4.964  13.651  1.5367 -1.7927 -0.7906
14179TIP3    H263953   4.357   4.951  13.673  1.5032  1.3776  1.4139
14180TIP3   OH263954   4.581   6.187   4.000 -0.2758  0.5374  0.4866
14180TIP3    H163955   4.568   6.282   4.006 -2.2648  0.2653  0.9649
14180TIP3    H263956   4.634   6.166   4.077  2.5130  1.5538 -1.0045
14181TIP3   OH263957   0.942   4.532   4.845  0.0232  0.3564  0.5664
14181TIP3    H163958   0.980   4.574   4.922  0.9162  0.1697  0.2346
14181TIP3    H263959   1.016   4.495   4.798 -0.5318  0.2858 -0.2808
14182TIP3   OH263960   1.575   2.578   3.086  0.4636  0.2301 -0.3551
14182TIP3    H163961   1.607   2.577   3.176  1.9124 -0.0382 -0.8406
14182TIP3    H263962   1.559   2.486   3.066 -0.1211  0.3173 -0.2792
14183TIP3   OH263963   2.709   0.019   2.854 -0.2365 -0.1521  0.1931
14183TIP3    H163964   2.785  -0.023   2.895  0.4512 -1.6293 -2.3603
14183TIP3    H263965   2.745   0.098   2.813 -0.1510 -0.5675 -0.5542
14184TIP3   OH263966   4.776   6.710   0.288 -0.2167 -0.0958  0.2287
14184TIP3    H163967   4.847   6.740   0.345 -0.0755 -0.3829  0.2054
14184TIP3    H263968   4.704   6.772   0.305  0.3814  0.8396 -0.5347
14185TIP3   OH263969   0.251   1.893   3.060  0.1185 -0.6664 -0.4559
14185TIP3    H163970   0.190   1.924   3.127  0.4185  0.7522 -0.8031
14185TIP3    H263971   0.205   1.904   2.978  0.4699 -0.5513 -0.6397
14186TIP3   OH263972   1.983   6.577  14.905  0.2838 -0.0846  0.1507
14186TIP3    H163973   1.955   6.668  14.915  1.4915  0.6119 -1.9539
14186TIP3    H263974   2.006   6.569  14.812  0.0917 -2.5967  0.2404
14187TIP3   OH263975   4.461   3.246  12.676 -0.4221  0.1079 -0.2998
14187TIP3    H163976   4.397   3.313  12.702  0.8021  0.7066  1.3382
14187TIP3    H263977   4.526   3.293  12.625  0.0169  0.0105  0.1654
14188TIP3   OH263978   4.846   3.346   3.117  0.4769  0.0988 -0.1143
14188TIP3    H163979   4.820   3.321   3.028 -1.0305  2.2864 -0.3769
14188TIP3    H263980   4.765   3.348   3.167  0.7218  2.3838  0.3305
14189TIP3   OH263981   0.661   4.747  12.637 -0.1543 -0.3405 -0.4813
14189TIP3    H163982   0.730   4.780  12.695 -0.8219 -2.1706  1.4803
14189TIP3    H263983   0.588   4.726  12.695 -1.4392 -0.8438 -2.1951
14190TIP3   OH263984   4.938   3.665  16.814 -0.1885 -0.0838 -0.1082
14190TIP3    H163985   4.916   3.657  16.907  0.3568 -0.3350  0.0037
14190TIP3    H263986   5.026   3.705  16.814 -1.0304  1.9011 -0.5597
14191TIP3   OH263987   0.043   2.444  14.723 -0.1719 -0.4188  0.2061
14191TIP3    H163988   0.112   2.419  14.661 -0.2395  0.6948 -0.3369
14191TIP3    H263989  -0.037   2.442  14.672 -0.4878 -1.2474  0.7200
14192TIP3   OH263990   6.052   0.201   1.314 -0.2616 -0.2449  0.5752
14192TIP3    H163991   6.008   0.156   1.242 -0.1342  1.6401 -0.7205
14192TIP3    H263992   6.118   0.256   1.272  0.8457 -0.2267  2.2460
14193TIP3   OH263993   0.370   5.741   2.796  0.3920 -0.3703  0.5780
14193TIP3    H163994   0.442   5.679   2.788  2.9405  2.1882  1.7968
14193TIP3    H263995   0.362   5.780   2.709  1.0027 -0.1527  0.6161
14194TIP3   OH263996   0.968   1.394  16.950  0.1661  0.0530 -0.1091
14194TIP3    H163997   1.032   1.347  17.003 -1.6514 -1.6749  0.6768
14194TIP3    H263998   1.009   1.402  16.864  0.5813 -3.1189 -0.3184
14195TIP3   OH263999   3.776   0.126  14.569 -0.0255 -0.3631  0.7639
14195TIP3    H164000   3.868   0.152  14.567  0.1093 -0.6949  1.9508
14195TIP3    H264001   3.773   0.045  14.517  0.3861 -0.4336  0.8464
14196TIP3   OH264002   2.847   6.310   4.262  0.3476 -0.1330  0.1190
14196TIP3    H164003   2.822   6.226   4.222 -0.0294 -0.3243  0.7425
14196TIP3    H264004   2.765   6.361   4.263  0.3782 -0.0913  0.5526
14197TIP3   OH264005   6.388   4.610   2.253  0.0590 -0.3140  0.3271
14197TIP3    H164006   6.389   4.629   2.159 -1.2493 -2.3208 -0.1593
14197TIP3    H264007   6.353   4.690   2.293 -1.4440 -0.1936 -1.1319
14198TIP3   OH264008   5.099   3.466  11.580  0.4461 -0.3464 -0.2782
14198TIP3    H164009   5.055   3.546  11.551 -0.6989 -0.7415  0.2850
14198TIP3    H264010   5.189   3.475  11.549  0.8898  2.0354  1.4024
14199TIP3   OH264011   0.166   0.632   0.726 -0.0950  0.5218  0.1818
14199TIP3    H164012   0.087   0.584   0.699  0.1905  0.2513 -0.1923
14199TIP3    H264013   0.209   0.654   0.644  0.5229  0.1486  0.3965
14200TIP3   OH264014   0.010   5.991  13.142 -0.1857 -0.7180  0.2647
14200TIP3    H164015   0.052   5.950  13.067  0.8747 -1.2782  1.1366
14200TIP3    H264016  -0.083   5.994  13.119 -0.0342 -1.9506 -0.5779
14201TIP3   OH264017   2.276   2.612   4.082  0.6779 -0.4906 -0.0590
14201TIP3    H164018   2.191   2.604   4.123  1.1465 -1.0441  0.8233
14201TIP3    H264019   2.305   2.701   4.103  1.4167 -1.1292  1.8604
14202TIP3   OH264020   4.157   2.909  16.890  0.5135 -0.2037  0.8058
14202TIP3    H164021   4.062   2.897  16.892  0.4581  0.3730  1.8293
14202TIP3    H264022   4.169   2.997  16.853  0.6961 -0.5932 -0.1080
14203TIP3   OH264023   5.336   4.831   3.417 -0.4696 -0.1449  0.0857
14203TIP3    H164024   5.304   4.889   3.348  0.8159  1.3338  0.6671
14203TIP3    H264025   5.389   4.888   3.473 -0.7699 -1.4793  1.8197
14204TIP3   OH264026   4.015   2.565   0.039 -0.5262  0.6261 -0.4150
14204TIP3    H164027   4.064   2.513   0.102  0.7197  1.0071 -1.0441
14204TIP3    H264028   3.927   2.571   0.076 -0.7925 -2.0754 -0.3876
14205TIP3   OH264029   5.905   0.902   0.373 -0.1179  0.0582 -0.3347
14205TIP3    H164030   5.875   0.866   0.290  0.2543 -1.1762  0.0394
14205TIP3    H264031   5.998   0.881   0.376 -0.2275 -0.3552  0.6030
14206TIP3   OH264032   4.490   1.523   1.496 -0.8859 -0.5362 -0.0772
14206TIP3    H164033   4.425   1.490   1.435 -0.8839  0.2656 -0.5285
14206TIP3    H264034   4.572   1.482   1.468 -0.8529 -0.0402 -0.7385
14207TIP3   OH264035   1.785   6.512  11.267  0.2059  0.2583 -0.1323
14207TIP3    H164036   1.746   6.506  11.180 -0.6093 -0.0213  0.2449
14207TIP3    H264037   1.864   6.458  11.261  0.3099  0.4765 -0.7763
14208TIP3   OH264038   6.239   6.649   4.504 -0.0376  0.0615 -0.3563
14208TIP3    H164039   6.242   6.679   4.413 -1.0610  1.3278 -0.0005
14208TIP3    H264040   6.146   6.652   4.527  0.1754 -0.5315  0.6523
14209TIP3   OH264041   1.496   5.750  16.352  0.1305  0.4137  0.2482
14209TIP3    H164042   1.582   5.754  16.312  0.2517  0.9469  0.5515
14209TIP3    H264043   1.508   5.788  16.439 -0.5827  1.2706 -0.0145
14210TIP3   OH264044   6.757   6.018  12.628  0.1937  0.5184  0.4129
14210TIP3    H164045   6.739   5.925  12.612  0.7978  0.4826 -0.0564
14210TIP3    H264046   6.686   6.064  12.583  0.2312  0.3101  0.1412
14211TIP3   OH264047   2.889   1.265  15.931  0.3025  0.1035  0.5060
14211TIP3    H164048   2.930   1.207  15.867 -0.3411  0.6438 -0.4215
14211TIP3    H264049   2.962   1.294  15.986  0.9025 -0.2449 -0.0775
14212TIP3   OH264050   3.634   2.119  16.627 -0.1122 -0.1099 -0.0986
14212TIP3    H164051   3.539   2.123  16.641 -0.4344  0.3065 -2.1369
14212TIP3    H264052   3.657   2.208  16.601  1.2376  0.3351  2.3144
14213TIP3   OH264053   1.567   0.062   0.519 -0.1137 -0.8217  0.5362
14213TIP3    H164054   1.653   0.073   0.558 -0.7568  0.6398  1.6104
14213TIP3    H264055   1.523   0.146   0.531 -1.5564 -1.4012 -0.3396
14214TIP3   OH264056   2.465   6.250  15.981  0.1624  0.2926  0.4730
14214TIP3    H164057   2.461   6.254  16.076 -1.9036 -1.3313  0.5224
14214TIP3    H264058   2.501   6.163  15.962  1.4789  0.9670 -0.2635
14215TIP3   OH264059   0.256   1.602   2.124  0.1409  0.4827 -0.2372
14215TIP3    H164060   0.308   1.624   2.202  2.0480  1.9804 -1.8094
14215TIP3    H264061   0.299   1.524   2.089 -0.0379  0.4405 -0.3582
14216TIP3   OH264062   2.394   3.124   3.267 -0.3910 -0.3855  0.0392
14216TIP3    H164063   2.412   3.083   3.351  0.8143  0.9042  0.4411
14216TIP3    H264064   2.303   3.102   3.248 -0.4073 -1.4209  1.2535
14217TIP3   OH264065   6.719   6.752  11.478 -0.2412  0.2855 -0.0507
14217TIP3    H164066   6.652   6.799  11.427 -1.7463 -1.0038  0.6559
14217TIP3    H264067   6.711   6.788  11.566 -0.7832 -0.6266  0.2848
14218TIP3   OH264068   0.772   6.772   5.201  0.1759 -0.0421  0.3942
14218TIP3    H164069   0.860   6.741   5.180 -0.0498  0.7936 -2.0786
14218TIP3    H264070   0.724   6.694   5.227  1.3070 -0.6989  0.5604
14219TIP3   OH264071   4.539   0.032   1.940 -0.6058  0.1471 -0.0530
14219TIP3    H164072   4.469   0.088   1.907 -0.3596  0.7980  0.5089
14219TIP3    H264073   4.608   0.092   1.968 -0.1936 -0.4493  0.2532
14220TIP3   OH264074   6.038   3.331   6.446  0.1765 -0.2627 -0.0717
14220TIP3    H164075   6.111   3.353   6.505  0.3810  0.1015 -0.4512
14220TIP3    H264076   6.006   3.416   6.415 -0.4569 -0.4199  0.1473
14221TIP3   OH264077   5.633   6.307   2.385  0.0737  0.0020 -0.0898
14221TIP3    H164078   5.710   6.328   2.334  0.4231  0.0040  0.4298
14221TIP3    H264079   5.664   6.305   2.476 -0.5132 -0.0883  0.1144
14222TIP3   OH264080   4.565   0.951   4.532  0.1991  0.7682  0.3630
14222TIP3    H164081   4.532   0.944   4.622 -0.6353 -0.5001 -0.0156
14222TIP3    H264082   4.486   0.952   4.478  0.7093 -0.2398 -0.4400
14223TIP3   OH264083   1.629   6.549  15.856 -0.0285  0.6361  0.7239
14223TIP3    H164084   1.649   6.639  15.883 -0.3105  0.3121  2.1288
14223TIP3    H264085   1.707   6.499  15.880  0.7588  0.7158 -1.4516
14224TIP3   OH264086   0.900   4.229  13.596 -0.1732  0.2997  0.5315
14224TIP3    H164087   0.879   4.150  13.548 -0.3694  0.7201 -0.0836
14224TIP3    H264088   0.996   4.230  13.600 -0.0018  1.5456 -2.1017
14225TIP3   OH264089   6.352   4.700   3.622 -0.0085  0.0116 -0.0017
14225TIP3    H164090   6.332   4.732   3.710  1.7494 -0.5586  0.6441
14225TIP3    H264091   6.297   4.622   3.612 -1.2035  0.8148  0.0318
14226TIP3   OH264092   5.826   1.552  12.028 -0.1836 -0.1269 -0.2862
14226TIP3    H164093   5.850   1.466  12.063 -1.2920 -0.7988 -1.0946
14226TIP3    H264094   5.849   1.546  11.935 -0.8661  0.1980 -0.4838
14227TIP3   OH264095   2.012   6.627   0.380  0.1925  0.0589 -0.2593
14227TIP3    H164096   1.981   6.710   0.417 -1.0813 -1.1657  1.6054
14227TIP3    H264097   2.046   6.650   0.294  1.0166  2.7068  0.6734
14228TIP3   OH264098   2.314   5.217  12.224 -0.2621 -0.0098 -0.1246
14228TIP3    H164099   2.304   5.201  12.318 -1.3556 -0.7956 -0.3569
14228TIP3    H264100   2.289   5.134  12.183 -1.0278  0.7062 -1.1571
14229TIP3   OH264101   1.860   1.739   5.354  0.1419  0.8883 -0.0920
14229TIP3    H164102   1.901   1.825   5.358 -3.6243  2.8809  0.3034
14229TIP3    H264103   1.812   1.738   5.272 -0.4699 -0.5525  0.2383
14230TIP3   OH264104   2.491   3.319  11.509 -0.5762  0.3447  0.4183
14230TIP3    H164105   2.431   3.306  11.582  0.7140 -0.3908  1.3891
14230TIP3    H264106   2.478   3.242  11.454 -0.4424  0.1166  0.7006
14231TIP3   OH264107   5.614   2.822   4.151  0.8297  0.1741  0.3924
14231TIP3    H164108   5.566   2.860   4.077  1.5780  0.4366  0.0287
14231TIP3    H264109   5.678   2.889   4.176  2.0153 -0.7186 -0.1176
14232TIP3   OH264110   1.371   2.801   2.383  0.6265  0.9064 -0.2197
14232TIP3    H164111   1.398   2.869   2.444 -3.9545  1.1895  1.8715
14232TIP3    H264112   1.314   2.845   2.320 -0.7938 -0.5900 -0.0451
14233TIP3   OH264113   1.955   6.630   1.848 -0.3144 -0.4882 -0.8094
14233TIP3    H164114   2.045   6.616   1.876 -0.8270 -2.3406  0.0779
14233TIP3    H264115   1.904   6.565   1.897 -2.3800  1.5805 -0.0074
14234TIP3   OH264116   5.271   3.382  13.616 -1.5882 -0.7558 -0.5880
14234TIP3    H164117   5.328   3.460  13.618 -2.0106 -0.0894 -4.6368
14234TIP3    H264118   5.258   3.359  13.708 -0.1274  2.9842  0.7603
14235TIP3   OH264119   3.151   0.184  15.881 -0.3303 -0.1433  0.4558
14235TIP3    H164120   3.134   0.089  15.884 -2.4874  0.1584 -0.6660
14235TIP3    H264121   3.080   0.222  15.932  0.5750  0.9161  0.9731
14236TIP3   OH264122   6.648   5.325   0.461 -0.7353 -0.0303  0.5166
14236TIP3    H164123   6.656   5.356   0.551  0.2258  1.4156 -0.0213
14236TIP3    H264124   6.591   5.249   0.466 -0.1640 -0.3676  2.4209
14237TIP3   OH264125   5.431   1.443  11.083  0.1303 -0.4260 -0.3861
14237TIP3    H164126   5.358   1.504  11.096  1.3860  1.1788 -0.5978
14237TIP3    H264127   5.479   1.445  11.166  0.2819 -1.0282 -0.4483
14238TIP3   OH264128   4.614   3.430  12.234 -0.2924 -0.1262 -0.2272
14238TIP3    H164129   4.617   3.353  12.290  1.2244 -0.6712 -0.9845
14238TIP3    H264130   4.686   3.485  12.265 -3.5901  2.9479  2.8319
14239TIP3   OH264131   4.715   5.127   2.238 -0.2831 -0.2373  0.2967
14239TIP3    H164132   4.654   5.194   2.207 -0.9565 -1.3434 -0.8471
14239TIP3    H264133   4.730   5.071   2.161  0.7438 -1.0459  1.0596
14240TIP3   OH264134   3.857   6.031  15.161 -0.5094  0.2863 -0.7850
14240TIP3    H164135   3.948   6.006  15.145 -0.6213 -1.3011  0.7628
14240TIP3    H264136   3.862   6.096  15.231 -0.5787 -0.3796 -0.1459
14241TIP3   OH264137   6.033   5.430   1.214 -0.2791 -0.5379  0.6659
14241TIP3    H164138   5.968   5.368   1.247 -0.5851 -0.0037  1.0888
14241TIP3    H264139   6.027   5.424   1.119 -0.8493 -0.5945  0.7039
14242TIP3   OH264140   0.612   5.940   5.998 -0.2610 -0.5920  0.6898
14242TIP3    H164141   0.552   6.014   5.998 -1.2719 -1.3675 -0.5068
14242TIP3    H264142   0.567   5.873   6.049 -0.0665 -0.9237  0.4267
14243TIP3   OH264143   5.881   1.882   5.640 -0.8897 -0.0887  0.3348
14243TIP3    H164144   5.792   1.886   5.674 -0.6740  1.8750  0.8167
14243TIP3    H264145   5.936   1.889   5.718 -0.3144 -0.6108 -0.0180
14244TIP3   OH264146   2.604   0.783  12.697 -0.0550  0.0985 -0.0623
14244TIP3    H164147   2.697   0.790  12.717 -0.2146  0.0674  0.7258
14244TIP3    H264148   2.570   0.722  12.762 -0.3537 -1.0799 -1.2875
14245TIP3   OH264149   3.947   2.558  11.038  0.0551 -0.0097 -0.4499
14245TIP3    H164150   3.996   2.476  11.045 -1.0086 -0.5452  1.5484
14245TIP3    H264151   3.868   2.543  11.091 -0.9614  1.7542 -1.3613
14246TIP3   OH264152   1.109   4.337  11.527  0.1019 -0.2406 -0.2244
14246TIP3    H164153   1.148   4.296  11.449  1.0545 -0.7814  0.5133
14246TIP3    H264154   1.082   4.263  11.582  0.5077  0.1299  0.4795
14247TIP3   OH264155   2.317   2.664  15.112  0.2531  0.3910  0.0352
14247TIP3    H164156   2.222   2.652  15.100  0.2431  0.9098 -0.4905
14247TIP3    H264157   2.356   2.590  15.066  0.1116  0.4822 -0.2384
14248TIP3   OH264158   6.269   3.087  11.370 -0.2435  0.0533 -0.0443
14248TIP3    H164159   6.200   3.023  11.354 -0.0435 -0.2683  0.3554
14248TIP3    H264160   6.298   3.068  11.459  2.7843 -2.1282 -1.3430
14249TIP3   OH264161   1.275   2.990  16.686  0.1019  0.0159 -0.2547
14249TIP3    H164162   1.317   2.996  16.600 -0.0554 -0.2767 -0.3563
14249TIP3    H264163   1.344   3.011  16.748  0.7779 -1.7818 -0.3414
14250TIP3   OH264164   2.308   6.444  13.684  0.2708  0.2853  0.3292
14250TIP3    H164165   2.390   6.491  13.667 -0.1365  0.3630 -1.5642
14250TIP3    H264166   2.242   6.494  13.637 -0.7848 -0.1230  1.3477
14251TIP3   OH264167   1.429   1.864  14.420 -0.8613  0.0605 -0.5443
14251TIP3    H164168   1.503   1.813  14.453  0.7607  1.4065 -1.9155
14251TIP3    H264169   1.352   1.825  14.462  0.5901 -1.4984  0.8034
14252TIP3   OH264170   0.071   5.337   3.121  0.3928  0.5422 -0.4221
14252TIP3    H164171   0.153   5.382   3.101  0.7418 -0.9347 -2.5981
14252TIP3    H264172   0.005   5.406   3.119  1.3137  1.4419 -0.6004
14253TIP3   OH264173   4.605   3.199   5.399  0.2723  0.8116  0.4524
14253TIP3    H164174   4.665   3.259   5.443  1.0833  0.4292 -0.1093
14253TIP3    H264175   4.645   3.113   5.409 -0.6801  0.4087  0.8996
14254TIP3   OH264176   4.711   2.643  15.073 -0.1728  0.6410 -0.2123
14254TIP3    H164177   4.634   2.591  15.095  0.6143 -1.4605 -2.0383
14254TIP3    H264178   4.683   2.696  14.998  0.4574 -1.0933 -1.7267
14255TIP3   OH264179   4.666   3.749  10.826  0.6603 -0.5011  0.5087
14255TIP3    H164180   4.649   3.691  10.900  2.5567 -0.2794  1.1808
14255TIP3    H264181   4.731   3.811  10.859  0.3919  0.5782 -0.8914
14256TIP3   OH264182   3.356   6.791  10.533 -0.3752 -0.2069  0.1071
14256TIP3    H164183   3.322   6.859  10.590  1.2263  0.0160  0.8617
14256TIP3    H264184   3.286   6.727  10.527 -0.3638 -0.5998  2.9413
14257TIP3   OH264185   5.584   2.719   0.260 -0.6452  0.0785 -0.0040
14257TIP3    H164186   5.676   2.702   0.283 -0.3059  0.5815 -0.9430
14257TIP3    H264187   5.577   2.694   0.168 -2.0128 -2.0330  0.5918
14258TIP3   OH264188   0.073   2.895   0.888  0.0195 -0.5422  0.0429
14258TIP3    H164189   0.117   2.971   0.850 -0.2179  0.3614  1.5316
14258TIP3    H264190   0.028   2.854   0.813 -1.7214  2.0468 -0.4821
14259TIP3   OH264191   5.359   1.636  12.308 -0.9057 -0.5986 -0.0611
14259TIP3    H164192   5.362   1.654  12.214  1.1073 -2.2959 -0.4223
14259TIP3    H264193   5.364   1.540  12.313  0.2505 -0.4754  1.7784
14260TIP3   OH264194   0.614   4.664   3.640  0.0392  0.3427 -0.1849
14260TIP3    H164195   0.561   4.716   3.701  0.0515 -0.0254  0.1432
14260TIP3    H264196   0.703   4.696   3.654 -0.2592  2.0390 -1.8246
14261TIP3   OH264197   5.121   3.792   1.420  0.1317 -0.1980 -0.3725
14261TIP3    H164198   5.053   3.802   1.353 -0.3030  0.5775  0.1715
14261TIP3    H264199   5.195   3.752   1.373 -0.8446 -1.4816 -0.8641
14262TIP3   OH264200   3.729   6.098  13.740  0.5760 -0.0762  0.4902
14262TIP3    H164201   3.800   6.076  13.680 -0.1354  0.1871 -0.4560
14262TIP3    H264202   3.725   6.194  13.739  0.2809 -0.0856  0.6235
14263TIP3   OH264203   5.511   4.215  12.366  0.1152  0.3964 -0.1171
14263TIP3    H164204   5.559   4.207  12.448  0.2498 -1.6689 -0.3521
14263TIP3    H264205   5.440   4.151  12.373  0.0784  0.2527 -1.5729
14264TIP3   OH264206   5.262   5.818  13.014 -0.1397  0.1264  0.4664
14264TIP3    H164207   5.329   5.886  13.017 -0.9860  0.9398  2.1397
14264TIP3    H264208   5.185   5.859  13.054 -1.1435 -1.3157  0.0735
14265TIP3   OH264209   6.540   4.931  16.426  0.6042 -0.5317  0.7035
14265TIP3    H164210   6.616   4.976  16.390  1.0848 -1.7920  0.1004
14265TIP3    H264211   6.576   4.871  16.491 -0.1662  1.0185  2.6924
14266TIP3   OH264212   4.232   3.954   1.649  0.0481 -0.1572  0.4699
14266TIP3    H164213   4.252   4.041   1.684 -0.8086  0.0189  0.5346
14266TIP3    H264214   4.141   3.939   1.673  0.2442 -1.1594  0.6290
14267TIP3   OH264215   5.123   6.224  11.032  0.1893  0.4788  0.0336
14267TIP3    H164216   5.037   6.256  11.006  0.4305 -0.4214 -2.1760
14267TIP3    H264217   5.183   6.296  11.012 -0.0393  1.2067  1.8284
14268TIP3   OH264218   2.681   6.695   5.579 -1.1130 -0.7139 -0.5005
14268TIP3    H164219   2.713   6.718   5.491 -0.7299 -2.8856 -0.9839
14268TIP3    H264220   2.761   6.680   5.630 -1.3313 -0.8619 -0.2043
14269TIP3   OH264221   3.898   0.137  16.135  0.3017 -0.8676 -0.0605
14269TIP3    H164222   3.828   0.200  16.116  0.5478 -0.6176 -0.1507
14269TIP3    H264223   3.854   0.064  16.178  0.4822  1.1174  4.0329
14270TIP3   OH264224   1.766   1.799  17.145 -0.1154 -0.1378  0.6123
14270TIP3    H164225   1.735   1.754  17.066  1.4921 -1.5629  0.7152
14270TIP3    H264226   1.688   1.810  17.199 -1.0114 -0.3969 -0.5983
14271TIP3   OH264227   6.770   0.641  11.035  0.0283 -0.0764  0.0917
14271TIP3    H164228   6.851   0.658  10.988 -0.3616 -1.4315 -1.1798
14271TIP3    H264229   6.792   0.575  11.100 -0.0251 -0.4014 -0.2152
14272TIP3   OH264230   3.989   2.781  14.815 -0.1462 -0.2754  0.0048
14272TIP3    H164231   3.905   2.766  14.858 -1.1795  1.8377 -1.1076
14272TIP3    H264232   4.039   2.700  14.830 -2.7201 -2.0060 -0.1559
14273TIP3   OH264233   0.733   6.078  11.222  0.2160  0.7291  0.8633
14273TIP3    H164234   0.657   6.137  11.214  0.9449  1.6507  0.5081
14273TIP3    H264235   0.801   6.133  11.261  1.1881  0.3926 -0.2929
14274TIP3   OH264236   0.482   6.547   1.464  0.5015 -0.4698 -0.0775
14274TIP3    H164237   0.517   6.496   1.538  2.4011  2.3815  1.1344
14274TIP3    H264238   0.528   6.512   1.387  0.5025 -1.6743  0.4455
14275TIP3   OH264239   0.297   0.004  15.088  0.6050  0.5434 -0.6853
14275TIP3    H164240   0.297   0.099  15.104 -2.3907  0.6587 -0.8767
14275TIP3    H264241   0.323  -0.034  15.172 -0.9977  1.4975  0.2835
14276TIP3   OH264242   5.037   5.216   1.595  0.0481 -0.2791  0.3823
14276TIP3    H164243   5.063   5.124   1.599  1.0002  0.0347  2.4365
14276TIP3    H264244   5.097   5.254   1.530  0.8377 -0.7656  0.8042
14277TIP3   OH264245   3.017   0.592   0.057  0.0625  0.2012 -0.0926
14277TIP3    H164246   3.061   0.538  -0.008  2.4366  0.2452  1.3484
14277TIP3    H264247   2.961   0.531   0.106  1.1492 -0.5860  0.2049
14278TIP3   OH264248   4.403   3.704  15.907  0.3915  0.4056 -0.6408
14278TIP3    H164249   4.484   3.753  15.924 -0.1127  1.6532 -1.6816
14278TIP3    H264250   4.355   3.758  15.845 -0.1602 -1.4485 -1.9414
14279TIP3   OH264251   0.207   0.692   5.546 -0.2227  0.1854  0.4746
14279TIP3    H164252   0.261   0.701   5.624 -0.7560 -0.4094  0.9197
14279TIP3    H264253   0.258   0.636   5.487  0.1699  0.6175  0.3937
14280TIP3   OH264254   2.322   2.818   6.617  0.7016 -0.2787  0.1439
14280TIP3    H164255   2.233   2.787   6.600  0.6866 -0.0555 -0.1856
14280TIP3    H264256   2.316   2.860   6.703  0.0892  1.2695 -0.6149
14281TIP3   OH264257   0.497   1.734   2.993  0.4166  0.1392 -0.3469
14281TIP3    H164258   0.457   1.649   2.974 -0.4506  0.2962  0.6869
14281TIP3    H264259   0.422   1.793   3.008  1.0128  0.9089 -0.3299
14282TIP3   OH264260   3.953   2.495   4.911  0.3119 -0.0693 -0.3543
14282TIP3    H164261   4.002   2.548   4.849 -0.8148  1.1448 -0.2408
14282TIP3    H264262   3.865   2.488   4.874  0.1278 -0.9097  0.1977
14283TIP3   OH264263   0.568   3.157  15.796 -0.7269  0.4926  0.2479
14283TIP3    H164264   0.572   3.072  15.751 -0.4001  0.9290 -0.5676
14283TIP3    H264265   0.628   3.213  15.747 -0.1525  0.9231  1.4018
14284TIP3   OH264266   4.908   5.491   1.722  0.4520 -0.1581 -0.5771
14284TIP3    H164267   4.977   5.514   1.785 -0.2002 -0.7900  0.4035
14284TIP3    H264268   4.906   5.395   1.724 -0.8064 -0.1381 -0.1839
14285TIP3   OH264269   1.507   0.085  16.502  0.5858 -0.1646  0.1060
14285TIP3    H164270   1.583   0.067  16.558 -0.2591 -0.1334  1.2877
14285TIP3    H264271   1.517   0.023  16.429  1.7341 -0.1725  0.2480
14286TIP3   OH264272   4.779   3.018   5.817 -0.1458 -0.2191 -0.2621
14286TIP3    H164273   4.847   3.077   5.784  1.3015 -2.1121 -0.8387
14286TIP3    H264274   4.788   3.022   5.912  3.1890 -2.8888 -0.2687
14287TIP3   OH264275   4.361   3.600  12.224 -0.1807  0.3564  0.1732
14287TIP3    H164276   4.327   3.650  12.150 -0.8151 -1.9239 -1.1660
14287TIP3    H264277   4.456   3.599  12.210  0.1460  3.0471  1.5238
14288TIP3   OH264278   1.727   5.327   5.065 -0.8463 -0.5029  0.0177
14288TIP3    H164279   1.712   5.403   5.008 -1.2410  0.4719  1.3663
14288TIP3    H264280   1.654   5.329   5.127 -0.1441 -1.2071  0.8937
14289TIP3   OH264281   1.651   0.876  15.107  0.5411  0.2081  0.1285
14289TIP3    H164282   1.685   0.961  15.135  0.3250  1.1040 -2.1127
14289TIP3    H264283   1.607   0.894  15.023 -0.9014 -1.8384  0.3595
14290TIP3   OH264284   1.368   6.325   2.066  0.4874  0.1681  0.7710
14290TIP3    H164285   1.378   6.395   2.131 -2.1837 -1.2709  2.9247
14290TIP3    H264286   1.431   6.258   2.094 -0.3215 -0.2486  1.6410
14291TIP3   OH264287   0.437   0.131  16.836 -0.1903 -0.3619 -0.5560
14291TIP3    H164288   0.385   0.088  16.769  0.2362  0.0467 -1.1568
14291TIP3    H264289   0.518   0.157  16.792 -0.0142  0.1556  0.0426
14292TIP3   OH264290   4.760   2.557  10.782  0.1059  0.4744  0.3081
14292TIP3    H164291   4.798   2.601  10.706 -2.4612  0.9674 -0.7597
14292TIP3    H264292   4.705   2.624  10.824 -0.0104 -0.3447  1.5243
14293TIP3   OH264293   0.392   4.146  15.258  0.0974 -0.5242  0.2325
14293TIP3    H164294   0.389   4.143  15.354  0.4733 -0.7730  0.2362
14293TIP3    H264295   0.320   4.088  15.230  1.1265 -1.9162  0.3627
14294TIP3   OH264296   6.465   5.344  15.004 -0.5680 -0.5687 -0.1350
14294TIP3    H164297   6.502   5.276  15.061  1.0043  0.3494  0.0128
14294TIP3    H264298   6.517   5.338  14.924 -0.1595  0.6850  0.0244
14295TIP3   OH264299   0.269   4.830  13.032 -0.1169 -0.5375 -0.0498
14295TIP3    H164300   0.345   4.810  12.978  0.3686  0.0274  0.4065
14295TIP3    H264301   0.264   4.757  13.094 -1.0260 -1.4817 -1.2136
14296TIP3   OH264302   0.517   3.263   2.622  0.4958  0.4802 -0.1862
14296TIP3    H164303   0.502   3.182   2.573  1.2691  0.7346 -0.8741
14296TIP3    H264304   0.564   3.320   2.561 -0.0637  1.4679  0.2765
14297TIP3   OH264305   1.412   1.642  10.952 -0.1601 -0.0490  0.2536
14297TIP3    H164306   1.447   1.554  10.946  1.0277 -0.0505  4.4572
14297TIP3    H264307   1.474   1.696  10.903 -1.3117 -1.4408 -3.0390
14298TIP3   OH264308   0.897   0.128   5.881 -0.3122 -0.3627  0.3725
14298TIP3    H164309   0.915   0.179   5.960  0.8314 -1.2608  0.7198
14298TIP3    H264310   0.845   0.186   5.826  2.1257  1.7571  0.1189
14299TIP3   OH264311   5.385   0.895   2.299  0.2364  0.1045 -0.0785
14299TIP3    H164312   5.347   0.917   2.214  1.2443  0.2341 -0.5194
14299TIP3    H264313   5.346   0.812   2.323  0.5498 -0.3399 -1.0758
14300TIP3   OH264314   3.864   1.540  12.542  0.8386  0.1499  0.3175
14300TIP3    H164315   3.930   1.598  12.503  0.6130  0.8756  0.9908
14300TIP3    H264316   3.782   1.587  12.531  0.8389  0.6349  2.1337
14301TIP3   OH264317   4.444   1.398  13.625  0.2295 -0.0275 -0.6162
14301TIP3    H164318   4.416   1.307  13.624 -0.2520  0.1174 -1.1951
14301TIP3    H264319   4.389   1.440  13.558  2.0097  0.2400 -1.9713
14302TIP3   OH264320   6.244   2.810  15.389  0.2606  0.5023 -0.2572
14302TIP3    H164321   6.268   2.804  15.297  1.5084  1.9487 -0.0624
14302TIP3    H264322   6.157   2.770  15.394  0.6512 -0.6107 -1.8441
14303TIP3   OH264323   0.489   5.806  15.352  0.2172  0.2251 -0.3468
14303TIP3    H164324   0.579   5.778  15.367 -0.1280 -0.8594 -0.2567
14303TIP3    H264325   0.436   5.728  15.366 -0.7395  0.8296 -0.4773
14304TIP3   OH264326   0.440   2.208   3.496  0.4024  0.2556  0.0206
14304TIP3    H164327   0.406   2.271   3.561  1.8005  0.8536  0.2103
14304TIP3    H264328   0.435   2.255   3.413 -0.0530  0.0114 -0.0944
14305TIP3   OH264329   2.179   2.696  15.672 -0.0544  0.4520  0.0554
14305TIP3    H164330   2.099   2.737  15.640  0.0935  0.0946 -0.8072
14305TIP3    H264331   2.237   2.694  15.595  0.3494 -0.3472  0.3708
14306TIP3   OH264332   3.050   0.062   4.377  0.6349  0.6072  0.0526
14306TIP3    H164333   3.066   0.094   4.288  1.9756  0.8612  0.3612
14306TIP3    H264334   3.077  -0.030   4.374 -0.8942  0.1340 -0.2039
14307TIP3   OH264335   2.378   6.195   2.620 -0.5293 -0.1339 -0.2896
14307TIP3    H164336   2.361   6.233   2.706 -1.1267 -0.9273 -0.0471
14307TIP3    H264337   2.296   6.151   2.597 -0.4006  0.1277 -1.2968
14308TIP3   OH264338   6.199   3.593   5.472 -0.2261  0.5042 -0.1932
14308TIP3    H164339   6.210   3.546   5.389 -1.2777 -0.7780  0.3429
14308TIP3    H264340   6.279   3.644   5.483  1.5133 -2.0352 -0.2973
14309TIP3   OH264341   3.596   0.554  12.338  0.7518 -0.6982  0.7326
14309TIP3    H164342   3.553   0.468  12.340  0.2333 -0.4659 -0.2111
14309TIP3    H264343   3.670   0.542  12.278 -0.5847  0.0709 -1.1475
14310TIP3   OH264344   2.346   5.020   6.102 -0.2838 -0.5720  0.6549
14310TIP3    H164345   2.321   4.963   6.175  1.4116  0.3711  2.0661
14310TIP3    H264346   2.263   5.051   6.066 -1.2006 -0.4129  2.7519
14311TIP3   OH264347   0.893   1.378   2.277 -0.6823  0.0315 -0.4703
14311TIP3    H164348   0.938   1.299   2.308 -1.2780 -0.5732 -1.1034
14311TIP3    H264349   0.813   1.381   2.328 -0.6938  0.1922 -0.4985
14312TIP3   OH264350   0.814   5.403  15.328  0.1510 -0.0567 -0.0407
14312TIP3    H164351   0.889   5.380  15.382  0.6321  0.4301 -0.4907
14312TIP3    H264352   0.738   5.368  15.376  0.5162  0.7039  1.1444
14313TIP3   OH264353   0.015   4.469   5.882 -0.3998  0.8170  0.0807
14313TIP3    H164354   0.045   4.515   5.960  1.1836  2.9127 -1.6525
14313TIP3    H264355   0.076   4.396   5.873  0.1330  1.2510  0.1559
14314TIP3   OH264356   1.969   4.790   2.510 -0.3961 -0.4098  0.2346
14314TIP3    H164357   1.893   4.742   2.477 -0.8940  0.5923 -0.1324
14314TIP3    H264358   2.026   4.800   2.433  0.1605 -1.2222  0.5243
14315TIP3   OH264359   5.268   4.099   1.229 -0.7462  0.8018 -0.4482
14315TIP3    H164360   5.326   4.149   1.286 -0.0530  0.1321 -0.5615
14315TIP3    H264361   5.319   4.081   1.150 -0.5687 -1.0651  0.0481
14316TIP3   OH264362   3.593   5.030   5.256  0.4682  0.4104  0.2891
14316TIP3    H164363   3.550   4.945   5.247 -0.4173  0.9830 -1.4406
14316TIP3    H264364   3.531   5.084   5.305  0.7156  0.2684  0.7607
14317TIP3   OH264365   6.624   0.366  12.378  0.6616 -0.4282 -0.5378
14317TIP3    H164366   6.598   0.282  12.339 -0.8181 -1.5218  2.4667
14317TIP3    H264367   6.543   0.415  12.385  0.4809 -0.9572  2.4502
14318TIP3   OH264368   2.373   3.241   0.669  0.2565  0.0763 -0.0777
14318TIP3    H164369   2.361   3.231   0.763  0.2050  1.0994  0.0287
14318TIP3    H264370   2.430   3.317   0.659  1.1057 -0.6248 -0.8427
14319TIP3   OH264371   4.537   4.394   5.673 -0.1210 -0.2919  0.1130
14319TIP3    H164372   4.536   4.411   5.767  1.3592  3.4171 -0.3879
14319TIP3    H264373   4.514   4.302   5.665  0.3761 -0.9215  4.1234
14320TIP3   OH264374   4.151   0.623   2.969 -0.5962  0.7249  0.0044
14320TIP3    H164375   4.082   0.601   3.032 -1.1295  1.4434 -0.3140
14320TIP3    H264376   4.226   0.570   2.996 -0.5731  1.5522  1.6774
14321TIP3   OH264377   6.560   6.577   2.992  0.2069  0.3085 -0.1573
14321TIP3    H164378   6.495   6.630   3.039  0.7474  0.1152  0.8238
14321TIP3    H264379   6.510   6.504   2.957 -0.0485 -0.0803  0.9765
14322TIP3   OH264380   5.210   2.047   2.226 -0.3364 -0.0308 -0.1809
14322TIP3    H164381   5.137   1.989   2.205  0.2085  0.0709 -2.6905
14322TIP3    H264382   5.171   2.134   2.232 -0.7493 -0.2753  0.9584
14323TIP3   OH264383   0.526   4.023  12.958  0.0725 -0.4604 -0.5267
14323TIP3    H164384   0.547   3.931  12.974  2.1812  0.2971  1.7578
14323TIP3    H264385   0.456   4.042  13.021 -1.4157 -0.7879 -2.0090
14324TIP3   OH264386   3.523   1.175  11.478 -0.2887 -0.3197  0.0181
14324TIP3    H164387   3.509   1.083  11.457 -0.8510  0.1064 -1.6337
14324TIP3    H264388   3.576   1.208  11.405  1.9804  0.1459  1.7549
14325TIP3   OH264389   0.581   1.937   1.403  0.3713  0.0556  0.0526
14325TIP3    H164390   0.584   2.011   1.343  0.3487  1.0596  1.2529
14325TIP3    H264391   0.542   1.972   1.483 -2.3481 -1.9548 -0.2811
14326TIP3   OH264392   1.155   1.419  12.412 -0.0217  0.1804 -0.1018
14326TIP3    H164393   1.241   1.396  12.378  0.1442  0.8345 -0.1300
14326TIP3    H264394   1.113   1.467  12.341 -0.8306 -1.0549 -0.4938
14327TIP3   OH264395   2.211   4.362  14.879 -0.3428  0.3184  0.1201
14327TIP3    H164396   2.272   4.307  14.830 -1.2811 -0.4847 -0.1845
14327TIP3    H264397   2.234   4.348  14.970 -0.1701 -0.1073  0.0141
14328TIP3   OH264398   1.630   2.568   2.048 -0.1797 -0.2715 -0.2822
14328TIP3    H164399   1.676   2.486   2.064 -0.4226 -0.0283  1.8311
14328TIP3    H264400   1.624   2.610   2.133 -2.7040  0.5733 -0.7793
14329TIP3   OH264401   2.005   1.204  15.604  0.6280  0.2274 -0.2625
14329TIP3    H164402   1.915   1.184  15.578  0.9417 -1.1562 -0.3795
14329TIP3    H264403   2.058   1.174  15.530  1.2663 -0.1821  0.3487
14330TIP3   OH264404   0.197   0.419   4.084  0.1781 -0.3730 -0.5682
14330TIP3    H164405   0.136   0.348   4.067  2.5803 -2.5032 -0.8091
14330TIP3    H264406   0.258   0.418   4.010  1.8503  0.1410  0.7149
14331TIP3   OH264407   1.021   6.551   3.671 -0.5131 -0.7819  0.0532
14331TIP3    H164408   1.075   6.501   3.732 -0.5554  0.5995  1.2762
14331TIP3    H264409   0.932   6.545   3.707 -0.7334 -0.8286 -0.4781
14332TIP3   OH264410   4.849   1.453   2.440  0.0509  0.3568 -0.2318
14332TIP3    H164411   4.868   1.435   2.348 -0.3376 -0.2061 -0.2059
14332TIP3    H264412   4.788   1.527   2.438 -3.1737 -2.1006 -0.6717
14333TIP3   OH264413   5.112   2.759  13.672  0.2123 -0.0162  0.1891
14333TIP3    H164414   5.106   2.715  13.757  0.8146 -0.4656  0.0103
14333TIP3    H264415   5.052   2.833  13.679 -0.5751 -0.6797  0.6150
14334TIP3   OH264416   4.403   6.680   1.409  0.0972 -0.0923  0.3022
14334TIP3    H164417   4.467   6.610   1.420  0.9801  0.3257 -1.8054
14334TIP3    H264418   4.434   6.750   1.467  0.9468 -0.3014  0.1087
14335TIP3   OH264419   3.984   3.760  14.835 -0.2708  0.0682  0.2057
14335TIP3    H164420   3.942   3.846  14.844 -0.6293 -0.1093  0.2268
14335TIP3    H264421   3.922   3.698  14.874  0.3403 -0.1079  0.9117
14336TIP3   OH264422   4.478   0.731   3.090 -0.3129 -0.2291 -0.3098
14336TIP3    H164423   4.535   0.721   3.014 -0.2230 -0.5085 -0.2091
14336TIP3    H264424   4.444   0.643   3.107 -0.7575 -0.0677 -0.3535
14337TIP3   OH264425   0.765   0.268  10.816  0.0891  0.1501  0.0134
14337TIP3    H164426   0.688   0.256  10.760  0.3881 -2.1658 -0.0087
14337TIP3    H264427   0.762   0.193  10.876  2.4154 -0.1029 -0.1114
14338TIP3   OH264428   4.674   2.674  15.420  0.1109 -0.1705 -0.0006
14338TIP3    H164429   4.671   2.692  15.515 -1.1787 -0.6881  0.0736
14338TIP3    H264430   4.582   2.674  15.393  0.2381 -2.9584 -0.6915
14339TIP3   OH264431   0.626   2.004  17.189  0.1613  0.0365  0.3696
14339TIP3    H164432   0.639   2.088  17.233  3.1590 -0.8456  1.4660
14339TIP3    H264433   0.633   1.940  17.260 -0.1210 -1.2145 -0.7144
14340TIP3   OH264434   2.250   2.277  11.419  0.3781  0.1917  0.2644
14340TIP3    H164435   2.157   2.297  11.420  0.1461 -0.2665 -2.8532
14340TIP3    H264436   2.282   2.314  11.336  3.2252  1.2553  1.6898
14341TIP3   OH264437   2.915   4.751   3.645  0.0763  0.4489  0.5376
14341TIP3    H164438   2.941   4.741   3.737 -0.0311  1.7429  0.7188
14341TIP3    H264439   2.998   4.760   3.597  0.1845 -1.2176  0.3543
14342TIP3   OH264440   4.716   4.690   4.044 -0.4358  0.2732  0.5415
14342TIP3    H164441   4.675   4.617   3.997  0.8138 -0.4392  0.4854
14342TIP3    H264442   4.644   4.749   4.065 -1.1097  0.5017 -2.0253
14343TIP3   OH264443   0.893   3.962   0.395 -0.1476 -0.3330 -0.3877
14343TIP3    H164444   0.806   4.000   0.385  0.6374  1.6327 -0.1337
14343TIP3    H264445   0.945   4.001   0.325  1.3043  1.0474  1.3621
14344TIP3   OH264446   4.831   5.265   3.059 -0.3551 -0.1754 -0.0400
14344TIP3    H164447   4.755   5.286   3.113 -2.2001  0.9032 -2.8461
14344TIP3    H264448   4.815   5.176   3.028  0.3172 -0.5017  0.5051
14345TIP3   OH264449   1.781   0.109  12.163 -0.6789 -0.8332 -0.3926
14345TIP3    H164450   1.810   0.039  12.221  0.6475  0.6838  0.8726
14345TIP3    H264451   1.759   0.181  12.222  1.1241  0.9189 -1.7458
14346TIP3   OH264452   3.621   6.519  11.928  0.5916 -0.0360  0.0406
14346TIP3    H164453   3.586   6.574  11.998  1.9853  1.6789 -0.5501
14346TIP3    H264454   3.547   6.462  11.904 -0.3257  0.2737  1.9287
14347TIP3   OH264455   6.123   0.760   4.343  0.1113 -0.5809  0.1033
14347TIP3    H164456   6.040   0.796   4.313  1.4217  1.4233 -1.3740
14347TIP3    H264457   6.103   0.720   4.427 -2.0872  1.0067  0.4211
14348TIP3   OH264458   0.438   6.752  17.065  0.1929  0.3261  0.7023
14348TIP3    H164459   0.487   6.671  17.059 -0.6971 -0.1137 -2.5990
14348TIP3    H264460   0.464   6.802  16.987 -0.6525  2.4294  1.6782
14349TIP3   OH264461   5.856   4.497  15.461 -0.0245  0.6024 -0.2316
14349TIP3    H164462   5.906   4.485  15.380 -2.2793  1.9110 -1.9358
14349TIP3    H264463   5.782   4.437  15.452  0.8668 -0.9884  2.0408
14350TIP3   OH264464   0.372   4.129   4.600 -0.3848  0.4868 -0.5658
14350TIP3    H164465   0.368   4.147   4.506  0.4644 -1.6670 -1.0606
14350TIP3    H264466   0.442   4.064   4.610 -1.4947 -0.5162  1.3540
14351TIP3   OH264467   6.641   1.057   6.318 -0.5430 -0.0059 -0.7004
14351TIP3    H164468   6.613   0.968   6.294 -0.3408 -0.4879  0.7523
14351TIP3    H264469   6.702   1.082   6.249 -0.5680 -1.0188 -1.1073
14352TIP3   OH264470   6.009   0.702   1.214  0.4241  0.2865  0.7136
14352TIP3    H164471   6.095   0.701   1.171  0.0562  1.7414 -0.1465
14352TIP3    H264472   5.992   0.795   1.230 -0.0753 -0.1270  2.8180
14353TIP3   OH264473   0.441   4.081  15.686 -0.1576  0.5078 -0.0252
14353TIP3    H164474   0.518   4.135  15.668  0.2810 -0.0710  0.0749
14353TIP3    H264475   0.436   4.079  15.782 -0.1085  0.2974 -0.0247
14354TIP3   OH264476   1.626   0.765   5.179  0.0545  0.5233  0.4135
14354TIP3    H164477   1.587   0.852   5.186  1.0372  0.9888  0.2507
14354TIP3    H264478   1.558   0.706   5.211 -1.1577  1.2023 -0.8273
14355TIP3   OH264479   6.717   5.560   1.042 -0.0263  0.1123  0.0778
14355TIP3    H164480   6.734   5.563   0.948 -0.2386 -0.8399  0.0039
14355TIP3    H264481   6.641   5.503   1.051  1.3276 -1.6794  0.9764
14356TIP3   OH264482   3.857   5.722  12.297  0.2218  0.4054 -0.3205
14356TIP3    H164483   3.950   5.744  12.295  0.7344 -1.4605  0.6725
14356TIP3    H264484   3.846   5.656  12.228  0.4910 -2.0949  1.8505
14357TIP3   OH264485   5.175   1.227   0.451 -0.0380 -0.2545  0.6577
14357TIP3    H164486   5.206   1.137   0.445  0.6359 -0.0037  0.2645
14357TIP3    H264487   5.138   1.234   0.539  0.3886 -0.7676  0.8858
14358TIP3   OH264488   4.842   0.123  16.616 -0.1984  0.1432  0.2753
14358TIP3    H164489   4.836   0.045  16.561  1.1748  0.4129 -0.2940
14358TIP3    H264490   4.859   0.090  16.704  1.4518 -0.1931 -0.1455
14359TIP3   OH264491   4.499   5.299   4.349 -0.1205 -0.0430 -0.1581
14359TIP3    H164492   4.497   5.393   4.366 -2.0211 -0.1896  0.6888
14359TIP3    H264493   4.586   5.271   4.378  0.3834  1.3943 -0.1921
14360TIP3   OH264494   3.637   3.328  11.256 -0.0876 -0.3352  0.2051
14360TIP3    H164495   3.595   3.334  11.342 -0.3557 -2.4224  0.2741
14360TIP3    H264496   3.725   3.362  11.269 -0.9680  1.9714  0.6034
14361TIP3   OH264497   0.769   0.473   3.863  0.2764  0.7517 -0.3998
14361TIP3    H164498   0.779   0.381   3.841 -1.8655 -0.2707  2.2815
14361TIP3    H264499   0.814   0.482   3.947  1.1097  2.3740 -0.9757
14362TIP3   OH264500   2.913   1.037   1.369 -0.1070  0.0367 -0.3262
14362TIP3    H164501   2.819   1.020   1.372 -0.5121  2.0166  0.1111
14362TIP3    H264502   2.938   1.023   1.278 -0.5311 -1.7768 -0.1880
14363TIP3   OH264503   3.697   4.947   4.998 -0.0269 -0.0502 -0.4433
14363TIP3    H164504   3.684   5.002   5.075 -1.6582 -1.9670  0.7243
14363TIP3    H264505   3.610   4.913   4.977  0.6308 -0.7593 -2.2462
14364TIP3   OH264506   6.153   2.432  12.013  0.5704 -0.1592 -0.1171
14364TIP3    H164507   6.110   2.363  12.063 -0.8015  1.2035  0.6944
14364TIP3    H264508   6.199   2.485  12.078  0.6526  0.3366 -0.5686
14365TIP3   OH264509   3.846   3.929  11.223  0.5778  0.3522 -0.1077
14365TIP3    H164510   3.865   3.884  11.305  0.8620 -0.3172 -0.5400
14365TIP3    H264511   3.921   3.986  11.210  1.4013 -0.8574 -0.8103
14366TIP3   OH264512   3.867   1.382   2.935 -0.2435  0.6492  0.3498
14366TIP3    H164513   3.925   1.422   2.870 -0.9313  1.3323  0.1412
14366TIP3    H264514   3.875   1.439   3.011 -0.3909  0.5572  0.4336
14367TIP3   OH264515   1.713   1.880  16.415  1.1250 -0.4719  0.9103
14367TIP3    H164516   1.732   1.786  16.410  1.8244 -0.2738 -1.4451
14367TIP3    H264517   1.712   1.909  16.324  1.2984  1.8942  1.5948
14368TIP3   OH264518   1.594   5.500   0.460 -0.4202  0.0181 -0.1184
14368TIP3    H164519   1.591   5.411   0.493 -4.4596 -0.1076 -0.3315
14368TIP3    H264520   1.588   5.555   0.539 -2.6478 -0.1010 -0.1503
14369TIP3   OH264521   3.694   5.975   0.621 -0.4334  0.1360  0.0107
14369TIP3    H164522   3.754   6.023   0.564 -0.8003 -0.0051 -0.5100
14369TIP3    H264523   3.747   5.907   0.661  0.2591  1.3949  1.3066
14370TIP3   OH264524   1.460   0.433   2.779  0.6534 -0.2165 -0.3421
14370TIP3    H164525   1.510   0.352   2.768 -1.5784 -1.4824 -2.0484
14370TIP3    H264526   1.436   0.458   2.689 -1.8958  0.1867  0.3776
14371TIP3   OH264527   0.745   6.787  15.641  0.1469 -0.2554 -1.1054
14371TIP3    H164528   0.801   6.854  15.601 -0.7961 -0.0138 -2.0713
14371TIP3    H264529   0.799   6.708  15.642  0.4626 -0.0622 -2.1599
14372TIP3   OH264530   6.104   4.134   3.991 -0.3003 -0.3388  0.3437
14372TIP3    H164531   6.168   4.088   4.046  1.0267  1.6598  0.5599
14372TIP3    H264532   6.140   4.130   3.903 -0.3930 -0.0780  0.2927
14373TIP3   OH264533   5.902   6.578  14.722 -0.5783 -0.4032  0.1844
14373TIP3    H164534   5.830   6.628  14.683  0.5601  0.0131 -1.4993
14373TIP3    H264535   5.972   6.583  14.657  2.1686  1.9647  3.0303
14374TIP3   OH264536   3.311   5.280   4.527 -0.1376 -0.6224  0.0723
14374TIP3    H164537   3.378   5.298   4.462  0.0056 -2.0060 -0.1992
14374TIP3    H264538   3.232   5.321   4.492  0.4017  0.4572  0.0820
14375TIP3   OH264539   5.141   5.347   4.961 -0.3555  0.6113 -0.3185
14375TIP3    H164540   5.049   5.361   4.936 -0.2534 -1.8474 -2.4270
14375TIP3    H264541   5.138   5.272   5.021  0.3105  0.1985 -0.7937
14376TIP3   OH264542   2.308   4.592   5.016 -0.2831  0.6499 -0.1931
14376TIP3    H164543   2.311   4.582   4.921 -1.0826  0.9861 -0.2658
14376TIP3    H264544   2.285   4.685   5.029  0.6947  0.8281  0.3432
14377TIP3   OH264545   3.492   5.112  13.262  0.1601 -0.5439 -0.3057
14377TIP3    H164546   3.466   5.036  13.210 -0.6314  0.5611 -1.6149
14377TIP3    H264547   3.585   5.100  13.278  0.5533 -0.6954 -2.4412
14378TIP3   OH264548   5.954   1.929   4.244  0.1627  0.2495 -0.1280
14378TIP3    H164549   6.046   1.952   4.256  0.4089 -0.8281  0.1992
14378TIP3    H264550   5.909   1.975   4.314  0.3949  1.0779 -0.5092
14379TIP3   OH264551   6.279   6.322   2.585 -0.0037 -0.0894  0.0823
14379TIP3    H164552   6.310   6.352   2.500 -1.3251  0.3354 -0.2850
14379TIP3    H264553   6.209   6.384   2.608  0.6595  0.1054  1.7103
14380TIP3   OH264554   0.896   5.836   0.399  0.1410  0.0643  0.3746
14380TIP3    H164555   0.924   5.745   0.406  1.5752  0.2683 -1.7801
14380TIP3    H264556   0.971   5.882   0.363 -1.5746  1.4547 -1.6914
14381TIP3   OH264557   4.298   4.478   4.677  0.5838 -0.1107  0.1161
14381TIP3    H164558   4.345   4.527   4.610  0.8942 -1.7414 -0.9052
14381TIP3    H264559   4.365   4.455   4.742  0.5402  0.3397  0.3252
14382TIP3   OH264560   3.486   2.351   4.041  1.4072  0.4511  0.2037
14382TIP3    H164561   3.566   2.384   4.000  0.5509  0.2707 -1.6823
14382TIP3    H264562   3.418   2.411   4.014  0.6529 -0.1528  0.6999
14383TIP3   OH264563   5.051   0.379   3.914  0.4613 -0.5320 -0.1834
14383TIP3    H164564   5.143   0.357   3.904  0.2924 -0.0795 -4.3764
14383TIP3    H264565   5.004   0.305   3.876 -0.6287  1.1606 -2.3262
14384TIP3   OH264566   4.205   2.398   3.848 -0.4209  0.1604  0.1403
14384TIP3    H164567   4.257   2.413   3.768  0.4459  0.3547  0.7225
14384TIP3    H264568   4.117   2.377   3.816 -0.3694  1.3435 -0.8394
14385TIP3   OH264569   3.055   2.793  15.712  0.0162  0.0149  0.1455
14385TIP3    H164570   3.077   2.885  15.697 -0.5859  0.0939 -0.2905
14385TIP3    H264571   3.138   2.747  15.704  0.4747  0.6207  1.2557
14386TIP3   OH264572   5.503   2.209  14.955  0.0801  0.3175  0.0353
14386TIP3    H164573   5.579   2.261  14.981 -1.7208  3.0694  0.2531
14386TIP3    H264574   5.472   2.251  14.875 -0.5320 -1.5061 -0.7225
14387TIP3   OH264575   3.829   3.267  16.670 -0.2060 -0.6898  0.4185
14387TIP3    H164576   3.834   3.295  16.578 -1.3096 -1.7532  0.0008
14387TIP3    H264577   3.898   3.316  16.714 -0.6144  0.9543 -0.6855
14388TIP3   OH264578   0.631   1.776  11.482  0.5191 -0.2603 -0.4702
14388TIP3    H164579   0.577   1.850  11.511  2.1569  0.9611 -0.4088
14388TIP3    H264580   0.629   1.715  11.555  3.6738  2.2719  2.0249
14389TIP3   OH264581   0.891   1.653   5.239  0.4737 -0.0064  0.2912
14389TIP3    H164582   0.796   1.645   5.247  0.1393  3.3574  0.9652
14389TIP3    H264583   0.904   1.715   5.167  2.1538 -0.0746  0.4912
14390TIP3   OH264584   1.788   2.083  14.830 -0.1333 -0.2801  0.2490
14390TIP3    H164585   1.817   2.107  14.918 -0.1040  0.4298  0.0545
14390TIP3    H264586   1.841   2.007  14.806  0.3162 -0.0738  0.5858
14391TIP3   OH264587   0.407   1.775  13.414 -0.3596 -0.1943  0.6826
14391TIP3    H164588   0.321   1.737  13.433  0.0343 -1.6941 -0.3709
14391TIP3    H264589   0.462   1.746  13.487 -0.2969 -0.8737  0.3751
14392TIP3   OH264590   4.168   3.540   4.294  0.1624 -1.1058  0.4757
14392TIP3    H164591   4.135   3.630   4.292  2.7168 -0.0768  1.1145
14392TIP3    H264592   4.125   3.497   4.220  0.9694  1.4312 -1.5984
14393TIP3   OH264593   3.652   2.415  13.841  0.4900  0.0994 -0.0002
14393TIP3    H164594   3.704   2.443  13.766  1.1934 -2.0657 -0.4183
14393TIP3    H264595   3.562   2.441  13.819  0.9675  1.3162 -0.6160
14394TIP3   OH264596   1.785   3.795   3.767  0.1359 -0.5356 -0.9729
14394TIP3    H164597   1.707   3.816   3.818  0.7498  2.2899 -1.0380
14394TIP3    H264598   1.752   3.782   3.678 -0.2455  1.3409 -1.1415
14395TIP3   OH264599   6.501   3.769  11.902 -0.0835 -0.2264  0.1063
14395TIP3    H164600   6.593   3.785  11.922 -0.1018  0.3711 -0.2827
14395TIP3    H264601   6.497   3.677  11.879  0.2333 -0.5257  1.1646
14396TIP3   OH264602   5.728   4.030  14.783 -0.1909 -0.0957 -0.1203
14396TIP3    H164603   5.814   4.067  14.765 -0.2217 -0.3172 -0.7528
14396TIP3    H264604   5.722   4.028  14.879 -0.3033  1.7772 -0.0499
14397TIP3   OH264605   1.584   5.636   3.490  0.1920  0.1921  0.4057
14397TIP3    H164606   1.634   5.692   3.549 -0.1724 -0.7060  1.6011
14397TIP3    H264607   1.493   5.648   3.516 -0.0691  0.4997 -0.6074
14398TIP3   OH264608   6.223   0.765   4.077  0.4246 -0.0577 -0.4341
14398TIP3    H164609   6.201   0.722   4.159 -0.0415  1.1930  0.1112
14398TIP3    H264610   6.317   0.781   4.083  0.0086  2.1924  0.9398
14399TIP3   OH264611   5.519   4.979   6.324  0.1743 -0.0299  0.7659
14399TIP3    H164612   5.521   5.013   6.414  1.7358 -3.3771  2.1768
14399TIP3    H264613   5.508   4.885   6.335  1.1061 -0.6309 -2.5450
14400TIP3   OH264614   1.444   3.286   2.721  0.2016  0.8734  0.8281
14400TIP3    H164615   1.437   3.222   2.650 -0.8046  0.8227  0.9615
14400TIP3    H264616   1.506   3.351   2.688  0.5353  0.3114  0.3231
14401TIP3   OH264617   2.119   5.738   0.041 -1.0911 -0.4519 -0.1954
14401TIP3    H164618   2.034   5.756   0.081 -0.6858  2.1639 -0.3297
14401TIP3    H264619   2.170   5.694   0.110 -1.5573  0.7658  0.9518
14402TIP3   OH264620   1.751   5.897  15.289 -0.2682 -0.9652  0.0255
14402TIP3    H164621   1.679   5.848  15.250 -0.2726 -3.0757  2.4006
14402TIP3    H264622   1.821   5.893  15.223 -1.7339 -0.2912 -1.6362
14403TIP3   OH264623   5.775   3.840  13.780  0.0181 -0.3587  0.5829
14403TIP3    H164624   5.719   3.899  13.831 -0.4631 -0.9168  0.7097
14403TIP3    H264625   5.716   3.803  13.714  0.0278 -1.5901  1.2423
14404TIP3   OH264626   6.283   5.989   4.356  0.0498  0.3161  0.1723
14404TIP3    H164627   6.213   5.971   4.419  0.3876  1.2005  0.8079
14404TIP3    H264628   6.237   6.004   4.274 -0.7553  3.2859  1.0536
14405TIP3   OH264629   4.260   2.745  16.538  0.0895 -0.8901  0.1902
14405TIP3    H164630   4.175   2.753  16.581  0.0316  0.7536 -0.1784
14405TIP3    H264631   4.241   2.758  16.445  0.8428  0.2888  0.1875
14406TIP3   OH264632   1.310   6.780   3.709  0.2507 -0.2496 -0.2403
14406TIP3    H164633   1.350   6.838   3.774  0.2649 -0.7236  0.1863
14406TIP3    H264634   1.268   6.838   3.647 -1.1733  0.2150  1.0850
14407TIP3   OH264635   3.816   6.559   0.627 -0.0861  0.6207  0.6234
14407TIP3    H164636   3.837   6.652   0.638  1.2889  0.3434  0.5368
14407TIP3    H264637   3.887   6.526   0.571 -0.2781 -0.5938  1.0849
14408TIP3   OH264638   0.629   0.088  16.285 -0.4253  0.0786 -0.3347
14408TIP3    H164639   0.656   0.178  16.266  0.2651 -0.0441  0.0586
14408TIP3    H264640   0.544   0.079  16.241 -0.4744  0.9051 -0.4185
14409TIP3   OH264641   4.951   1.418   2.173  0.2297 -0.5488  0.4085
14409TIP3    H164642   5.046   1.431   2.180 -0.0331  0.9936  1.5307
14409TIP3    H264643   4.924   1.479   2.104  0.0803 -1.2050 -0.1202
14410TIP3   OH264644   3.115   2.602  13.754 -0.2561  0.0986 -0.1759
14410TIP3    H164645   3.062   2.523  13.761  0.6955 -0.5858 -0.5131
14410TIP3    H264646   3.135   2.608  13.660 -1.2377  1.3691 -0.3364
14411TIP3   OH264647   0.788   5.980  15.109  0.0401  0.2678 -0.3193
14411TIP3    H164648   0.766   5.943  15.195 -3.1275  1.2665 -0.5500
14411TIP3    H264649   0.727   5.938  15.049  2.7495 -1.0517 -2.3559
14412TIP3   OH264650   0.457   6.560   2.808 -0.0251  0.3649 -0.3627
14412TIP3    H164651   0.527   6.574   2.872 -0.4952  0.9771  0.0346
14412TIP3    H264652   0.500   6.569   2.723  0.5227 -0.0359 -0.1380
14413TIP3   OH264653   3.381   0.778   2.647 -0.0073 -0.2881 -0.0565
14413TIP3    H164654   3.397   0.726   2.726  1.1650 -0.5705 -0.4603
14413TIP3    H264655   3.464   0.824   2.632 -0.3844  0.1518 -0.8448
14414TIP3   OH264656   3.233   4.363  12.253 -0.5776  0.5818 -0.0921
14414TIP3    H164657   3.144   4.371  12.289 -0.5508  1.6742 -0.2408
14414TIP3    H264658   3.289   4.404  12.319  0.3670 -3.2701  1.8224
14415TIP3   OH264659   4.715   1.798  13.889  0.6438  0.3499  0.0204
14415TIP3    H164660   4.655   1.751  13.830  2.4669 -1.1572 -0.7401
14415TIP3    H264661   4.744   1.732  13.952  1.5565  1.0191  0.3291
14416TIP3   OH264662   1.813   5.588   4.616  0.2176 -0.0580 -0.3905
14416TIP3    H164663   1.816   5.667   4.561 -0.5156  0.2089 -0.0639
14416TIP3    H264664   1.884   5.533   4.583  1.7956  1.4115  0.3998
14417TIP3   OH264665   5.539   0.153   4.173  0.0488  0.1769  0.2510
14417TIP3    H164666   5.553   0.235   4.125 -0.3026  0.3410  0.4213
14417TIP3    H264667   5.573   0.171   4.261 -1.0007  0.5143  0.6123
14418TIP3   OH264668   5.690   2.904   5.795  0.6281 -0.1491 -0.0561
14418TIP3    H164669   5.733   2.822   5.773  0.9216  0.2337 -0.9643
14418TIP3    H264670   5.716   2.922   5.885 -1.1900 -2.1318  0.9543
14419TIP3   OH264671   5.289   2.898  15.896 -0.5219  0.1482  0.6869
14419TIP3    H164672   5.256   2.916  15.984 -0.2904  1.2477  0.5504
14419TIP3    H264673   5.305   2.984  15.857 -0.5334 -0.3214 -0.4019
14420TIP3   OH264674   2.394   6.726  15.700  0.1173 -0.2407  0.4699
14420TIP3    H164675   2.408   6.654  15.639  0.6568  0.7405 -0.5832
14420TIP3    H264676   2.344   6.790  15.650  1.0092  0.7977  0.8748
14421TIP3   OH264677   0.146   6.418   3.799  0.1300 -0.2192  0.4772
14421TIP3    H164678   0.182   6.504   3.820  0.1142  0.0745 -0.6185
14421TIP3    H264679   0.117   6.382   3.883 -0.8642  1.3149  0.8196
14422TIP3   OH264680   0.516   5.050   1.194 -0.0313  0.1026 -0.3481
14422TIP3    H164681   0.540   5.096   1.113 -0.0908  0.4731 -0.1567
14422TIP3    H264682   0.513   4.958   1.169  1.6198  0.0279 -0.3799
14423TIP3   OH264683   5.189   5.307   2.403 -0.0249 -0.1224 -0.0941
14423TIP3    H164684   5.110   5.254   2.412 -1.4213  1.8876  0.0148
14423TIP3    H264685   5.227   5.310   2.491  0.9269 -2.1228 -0.3876
14424TIP3   OH264686   4.290   3.014   2.045  0.5959 -0.4494  0.0851
14424TIP3    H164687   4.289   2.919   2.034  0.9142 -0.4833  0.3380
14424TIP3    H264688   4.204   3.035   2.082  0.0294 -0.4886 -1.1302
14425TIP3   OH264689   0.097   6.575  14.294  0.5178 -0.4524  0.2718
14425TIP3    H164690   0.037   6.629  14.344  0.2959 -0.2011 -0.2587
14425TIP3    H264691   0.145   6.636  14.238  1.6614 -0.5813  1.0661
14426TIP3   OH264692   6.117   6.440   0.456  0.0547  0.0869  0.3821
14426TIP3    H164693   6.133   6.527   0.419  0.1649  1.4712  3.3792
14426TIP3    H264694   6.129   6.452   0.551 -2.4778 -2.6220  1.1798
14427TIP3   OH264695   1.853   0.280   2.198  0.4201 -0.2330  0.0075
14427TIP3    H164696   1.932   0.242   2.160  2.4198  1.7018  1.9678
14427TIP3    H264697   1.875   0.370   2.217 -2.9612  1.0092 -1.0882
14428TIP3   OH264698   3.273   4.890   2.083  0.4008  0.9665  0.0731
14428TIP3    H164699   3.187   4.908   2.047  0.1195 -0.6655 -0.1016
14428TIP3    H264700   3.260   4.819   2.145  1.6589  0.4604 -0.1962
14429TIP3   OH264701   4.061   1.376   5.774  0.3618  0.0216 -0.4143
14429TIP3    H164702   4.105   1.424   5.704  1.0882  0.2853  0.2109
14429TIP3    H264703   4.131   1.350   5.834 -0.0971 -1.2256 -0.3767
14430TIP3   OH264704   0.372   0.426  14.717  0.1313 -0.0923  0.1146
14430TIP3    H164705   0.403   0.417  14.808 -0.9324  0.7112  0.5793
14430TIP3    H264706   0.277   0.420  14.724  0.0941 -2.7598 -1.2982
14431TIP3   OH264707   5.946   6.019   5.798 -0.0689 -0.3860  0.1529
14431TIP3    H164708   5.858   6.006   5.762  0.2359 -1.4430 -0.2655
14431TIP3    H264709   5.931   6.049   5.888 -0.8877 -1.7485  0.5007
14432TIP3   OH264710   6.740   3.885   5.926 -0.2882  0.2691 -0.0322
14432TIP3    H164711   6.835   3.888   5.941 -0.7835  3.3154  4.4938
14432TIP3    H264712   6.708   3.818   5.986 -1.1174  0.9905  0.3710
14433TIP3   OH264713   0.738   4.719   1.411 -0.6096  0.1765 -0.1238
14433TIP3    H164714   0.712   4.767   1.332  0.2678  2.0191  0.6555
14433TIP3    H264715   0.711   4.776   1.484  2.9136  0.9179  0.7997
14434TIP3   OH264716   2.453   0.651  10.974  0.8973 -0.1625  0.0619
14434TIP3    H164717   2.475   0.573  10.923  1.1803 -0.0006 -0.0652
14434TIP3    H264718   2.534   0.701  10.978  0.3498  0.8678 -1.1512
14435TIP3   OH264719   4.249   2.131   4.093  0.2754  0.3337  0.0026
14435TIP3    H164720   4.170   2.122   4.040 -0.9696  0.8694  1.6860
14435TIP3    H264721   4.304   2.191   4.043  0.2176 -1.0480 -1.8126
14436TIP3   OH264722   4.452   3.293   3.452 -0.7642 -0.3446  0.4669
14436TIP3    H164723   4.540   3.276   3.484 -0.8625  1.3808  1.7456
14436TIP3    H264724   4.395   3.280   3.528 -1.5573 -0.7109 -0.1627
14437TIP3   OH264725   3.348   5.427  11.334  0.1657 -0.1529 -0.3565
14437TIP3    H164726   3.254   5.443  11.346 -0.1175 -2.4197  0.8881
14437TIP3    H264727   3.353   5.354  11.273  1.0576 -1.0261  0.7307
14438TIP3   OH264728   3.229   6.045  16.818  0.0816 -0.4386 -0.1486
14438TIP3    H164729   3.148   6.081  16.854  1.3012  2.0299  0.3299
14438TIP3    H264730   3.298   6.101  16.854  2.0475 -2.5515 -0.4084
14439TIP3   OH264731   5.741   5.592  11.904  0.0569  0.2770  0.7913
14439TIP3    H164732   5.691   5.671  11.884  0.1776  0.4262  1.0687
14439TIP3    H264733   5.734   5.582  11.999  0.3518  0.1630  0.8041
14440TIP3   OH264734   0.107   1.242   2.907 -0.1872  0.4936  0.0848
14440TIP3    H164735   0.015   1.239   2.934 -0.8001  1.1805 -1.7906
14440TIP3    H264736   0.156   1.228   2.989 -1.9371 -0.4267  1.0362
14441TIP3   OH264737   5.305   1.059  11.317  0.0992  0.8434  0.2271
14441TIP3    H164738   5.220   1.042  11.357  0.9309 -1.7711  1.1223
14441TIP3    H264739   5.286   1.109  11.238 -2.4889 -1.3026 -0.6372
14442TIP3   OH264740   2.293   6.482   5.684 -0.0055  0.0240  0.5708
14442TIP3    H164741   2.367   6.520   5.637  0.8256 -0.7411  1.2192
14442TIP3    H264742   2.301   6.515   5.774 -0.1909 -0.3954  0.7478
14443TIP3   OH264743   1.989   4.639  13.702 -0.0549 -0.4857  0.0904
14443TIP3    H164744   2.048   4.602  13.766  0.3192 -2.1153 -1.1445
14443TIP3    H264745   1.943   4.709  13.749  4.5163  2.6829  0.5324
14444TIP3   OH264746   2.727   3.056   3.874  0.7105 -0.0298  0.3489
14444TIP3    H164747   2.702   2.975   3.831  0.9693 -0.8159  1.6128
14444TIP3    H264748   2.650   3.112   3.868  0.5889 -0.2968 -0.6857
14445TIP3   OH264749   6.210   1.081  12.429 -0.3047 -0.1343  0.1981
14445TIP3    H164750   6.231   1.163  12.474  3.7942 -1.0625  0.4343
14445TIP3    H264751   6.195   1.018  12.500 -0.8354 -0.1333  0.0876
14446TIP3   OH264752   5.955   3.547  15.539  0.0611 -0.1589 -0.2803
14446TIP3    H164753   5.901   3.524  15.463  1.5627  0.6332 -1.6328
14446TIP3    H264754   5.960   3.642  15.537  2.1300 -0.2380 -0.6681
14447TIP3   OH264755   6.699   6.465   3.666 -0.2199 -0.1215 -0.6676
14447TIP3    H164756   6.726   6.537   3.608  0.8775 -0.6958 -0.8997
14447TIP3    H264757   6.770   6.458   3.730 -1.7704  1.0205  1.2858
14448TIP3   OH264758   0.528   1.245   0.360 -0.1816 -0.2700  0.4910
14448TIP3    H164759   0.552   1.213   0.447 -1.6905 -0.1106  0.9967
14448TIP3    H264760   0.540   1.340   0.366 -1.9978 -0.0473  1.1408
14449TIP3   OH264761   5.833   1.229  13.620  0.3337 -0.4600 -0.0884
14449TIP3    H164762   5.756   1.172  13.619 -2.1799  2.5921 -1.7982
14449TIP3    H264763   5.882   1.204  13.542  0.0412 -1.1721 -0.0536
14450TIP3   OH264764   0.956   6.301   5.511 -0.0406  0.4378  0.7374
14450TIP3    H164765   1.015   6.339   5.446 -0.5056  1.4536  0.8945
14450TIP3    H264766   0.883   6.267   5.460  1.3764 -2.3628  0.3566
14451TIP3   OH264767   5.806   0.159   0.610 -0.3129  0.2286  0.0853
14451TIP3    H164768   5.748   0.084   0.621  0.8571 -0.4932  1.8395
14451TIP3    H264769   5.810   0.174   0.516 -1.1666 -1.4351 -0.2429
14452TIP3   OH264770   3.290   4.256  15.260  0.0521 -0.0947  0.1592
14452TIP3    H164771   3.259   4.191  15.198 -0.4377  0.0098  0.2845
14452TIP3    H264772   3.241   4.238  15.341  0.9406 -0.4573  0.6310
14453TIP3   OH264773   4.116   3.287   3.834 -0.3733  0.5845  0.4687
14453TIP3    H164774   4.168   3.210   3.857 -2.0502 -0.7637 -0.1263
14453TIP3    H264775   4.161   3.324   3.758 -1.2508 -1.6831 -1.2685
14454TIP3   OH264776   2.238   6.506   2.642 -0.2379  0.3432  0.0184
14454TIP3    H164777   2.311   6.539   2.693  0.0995  1.1427 -0.9353
14454TIP3    H264778   2.271   6.504   2.552 -1.0417 -0.3212 -0.2754
14455TIP3   OH264779   2.306   1.274   2.505  0.2169 -0.1210  0.0984
14455TIP3    H164780   2.380   1.246   2.558  0.7682  2.2756  0.7147
14455TIP3    H264781   2.237   1.211   2.525  1.0536 -0.4635  2.1069
14456TIP3   OH264782   2.814   4.306   2.468 -0.0633  0.3533 -0.3981
14456TIP3    H164783   2.778   4.339   2.386 -0.0968 -3.5290 -2.1358
14456TIP3    H264784   2.747   4.248   2.503  1.1860 -0.4883  0.7152
14457TIP3   OH264785   4.666   3.627  13.766  0.8961 -0.1982 -0.2667
14457TIP3    H164786   4.711   3.666  13.691 -0.8264  0.6844 -0.8936
14457TIP3    H264787   4.577   3.662  13.762  0.6897 -0.2787  2.0858
14458TIP3   OH264788   0.660   1.989  11.889  0.2771 -0.1998 -0.2754
14458TIP3    H164789   0.595   1.928  11.924  0.2144 -0.1038 -0.2237
14458TIP3    H264790   0.673   2.053  11.959 -0.7645  0.7103 -0.8681
14459TIP3   OH264791   4.636   0.961  15.379  0.0102 -0.0234  0.2467
14459TIP3    H164792   4.665   1.052  15.375  1.3090 -0.3918  0.9266
14459TIP3    H264793   4.651   0.926  15.291  0.2867  0.1853  0.2133
14460TIP3   OH264794   3.805   2.800  16.918  0.0978  0.2761 -0.3963
14460TIP3    H164795   3.819   2.894  16.919 -0.3448  0.3894 -2.0923
14460TIP3    H264796   3.723   2.787  16.965 -0.4463  0.8678 -1.1705
14461TIP3   OH264797   6.293   3.795   2.637 -0.1041  0.2113  0.2108
14461TIP3    H164798   6.288   3.759   2.726  0.4708 -2.2990 -0.6736
14461TIP3    H264799   6.206   3.779   2.600 -0.0694  0.4230  0.0385
14462TIP3   OH264800   2.703   5.113  13.739 -0.1119  0.5150  0.1313
14462TIP3    H164801   2.782   5.079  13.780 -1.2037 -2.0100  0.3073
14462TIP3    H264802   2.722   5.205  13.722  2.8162  0.0085  0.2414
14463TIP3   OH264803   6.520   2.044   5.928 -0.2980  0.2868  0.5926
14463TIP3    H164804   6.426   2.036   5.945 -0.3642 -0.5285 -0.0749
14463TIP3    H264805   6.561   2.008   6.006 -0.5858 -2.1478 -0.2982
14464TIP3   OH264806   2.653   0.325  12.892 -0.2056 -0.3072 -0.1731
14464TIP3    H164807   2.708   0.256  12.854 -1.1816 -0.8975 -0.5817
14464TIP3    H264808   2.705   0.405  12.884  0.0286 -0.5807 -1.9019
14465TIP3   OH264809   2.819   4.597   0.750  0.2660 -0.8385 -0.0031
14465TIP3    H164810   2.735   4.601   0.704 -0.6345  0.6409  1.6577
14465TIP3    H264811   2.823   4.508   0.785 -1.0054 -0.6854  0.5769
14466TIP3   OH264812   1.462   0.222   0.977  0.0699 -0.1697 -0.6313
14466TIP3    H164813   1.533   0.175   0.934  0.1632 -0.5622 -0.0529
14466TIP3    H264814   1.438   0.291   0.915  2.7725  1.7331  0.2851
14467TIP3   OH264815   5.026   0.660  16.063  0.0202 -0.9143  0.2528
14467TIP3    H164816   5.076   0.580  16.044  1.2301 -0.4148  1.2281
14467TIP3    H264817   5.044   0.718  15.989 -1.5623 -1.8173 -0.9040
14468TIP3   OH264818   5.934   1.208  11.813 -0.0164  0.0642  0.1844
14468TIP3    H164819   5.869   1.155  11.767  1.9700 -1.7331 -0.6782
14468TIP3    H264820   5.882   1.260  11.875 -2.3146 -0.8309 -0.8721
14469TIP3   OH264821   5.711   4.671  12.124  0.0024 -0.5488  0.1611
14469TIP3    H164822   5.803   4.660  12.102  0.2775  0.3609  0.7757
14469TIP3    H264823   5.691   4.598  12.182  0.3258 -0.7716 -0.0070
14470TIP3   OH264824   4.841   6.345   3.608  0.0697 -0.2219  0.4546
14470TIP3    H164825   4.800   6.423   3.646  0.2304  0.4218 -0.6693
14470TIP3    H264826   4.858   6.288   3.683  0.5050  1.0779  1.3638
14471TIP3   OH264827   3.549   2.439   1.696  0.3723  0.2610 -0.7274
14471TIP3    H164828   3.594   2.355   1.707 -1.0964 -0.7689 -2.1509
14471TIP3    H264829   3.590   2.478   1.619  1.2029  0.9871  0.0616
14472TIP3   OH264830   6.287   3.571   1.865 -0.6263  0.0044 -0.5951
14472TIP3    H164831   6.198   3.556   1.833 -0.3535  1.5143 -2.2544
14472TIP3    H264832   6.343   3.527   1.801 -0.1483  0.0294 -0.1951
14473TIP3   OH264833   2.476   5.100  10.419  0.1587 -0.8148 -0.2003
14473TIP3    H164834   2.427   5.181  10.402 -0.3546 -1.3686 -1.4833
14473TIP3    H264835   2.418   5.030  10.390  0.2312 -1.7397  1.7139
14474TIP3   OH264836   3.967   2.404   2.520 -0.2928 -0.0095  0.2956
14474TIP3    H164837   3.916   2.361   2.589  0.9042 -3.5652 -0.8086
14474TIP3    H264838   3.907   2.409   2.445 -0.7238  1.2603  0.6956
14475TIP3   OH264839   5.368   1.848  16.641 -0.0753 -0.1119 -0.6760
14475TIP3    H164840   5.427   1.794  16.587  0.6155  0.5747 -0.6171
14475TIP3    H264841   5.425   1.911  16.684 -0.7631  0.0506  0.0164
14476TIP3   OH264842   6.384   2.118  12.331  0.1080 -0.0849  0.5811
14476TIP3    H164843   6.328   2.121  12.253 -1.4730  1.4395  1.6788
14476TIP3    H264844   6.340   2.057  12.390 -0.6848  1.4096  1.6000
14477TIP3   OH264845   0.683   2.969   4.464 -0.2801  0.3860  0.0379
14477TIP3    H164846   0.622   2.902   4.496  0.5763 -1.5948 -2.1866
14477TIP3    H264847   0.770   2.930   4.473  0.3612  1.6546 -0.3118
14478TIP3   OH264848   3.489   1.756   6.159 -0.4434  0.2799  0.7771
14478TIP3    H164849   3.511   1.849   6.158 -1.0043  0.4260 -0.7318
14478TIP3    H264850   3.524   1.722   6.077 -1.0640 -0.6368  0.8721
14479TIP3   OH264851   1.886   2.773   1.969  0.4130 -0.0576  0.0445
14479TIP3    H164852   1.919   2.688   1.939 -0.1849  0.0396 -0.9223
14479TIP3    H264853   1.793   2.771   1.948 -0.2325 -0.2775  2.6286
14480TIP3   OH264854   0.465   3.008  16.156  0.0595 -0.5302  0.1444
14480TIP3    H164855   0.559   3.006  16.140  0.1915  0.1359  0.7800
14480TIP3    H264856   0.449   2.934  16.215 -0.1545 -1.8986 -1.5520
14481TIP3   OH264857   0.277   6.250   1.246 -0.3191  0.1873  0.0461
14481TIP3    H164858   0.222   6.284   1.176 -1.5218  0.9672  1.3371
14481TIP3    H264859   0.219   6.242   1.321  0.3486 -2.8735  0.3979
14482TIP3   OH264860   6.087   3.850   3.740 -0.2570  0.8133  0.0982
14482TIP3    H164861   6.014   3.833   3.681  0.5178  0.1604 -0.7026
14482TIP3    H264862   6.059   3.812   3.824 -0.0849 -1.1825 -0.6895
14483TIP3   OH264863   3.413   1.878  13.600  0.2416 -0.3279 -0.0085
14483TIP3    H164864   3.506   1.877  13.624  0.0668 -2.0724  0.6664
14483TIP3    H264865   3.411   1.837  13.514  0.0110 -1.0766  0.3495
14484TIP3   OH264866   1.995   3.747  11.971  0.3333  0.2549 -0.2030
14484TIP3    H164867   1.972   3.838  11.953 -0.9514  0.0427  0.3098
14484TIP3    H264868   2.084   3.738  11.935 -0.0100  1.3472 -1.4129
14485TIP3   OH264869   1.821   5.780  13.753 -0.4761 -0.3366  0.6817
14485TIP3    H164870   1.916   5.773  13.760 -0.5665 -0.7387  1.7253
14485TIP3    H264871   1.806   5.870  13.726  0.1283  0.6619  3.3099
14486TIP3   OH264872   4.845   0.842  12.240  0.4643  0.3009 -0.3837
14486TIP3    H164873   4.887   0.757  12.226 -0.2392 -0.1484  0.1380
14486TIP3    H264874   4.836   0.879  12.152  2.3733  0.6410 -0.4724
14487TIP3   OH264875   3.330   1.932  14.861  0.4333  0.0382 -0.1079
14487TIP3    H164876   3.321   1.886  14.777  2.3690  0.4350 -0.5735
14487TIP3    H264877   3.345   2.023  14.837 -1.2094  0.5738  0.7586
14488TIP3   OH264878   0.739   5.332  16.679 -0.3250 -0.0006  0.4497
14488TIP3    H164879   0.812   5.305  16.735  0.3082 -2.2722 -1.3145
14488TIP3    H264880   0.779   5.340  16.592 -2.0556 -0.7178 -0.4475
14489TIP3   OH264881   0.348   0.672   0.364  0.3069 -0.0358  0.2073
14489TIP3    H164882   0.330   0.766   0.373  1.3351  0.0548  1.4986
14489TIP3    H264883   0.272   0.630   0.404  0.4234  0.2673  0.7567
14490TIP3   OH264884   1.862   1.216  14.151 -0.0491  0.0400 -0.4261
14490TIP3    H164885   1.956   1.205  14.166  0.4432  1.7928 -1.9134
14490TIP3    H264886   1.822   1.145  14.202  1.9024  0.6359  2.2065
14491TIP3   OH264887   4.914   6.304   0.268 -0.2352 -0.0640  0.0526
14491TIP3    H164888   4.927   6.377   0.328  0.0222 -1.1473  1.3607
14491TIP3    H264889   4.894   6.230   0.324  1.7398 -1.5423 -1.0578
14492TIP3   OH264890   4.648   3.412  15.971  0.2499  0.0400 -0.4474
14492TIP3    H164891   4.623   3.365  15.892 -0.8841  0.9252 -0.6435
14492TIP3    H264892   4.587   3.380  16.038 -1.7430  2.4076 -0.9909
14493TIP3   OH264893   5.068   0.373  16.470 -0.0483 -0.1985  0.6747
14493TIP3    H164894   5.058   0.465  16.445  1.0142 -0.1450  0.3577
14493TIP3    H264895   5.080   0.327  16.386  1.3397 -0.3329  0.9121
14494TIP3   OH264896   4.365   6.041   1.960  0.3359 -0.0235 -0.1259
14494TIP3    H164897   4.283   6.030   2.008  0.0171  0.3505 -0.5704
14494TIP3    H264898   4.363   6.132   1.930  0.4406 -0.2927 -0.9947
14495TIP3   OH264899   3.041   3.158   4.267 -0.3511 -0.5192  0.5152
14495TIP3    H164900   3.066   3.105   4.343 -3.1099 -1.3449  0.9280
14495TIP3    H264901   2.948   3.177   4.279 -0.6731  0.1121 -2.2104
14496TIP3   OH264902   3.821   2.387  16.288  0.3503 -0.1500 -0.0318
14496TIP3    H164903   3.816   2.372  16.194 -0.5969  0.5898 -0.1109
14496TIP3    H264904   3.900   2.341  16.315 -0.5839 -2.3227 -0.8036
14497TIP3   OH264905   5.579   0.317   2.578 -0.0183 -0.1605  0.2149
14497TIP3    H164906   5.665   0.289   2.610  0.1425  0.6569  0.5205
14497TIP3    H264907   5.566   0.404   2.617 -1.3060 -0.5774  0.7728
14498TIP3   OH264908   4.746   6.590   3.011  0.3940  0.1475 -0.1255
14498TIP3    H164909   4.712   6.670   3.050  0.1955 -0.7859  1.6919
14498TIP3    H264910   4.670   6.549   2.970  0.3228  0.4570 -0.3063
14499TIP3   OH264911   1.843   5.137   3.376  0.7151 -0.1015  0.0818
14499TIP3    H164912   1.899   5.204   3.415 -1.3373  0.7875  1.6218
14499TIP3    H264913   1.901   5.060   3.369  1.9397  0.5167  2.3651
14500TIP3   OH264914   5.879   0.075  15.027  0.2363 -0.1115  0.6464
14500TIP3    H164915   5.916   0.110  14.946 -0.5361  1.4759  0.9442
14500TIP3    H264916   5.881  -0.020  15.016 -1.4822  0.0595 -2.0172
14501TIP3   OH264917   3.720   0.208   5.772  0.2627 -0.1383  0.3538
14501TIP3    H164918   3.728   0.113   5.782  0.9257  0.0810  2.3015
14501TIP3    H264919   3.626   0.225   5.779  0.2200 -0.5781  0.8570
14502TIP3   OH264920   3.002   1.489   1.867 -0.5401 -0.0699 -0.4020
14502TIP3    H164921   2.923   1.516   1.914 -0.4160 -0.3459 -0.0316
14502TIP3    H264922   3.040   1.571   1.836  0.4316  0.3228  1.6684
14503TIP3   OH264923   2.311   4.854  15.941 -0.2502  0.2158  0.4783
14503TIP3    H164924   2.332   4.935  15.894 -0.0831  1.0048  1.8590
14503TIP3    H264925   2.221   4.833  15.914  0.1583  0.1228 -0.8767
14504TIP3   OH264926   5.443   1.993  12.641 -0.9823 -0.5461 -0.1348
14504TIP3    H164927   5.519   1.935  12.637 -0.3651  0.2077  0.1736
14504TIP3    H264928   5.384   1.952  12.705  0.0525 -0.1636  1.1229
14505TIP3   OH264929   1.934   1.850  11.760 -0.5081  0.4224  0.1582
14505TIP3    H164930   1.952   1.879  11.670  0.1560  1.9854  0.7597
14505TIP3    H264931   1.932   1.755  11.754  0.7381  0.4392 -1.3206
14506TIP3   OH264932   2.426   1.082   3.594  0.4461  0.3911 -0.4623
14506TIP3    H164933   2.347   1.052   3.549  0.7167  0.1106 -0.7596
14506TIP3    H264934   2.451   1.008   3.649  1.7132 -0.3679 -1.9854
14507TIP3   OH264935   4.138   2.304   4.633  0.0745  0.3833 -0.1701
14507TIP3    H164936   4.086   2.384   4.638  1.6059  1.3393  2.0560
14507TIP3    H264937   4.228   2.335   4.623  0.6783 -1.0698  0.5938
14508TIP3   OH264938   2.839   6.507   2.329  0.2713  0.1270 -0.1448
14508TIP3    H164939   2.760   6.559   2.337 -0.3594 -1.0163  1.5122
14508TIP3    H264940   2.812   6.430   2.278  0.0445 -0.6961  1.1665
14509TIP3   OH264941   1.237   1.546  15.865 -0.0410 -0.0162  0.3868
14509TIP3    H164942   1.189   1.487  15.922 -0.0498 -0.9104 -0.5216
14509TIP3    H264943   1.303   1.491  15.823  0.2425  0.7066 -0.1521
14510TIP3   OH264944   1.793   4.535  16.806  0.7717 -0.2837  0.0709
14510TIP3    H164945   1.743   4.549  16.887  0.5298 -0.6088 -0.0201
14510TIP3    H264946   1.783   4.616  16.757  2.1090  0.4883  0.9924
14511TIP3   OH264947   5.757   4.858   0.049 -0.0954 -0.0629  0.3963
14511TIP3    H164948   5.738   4.950   0.035  0.5723 -0.0854 -0.7091
14511TIP3    H264949   5.836   4.841  -0.002 -1.2273 -1.6679 -0.9081
14512TIP3   OH264950   1.826   6.730  15.421 -0.0394  0.0988  0.1466
14512TIP3    H164951   1.763   6.750  15.351  0.6298 -1.0339 -0.8172
14512TIP3    H264952   1.811   6.638  15.442  0.7123  0.0550  0.5188
14513TIP3   OH264953   2.809   2.553   5.702 -0.0175  0.1835 -0.1500
14513TIP3    H164954   2.789   2.620   5.637 -0.7357  0.9238  0.8135
14513TIP3    H264955   2.900   2.529   5.684  0.2190  1.3481 -0.5701
14514TIP3   OH264956   0.387   2.744  10.989  0.7887 -0.1791 -0.5576
14514TIP3    H164957   0.353   2.675  11.045 -0.9139  1.7430  0.9340
14514TIP3    H264958   0.392   2.704  10.902  0.3995 -2.3051  0.3411
14515TIP3   OH264959   3.602   5.505  12.053 -0.2216 -0.2059 -0.3266
14515TIP3    H164960   3.695   5.520  12.036 -0.1192 -0.0591  0.3329
14515TIP3    H264961   3.600   5.438  12.120 -0.6430 -1.4109 -1.5028
14516TIP3   OH264962   5.498   3.863  16.439  0.2038 -0.3862 -0.2706
14516TIP3    H164963   5.563   3.879  16.508 -2.1141 -0.1450  2.0407
14516TIP3    H264964   5.491   3.947  16.393 -0.1100  0.3258  1.0137
14517TIP3   OH264965   4.865   3.064   1.577 -0.8979 -0.4033  0.0340
14517TIP3    H164966   4.771   3.060   1.598 -1.4263 -0.7436 -2.1024
14517TIP3    H264967   4.906   3.002   1.637 -1.7845  0.9316  2.1091
14518TIP3   OH264968   3.254   1.151   1.423  0.4260 -0.2473  0.4262
14518TIP3    H164969   3.269   1.128   1.515  2.2318 -0.8431  0.0298
14518TIP3    H264970   3.269   1.069   1.375 -1.7830 -0.2783 -0.3409
14519TIP3   OH264971   0.636   6.286   3.092 -0.0578 -0.3927 -0.3724
14519TIP3    H164972   0.603   6.373   3.116  0.1959 -0.5002  0.3923
14519TIP3    H264973   0.589   6.226   3.149  1.1238 -0.5870  0.4438
14520TIP3   OH264974   1.340   1.056   0.083  0.6523  0.5226 -0.4199
14520TIP3    H164975   1.266   1.075   0.140  1.1555  0.9495  0.1052
14520TIP3    H264976   1.300   1.031  -0.000 -0.1031 -0.8769  0.3340
14521TIP3   OH264977   3.461   4.241   4.452 -0.4076 -0.1352  0.1890
14521TIP3    H164978   3.402   4.166   4.450  0.0615 -0.5105 -0.0335
14521TIP3    H264979   3.545   4.205   4.423 -0.6064  0.8636 -1.8190
14522TIP3   OH264980   5.306   0.968   1.598  0.6089  0.2924  0.5513
14522TIP3    H164981   5.375   0.962   1.663  0.8722  1.3313  0.3866
14522TIP3    H264982   5.351   0.997   1.518 -0.2248  2.7096  0.8817
14523TIP3   OH264983   3.209   4.798   2.584 -0.1407 -0.2071 -0.4068
14523TIP3    H164984   3.136   4.802   2.522 -1.8019  1.7250  1.5085
14523TIP3    H264985   3.283   4.835   2.536 -1.2565  0.8636 -1.3850
14524TIP3   OH264986   4.081   6.201   3.456 -0.7638 -0.2178 -0.4085
14524TIP3    H164987   3.994   6.212   3.495 -0.0052 -1.4312  1.8368
14524TIP3    H264988   4.118   6.125   3.501  2.1710  1.3619  0.1285
14525TIP3   OH264989   3.238   3.250   6.716 -0.4710 -0.6588  0.3455
14525TIP3    H164990   3.321   3.281   6.752 -0.5194  1.5831 -1.2784
14525TIP3    H264991   3.261   3.206   6.634 -0.8560 -0.2502  0.0127
14526TIP3   OH264992   5.700   0.844   1.285  0.5776  0.5425  0.2189
14526TIP3    H164993   5.677   0.837   1.377  0.0031 -1.0342 -0.0162
14526TIP3    H264994   5.745   0.762   1.265 -2.4640 -0.8185 -1.7398
14527TIP3   OH264995   4.050   6.547   3.760 -0.4521 -0.2826  0.0199
14527TIP3    H164996   4.011   6.553   3.848 -1.0063  2.5018 -0.3238
14527TIP3    H264997   3.986   6.588   3.703  2.2510  3.3202 -0.7681
14528TIP3   OH264998   4.113   4.137   1.004  0.4899 -0.1802  0.3002
14528TIP3    H164999   4.059   4.063   1.030  1.4950 -0.1116  2.8479
14528TIP3    H265000   4.194   4.098   0.971  0.1622 -0.2306 -0.4587
14529TIP3   OH265001   1.133   2.437   0.169 -0.4765 -0.5026 -0.0791
14529TIP3    H165002   1.040   2.414   0.179 -0.1615 -1.2327  1.4688
14529TIP3    H265003   1.178   2.353   0.161  0.0995 -0.1717 -0.3611
14530TIP3   OH265004   5.008   2.119   1.966 -0.1202 -0.3095 -0.1790
14530TIP3    H165005   5.101   2.107   1.949 -0.1406 -0.3536 -0.2620
14530TIP3    H265006   4.995   2.214   1.966 -0.2011 -0.3183 -0.8585
14531TIP3   OH265007   5.972   0.116   3.017 -0.0299 -0.4355 -0.8987
14531TIP3    H165008   5.978   0.138   2.924 -2.4427 -0.6751 -1.1639
14531TIP3    H265009   5.978   0.021   3.019  0.7841 -0.3836 -0.7213
14532TIP3   OH265010   1.678   3.021   1.121 -0.4858  0.1147  0.2930
14532TIP3    H165011   1.704   3.067   1.042  1.6860  1.2211  1.5882
14532TIP3    H265012   1.696   2.929   1.102  0.2425  0.3962 -0.4252
14533TIP3   OH265013   3.228   5.724   1.575  0.3439 -0.1920 -0.3671
14533TIP3    H165014   3.229   5.682   1.660  1.4723  1.0716  0.2792
14533TIP3    H265015   3.221   5.818   1.594 -3.8476  0.0318 -1.7492
14534TIP3   OH265016   0.706   2.303  17.166 -0.4604 -0.0713  0.4248
14534TIP3    H165017   0.641   2.268  17.227 -2.2830  0.7673 -0.9372
14534TIP3    H265018   0.655   2.325  17.088  1.7333 -0.8988 -1.3278
14535TIP3   OH265019   1.126   3.022   0.376  0.1927 -0.1289  0.7153
14535TIP3    H165020   1.051   2.968   0.400 -0.5527  0.8165  0.5835
14535TIP3    H265021   1.111   3.045   0.284  1.2637 -0.9010  0.3317
14536TIP3   OH265022   3.960   0.964   0.627  0.4495 -0.6174  0.2542
14536TIP3    H165023   3.972   1.054   0.597  0.8100 -1.2982 -1.7771
14536TIP3    H265024   3.883   0.968   0.684  0.7701  1.0440  0.6284
14537TIP3   OH265025   2.828   4.143  13.058 -0.2306 -0.1205  0.2329
14537TIP3    H165026   2.874   4.167  12.977 -0.7080  0.8492  0.2327
14537TIP3    H265027   2.894   4.151  13.126  0.0306 -0.3929  0.0156
14538TIP3   OH265028   5.371   5.848   5.502  0.4585  0.5620 -0.3876
14538TIP3    H165029   5.459   5.812   5.489  1.1678  1.6923  0.9952
14538TIP3    H265030   5.370   5.877   5.593 -1.2411  0.8934 -0.4813
14539TIP3   OH265031   1.597   3.916  14.170  0.2994 -0.7003 -0.8925
14539TIP3    H165032   1.580   3.888  14.261 -0.5848 -1.1590 -1.1852
14539TIP3    H265033   1.668   3.979  14.178 -0.5871  0.2172  0.2813
14540TIP3   OH265034   4.811   0.390   5.195 -0.0033 -0.0891  0.5012
14540TIP3    H165035   4.795   0.400   5.289  1.3229 -0.3968  0.7874
14540TIP3    H265036   4.724   0.387   5.156 -0.6638 -1.8710  1.9311
14541TIP3   OH265037   1.408   0.422  11.247  0.0046  0.1556 -0.1043
14541TIP3    H165038   1.364   0.390  11.168 -0.6007 -1.3549  0.7873
14541TIP3    H265039   1.457   0.346  11.279  0.9041  0.9848  0.5289
14542TIP3   OH265040   2.475   1.885  17.154 -0.4927 -0.4043 -0.0946
14542TIP3    H165041   2.393   1.887  17.105 -1.1205 -2.7563  0.7338
14542TIP3    H265042   2.452   1.844  17.237  1.0355  1.2669  1.2336
14543TIP3   OH265043   4.822   0.665  10.805  0.4146 -0.1328 -0.1857
14543TIP3    H165044   4.797   0.733  10.743  0.3782  1.4949  1.5457
14543TIP3    H265045   4.889   0.706  10.860  1.3467 -1.9307  0.1011
14544TIP3   OH265046   0.892   3.268   6.213  0.0667 -0.8880  0.3407
14544TIP3    H165047   0.846   3.327   6.153 -0.3309 -0.0417  1.4506
14544TIP3    H265048   0.879   3.181   6.175 -0.8647 -0.4637 -0.3567
14545TIP3   OH265049   6.112   0.657  15.393 -0.1913 -0.5362 -0.1758
14545TIP3    H165050   6.017   0.647  15.387  0.0382 -2.1669 -3.2474
14545TIP3    H265051   6.131   0.737  15.344  0.0515 -0.7173 -0.3840
14546TIP3   OH265052   2.590   3.485   1.475  0.3574  0.4001  0.8083
14546TIP3    H165053   2.621   3.468   1.386 -0.0816  0.7533  0.5819
14546TIP3    H265054   2.523   3.418   1.489  0.5521  0.2337  0.9384
14547TIP3   OH265055   2.627   4.484  14.372  0.5198 -0.2135 -0.3815
14547TIP3    H165056   2.686   4.520  14.306  0.9038  2.7236  1.4137
14547TIP3    H265057   2.651   4.391  14.376  1.8538 -0.0788 -2.8840
14548TIP3   OH265058   6.432   2.235   5.379 -0.5082  0.1073  0.2930
14548TIP3    H165059   6.522   2.204   5.384 -0.3528  0.4722 -0.1488
14548TIP3    H265060   6.397   2.221   5.467  0.3474  1.0549  0.8080
14549TIP3   OH265061   4.178   5.377   3.838 -0.5237  0.5259 -0.1271
14549TIP3    H165062   4.095   5.408   3.875 -1.1652  1.9262 -2.4970
14549TIP3    H265063   4.164   5.284   3.823 -1.3810  0.5788  0.2556
14550TIP3   OH265064   3.122   1.472   5.907 -0.2700 -0.2397  0.0321
14550TIP3    H165065   3.077   1.432   5.982  0.0496  0.1852  0.4543
14550TIP3    H265066   3.112   1.566   5.921 -0.4035 -0.1589 -0.5833
14551TIP3   OH265067   5.346   6.683  15.134  0.4068  0.4849 -0.8004
14551TIP3    H165068   5.259   6.647  15.118  0.8702 -0.5595 -1.0453
14551TIP3    H265069   5.405   6.610  15.118  1.2486  0.8023  0.7156
14552TIP3   OH265070   1.420   0.890  11.728  0.3442 -0.4378 -0.3873
14552TIP3    H165071   1.427   0.809  11.778  1.3772 -3.2339 -4.5114
14552TIP3    H265072   1.326   0.908  11.725  0.1410 -1.1231  1.0965
14553TIP3   OH265073   6.017   3.141  13.464  0.2788 -0.2390  0.0714
14553TIP3    H165074   5.934   3.094  13.450 -0.4685  1.2938 -0.8718
14553TIP3    H265075   5.994   3.233  13.457  2.2137  0.2075 -1.0489
14554TIP3   OH265076   0.147   2.670  13.298 -0.1561  0.0688 -0.2821
14554TIP3    H165077   0.225   2.697  13.346 -0.6030  0.7245  0.0926
14554TIP3    H265078   0.116   2.591  13.343  0.2694 -0.1728 -0.4124
14555TIP3   OH265079   0.254   1.102   1.813 -0.1355  0.2813  0.4387
14555TIP3    H165080   0.317   1.030   1.812  0.5520  0.8686 -0.5220
14555TIP3    H265081   0.308   1.180   1.799 -1.0525  0.8141 -0.1760
14556TIP3   OH265082   2.628   2.555  13.249  0.3531  0.4514  0.1413
14556TIP3    H165083   2.642   2.502  13.328  1.4997 -1.1473 -1.0510
14556TIP3    H265084   2.541   2.531  13.219  0.7667 -0.6298 -0.2502
14557TIP3   OH265085   0.301   1.309   3.097  0.1268 -0.4084  0.1856
14557TIP3    H165086   0.363   1.237   3.088  1.5247  0.6105  1.2096
14557TIP3    H265087   0.331   1.375   3.035  0.3268  0.2374  0.9391
14558TIP3   OH265088   1.436   1.015  16.734 -0.2275  0.2391 -0.1882
14558TIP3    H165089   1.385   0.983  16.660 -0.4503  0.7525 -0.2653
14558TIP3    H265090   1.451   0.939  16.789  0.0521 -0.1750 -0.8249
14559TIP3   OH265091   6.128   0.789  16.064 -0.1035  0.3552  0.3893
14559TIP3    H165092   6.149   0.819  16.152  4.1822 -0.5761 -0.0591
14559TIP3    H265093   6.136   0.867  16.009 -0.7690  0.5643  0.5887
14560TIP3   OH265094   2.215   5.316  15.496  0.2239  0.4256  0.2091
14560TIP3    H165095   2.121   5.315  15.480  0.2710  1.4631 -0.2067
14560TIP3    H265096   2.251   5.371  15.426  1.2035 -0.3943  0.0409
14561TIP3   OH265097   0.438   4.171  14.998  0.2521 -0.0390 -0.0954
14561TIP3    H165098   0.418   4.183  15.091 -0.7391  2.1971 -0.5317
14561TIP3    H265099   0.353   4.165  14.955  0.1598  5.7166 -1.5274
14562TIP3   OH265100   6.355   5.653   0.586 -0.7807 -0.1226 -0.3252
14562TIP3    H165101   6.358   5.589   0.658 -0.3218 -0.9194 -1.0361
14562TIP3    H265102   6.364   5.738   0.629  0.9467 -0.6549  0.4532
14563TIP3   OH265103   1.244   3.398  15.927  0.1324  0.0630  0.2793
14563TIP3    H165104   1.337   3.396  15.905  0.0471 -0.9489 -0.0475
14563TIP3    H265105   1.204   3.331  15.871 -0.6992  0.0655  0.8441
14564TIP3   OH265106   2.295   4.908  10.331  0.0176  0.0980 -0.5074
14564TIP3    H165107   2.302   4.814  10.313  0.3998  0.2021 -0.9335
14564TIP3    H265108   2.202   4.924  10.343  0.1144 -0.7489  1.9390
14565TIP3   OH265109   0.965   2.722   4.133  0.1718  0.0504  0.1753
14565TIP3    H165110   0.967   2.807   4.089  0.9591 -0.7951 -1.4932
14565TIP3    H265111   1.029   2.669   4.086  0.2779 -1.2405  1.6939
14566TIP3   OH265112   5.921   5.620  13.982  0.0626 -0.3806  0.1013
14566TIP3    H165113   5.882   5.610  13.896 -0.8797 -0.5157  0.5368
14566TIP3    H265114   6.015   5.631  13.964 -0.1422 -0.1887 -0.9458
14567TIP3   OH265115   2.709   2.793  12.381  0.0537 -0.0741  0.0748
14567TIP3    H165116   2.669   2.794  12.468  1.4435 -2.1055  0.8185
14567TIP3    H265117   2.801   2.771  12.397  0.6606  0.8927 -1.8252
14568TIP3   OH265118   6.120   3.557  14.661 -0.0839 -0.1869 -0.6632
14568TIP3    H165119   6.066   3.478  14.672 -1.2295  0.6426 -0.1074
14568TIP3    H265120   6.057   3.625  14.637  0.2522  1.4086  2.4449
14569TIP3   OH265121   2.165   1.050   0.111  0.0516 -0.6283 -0.0195
14569TIP3    H165122   2.157   0.971   0.057 -0.8474 -0.7425  0.2628
14569TIP3    H265123   2.190   1.119   0.049 -1.7021 -0.5918 -0.7482
14570TIP3   OH265124   2.827   4.783   6.237  0.4337  0.1323  0.4145
14570TIP3    H165125   2.851   4.768   6.329 -0.2538 -2.5113  0.2378
14570TIP3    H265126   2.874   4.716   6.188 -0.8698  0.1320 -0.9089
14571TIP3   OH265127   2.208   0.598   0.829 -0.0107 -0.1860  0.0174
14571TIP3    H165128   2.140   0.594   0.896 -0.2048  1.4340 -0.0390
14571TIP3    H265129   2.192   0.681   0.783  3.2714  1.4587  1.4681
14572TIP3   OH265130   3.588   2.049  11.435  0.2201  0.2373  0.7649
14572TIP3    H165131   3.598   1.992  11.359  0.3754 -0.8420  1.5595
14572TIP3    H265132   3.512   2.103  11.415  0.2309 -0.0731 -0.1319
14573TIP3   OH265133   5.803   5.385   4.637  0.1601 -0.4946  0.0605
14573TIP3    H165134   5.708   5.397   4.636  0.1259 -0.6350  0.8655
14573TIP3    H265135   5.830   5.413   4.725  1.0112  0.5937 -0.5192
14574TIP3   OH265136   4.041   3.474   3.172 -0.0931 -0.2143  0.2656
14574TIP3    H165137   4.056   3.399   3.230  0.4512 -0.4508 -0.1740
14574TIP3    H265138   3.996   3.437   3.096  0.4484 -0.1507 -0.0875
14575TIP3   OH265139   3.668   5.383  16.200 -0.2574  0.1064  0.8788
14575TIP3    H165140   3.593   5.323  16.190 -1.0866  1.2801 -0.2709
14575TIP3    H265141   3.740   5.337  16.157 -0.2688 -1.0640  2.0347
14576TIP3   OH265142   2.784   3.339  11.548 -0.2530  0.2714 -0.0418
14576TIP3    H165143   2.693   3.356  11.523  0.0302  1.5484 -0.2604
14576TIP3    H265144   2.812   3.268  11.490 -1.5394 -1.1632  1.0182
14577TIP3   OH265145   1.916   5.803  15.669 -0.0219  0.2611  0.0616
14577TIP3    H165146   1.883   5.735  15.611  0.9221  0.2949 -0.5223
14577TIP3    H265147   1.927   5.759  15.754  1.7084 -0.6541 -0.5949
14578TIP3   OH265148   2.473   6.425   6.076  0.8803 -0.0740 -0.1434
14578TIP3    H165149   2.518   6.452   6.156  0.7082 -1.0411  0.2923
14578TIP3    H265150   2.537   6.373   6.028  0.2917 -1.3407  0.4147
14579TIP3   OH265151   4.880   5.779   3.401 -0.2551 -0.2095  0.1190
14579TIP3    H165152   4.934   5.707   3.431 -1.3307 -1.0673  0.0643
14579TIP3    H265153   4.791   5.743   3.397 -0.7495  0.9869 -0.3340
14580TIP3   OH265154   1.871   6.037   2.804 -0.3747  0.6130  0.1384
14580TIP3    H165155   1.951   5.986   2.787 -0.8002  0.2409 -0.8403
14580TIP3    H265156   1.818   5.981   2.861 -1.3867 -0.6568 -1.9219
14581TIP3   OH265157   5.128   4.350  12.684 -0.1115  0.3935  0.5456
14581TIP3    H165158   5.189   4.409  12.728  0.3406  1.1418 -1.0435
14581TIP3    H265159   5.079   4.406  12.624 -1.7082 -0.3675  1.0872
14582TIP3   OH265160   3.386   0.386   0.748 -0.3510  0.1743 -0.5878
14582TIP3    H165161   3.343   0.343   0.822 -0.8446  1.4644 -0.1006
14582TIP3    H265162   3.457   0.435   0.787 -1.9087  2.6128 -0.6278
14583TIP3   OH265163   0.652   5.111  11.416  0.1785  0.1911  0.1510
14583TIP3    H165164   0.633   5.056  11.492 -0.0674 -0.4299 -0.3471
14583TIP3    H265165   0.739   5.147  11.433  0.8652 -1.3063 -0.0520
14584TIP3   OH265166   6.700   2.785   5.443 -0.0675  0.1073  0.0357
14584TIP3    H165167   6.698   2.831   5.527  1.6580  0.3881 -0.0496
14584TIP3    H265168   6.687   2.854   5.378  0.2783  0.1449  0.0052
14585TIP3   OH265169   4.349   0.177  14.546 -0.3019 -0.1155 -0.1724
14585TIP3    H165170   4.363   0.259  14.594 -0.9395  0.8136 -1.5173
14585TIP3    H265171   4.438   0.143  14.531 -0.0075  0.5723 -0.0181
14586TIP3   OH265172   4.076   1.832   2.691 -0.7242 -0.1736  0.4081
14586TIP3    H165173   4.089   1.920   2.727  0.6932 -0.4718  0.6684
14586TIP3    H265174   3.986   1.833   2.659 -0.6634  1.4534  0.1891
14587TIP3   OH265175   4.664   1.763  16.523 -0.3302 -0.2874 -0.4575
14587TIP3    H165176   4.633   1.676  16.498 -0.5624  0.2386 -2.0956
14587TIP3    H265177   4.586   1.819  16.515 -0.0884  0.1598  0.1942
14588TIP3   OH265178   0.827   3.996   1.441  0.0390  0.2923  0.0616
14588TIP3    H165179   0.913   4.011   1.480 -0.1124 -2.2806  1.5429
14588TIP3    H265180   0.767   4.049   1.494  0.2847 -0.5761  1.2362
14589TIP3   OH265181   5.042   1.125  13.845  0.1612 -0.2197 -0.5799
14589TIP3    H165182   5.084   1.156  13.764 -0.9566 -0.1195 -1.1376
14589TIP3    H265183   4.954   1.161  13.842 -0.5596 -1.8778 -0.3075
14590TIP3   OH265184   3.276   5.314   4.110  0.0368 -0.1414 -0.5780
14590TIP3    H165185   3.350   5.345   4.057 -0.5241 -0.2705 -1.4615
14590TIP3    H265186   3.209   5.382   4.100  0.8594  1.1973  2.1932
14591TIP3   OH265187   6.306   6.062  13.316  0.1543  0.5024 -0.6093
14591TIP3    H165188   6.364   6.127  13.277 -0.0379  1.0606  0.0093
14591TIP3    H265189   6.312   6.078  13.411  1.7334 -1.7418 -0.2358
14592TIP3   OH265190   0.440   2.439  16.141  0.4659 -0.1871  0.3957
14592TIP3    H165191   0.385   2.515  16.162 -0.4005 -1.1572  1.8665
14592TIP3    H265192   0.377   2.368  16.127  1.2967 -1.5363  2.9612
14593TIP3   OH265193   6.026   2.120   5.611 -0.3598 -0.7035 -0.7074
14593TIP3    H165194   6.113   2.082   5.619 -0.1561 -0.2988 -0.9912
14593TIP3    H265195   5.973   2.050   5.574 -0.3063 -1.1600  0.0467
14594TIP3   OH265196   4.517   1.763  14.515 -0.8751  0.2051 -0.4323
14594TIP3    H165197   4.488   1.676  14.485 -0.0144  0.0520 -0.8468
14594TIP3    H265198   4.436   1.806  14.543 -1.2927 -0.8111 -0.0125
14595TIP3   OH265199   0.172   3.341  17.096 -0.4785 -0.1565  0.2716
14595TIP3    H165200   0.107   3.340  17.166 -1.8907  1.2993 -0.9462
14595TIP3    H265201   0.165   3.255  17.055 -0.4307 -0.6105  1.2003
14596TIP3   OH265202   5.980   6.482   4.736  0.0268  0.1307 -0.4429
14596TIP3    H165203   5.909   6.467   4.673  1.3781  0.6102 -2.1663
14596TIP3    H265204   5.946   6.549   4.795 -0.6042  1.1521 -1.9012
14597TIP3   OH265205   6.034   5.785  15.658 -0.1506 -0.0983 -0.5917
14597TIP3    H165206   6.002   5.862  15.611  0.6080 -0.6232 -2.0575
14597TIP3    H265207   6.071   5.819  15.739 -1.8505  0.8070 -0.1654
14598TIP3   OH265208   0.334   2.531   4.105 -0.2994 -0.7145  0.3505
14598TIP3    H165209   0.243   2.523   4.132 -0.9110 -0.3754 -1.5106
14598TIP3    H265210   0.369   2.602   4.159 -2.4846  2.4717 -2.0637
14599TIP3   OH265211   3.186   3.260   2.997 -0.0622  0.4759 -0.3602
14599TIP3    H165212   3.157   3.263   3.088 -1.5013  0.2849 -0.7921
14599TIP3    H265213   3.268   3.210   2.999 -0.5988 -0.3940  0.6955
14600TIP3   OH265214   4.680   0.891  14.825  0.0735  0.4540  0.3938
14600TIP3    H165215   4.738   0.896  14.749 -0.6447  1.9547 -0.1034
14600TIP3    H265216   4.676   0.980  14.858  0.1568 -0.1343  2.0587
14601TIP3   OH265217   6.662   1.381   0.695 -0.7106 -0.5647  0.0572
14601TIP3    H165218   6.698   1.466   0.720 -2.2642  0.1168  0.1449
14601TIP3    H265219   6.696   1.366   0.606 -0.8194  0.4118 -0.1674
14602TIP3   OH265220   5.752   4.569  16.970  0.2745  0.3271 -0.0690
14602TIP3    H165221   5.845   4.585  16.986 -0.1015 -0.5781  4.0604
14602TIP3    H265222   5.708   4.646  17.006 -0.6605  0.1913 -0.8868
14603TIP3   OH265223   1.999   1.635   5.091 -0.7479  0.2109  0.3115
14603TIP3    H165224   2.056   1.612   5.165 -1.7367 -0.2331  0.9532
14603TIP3    H265225   1.925   1.575   5.098 -0.8991  0.2058 -1.0102
14604TIP3   OH265226   5.366   3.828   3.280 -0.2943 -0.3412 -0.4764
14604TIP3    H165227   5.430   3.899   3.281  0.2190 -0.7799  1.3360
14604TIP3    H265228   5.319   3.837   3.364 -0.4112 -1.9498 -0.3360
14605TIP3   OH265229   1.179   6.054   2.307  0.5451  0.2473 -0.0428
14605TIP3    H165230   1.186   5.964   2.338 -3.0887 -0.3366 -0.5844
14605TIP3    H265231   1.163   6.047   2.213 -0.6979  1.3766  0.0573
14606TIP3   OH265232   5.455   0.702   0.347 -0.3993  0.3867  0.2236
14606TIP3    H165233   5.442   0.683   0.254  0.1432  1.3219 -0.0561
14606TIP3    H265234   5.382   0.659   0.391  1.3417 -3.3810 -0.2104
14607TIP3   OH265235   3.385   1.012  15.999  0.2302  0.4109 -0.7929
14607TIP3    H165236   3.473   0.987  15.970  0.6890  0.6573  0.3659
14607TIP3    H265237   3.343   0.928  16.021  0.3410  0.3402 -0.8475
14608TIP3   OH265238   4.231   6.782   4.549  0.0605 -0.1720 -0.0130
14608TIP3    H165239   4.266   6.832   4.623 -0.3208 -0.8252  0.6177
14608TIP3    H265240   4.220   6.693   4.583  0.9580 -0.7560 -1.1912
14609TIP3   OH265241   1.804   1.897   4.063  0.0579  0.2083  0.4479
14609TIP3    H165242   1.838   1.981   4.031  3.2528 -0.2221  2.3012
14609TIP3    H265243   1.823   1.835   3.992  2.9272  0.0930  1.2113
14610TIP3   OH265244   4.806   3.515  15.781 -0.3949  0.3707  0.3440
14610TIP3    H165245   4.737   3.521  15.715 -0.2537  0.4579  0.2002
14610TIP3    H265246   4.769   3.462  15.851  0.2527 -1.7475 -0.8159
14611TIP3   OH265247   6.043   4.211   0.089 -0.2574 -0.2958  0.1852
14611TIP3    H165248   5.990   4.287   0.064  2.2969  1.1615 -1.2068
14611TIP3    H265249   5.986   4.160   0.147 -2.5968  1.9068 -0.0092
14612TIP3   OH265250   4.366   6.149   2.816  0.4896 -0.2268 -0.2892
14612TIP3    H165251   4.346   6.233   2.775 -0.8468 -0.4224 -0.0745
14612TIP3    H265252   4.427   6.171   2.887 -0.6532  0.7253  0.4378
14613TIP3   OH265253   4.637   1.498  11.961  0.0298 -0.2286  0.1920
14613TIP3    H165254   4.721   1.543  11.963 -0.7283  1.2127  1.3591
14613TIP3    H265255   4.647   1.426  12.024  0.6049 -0.4971 -0.1992
14614TIP3   OH265256   3.075   2.440   2.517 -0.2321  0.1516 -0.2663
14614TIP3    H165257   3.022   2.385   2.460  0.2642  0.8207 -1.4223
14614TIP3    H265258   3.128   2.378   2.568 -2.2888 -0.5379  1.1536
14615TIP3   OH265259   5.288   4.490  13.708 -0.5818  0.0094 -0.5878
14615TIP3    H165260   5.381   4.475  13.725 -0.0923  2.9570 -0.1012
14615TIP3    H265261   5.276   4.465  13.617  0.0406 -2.7329 -0.0187
14616TIP3   OH265262   2.516   5.785  13.909 -0.4491  0.8031  0.8468
14616TIP3    H165263   2.459   5.717  13.873  0.5549  0.1758  0.3983
14616TIP3    H265264   2.597   5.777  13.859 -0.3438  2.4187  0.7129
14617TIP3   OH265265   1.390   2.815  14.288 -0.4451  0.2390 -0.0484
14617TIP3    H165266   1.429   2.784  14.369 -2.4090  0.8245  1.1929
14617TIP3    H265267   1.316   2.756  14.272 -1.4230  1.4560 -0.1669
14618TIP3   OH265268   4.580   3.455  15.330 -0.2190  0.3510  0.5624
14618TIP3    H165269   4.485   3.452  15.341 -0.2783  1.1328  0.3258
14618TIP3    H265270   4.598   3.402  15.252 -0.2418 -1.4849  1.7378
14619TIP3   OH265271   1.683   5.111  12.343 -0.6318 -0.0964  0.1883
14619TIP3    H165272   1.635   5.186  12.377 -0.2322  0.5100 -0.5492
14619TIP3    H265273   1.758   5.102  12.402 -1.0021 -0.3078  0.6362
14620TIP3   OH265274   6.276   1.940  11.988 -0.6835  0.1441  0.3669
14620TIP3    H165275   6.264   1.955  11.895 -1.7488  1.5967  0.7187
14620TIP3    H265276   6.218   1.866  12.009 -2.5653  1.5630  0.3749
14621TIP3   OH265277   5.206   4.286  11.107  0.0550 -0.8202  0.2393
14621TIP3    H165278   5.131   4.306  11.050  0.2922 -0.9815 -0.1365
14621TIP3    H265279   5.194   4.342  11.183 -0.2874 -0.6206  0.0417
14622TIP3   OH265280   1.696   5.374  13.675 -0.2681 -0.5058 -0.5013
14622TIP3    H165281   1.641   5.296  13.682 -0.6418 -0.2594 -0.6509
14622TIP3    H265282   1.778   5.350  13.717 -0.4726 -0.8961 -0.3228
14623TIP3   OH265283   4.847   5.591   4.937  0.2052 -0.1454 -0.3473
14623TIP3    H165284   4.869   5.608   5.029 -2.6552 -1.2791  0.6541
14623TIP3    H265285   4.858   5.497   4.925 -2.5150 -0.5969 -0.1008
14624TIP3   OH265286   2.626   1.881  10.437  0.5766 -0.3910  0.5238
14624TIP3    H165287   2.629   1.793  10.474  1.9609 -1.2101 -1.3587
14624TIP3    H265288   2.717   1.910  10.437  0.3287  0.4410 -0.2208
14625TIP3   OH265289   5.412   6.673  15.408  0.5265 -0.8021 -1.2253
14625TIP3    H165290   5.504   6.648  15.398  0.9065  0.9468 -2.4303
14625TIP3    H265291   5.383   6.695  15.319 -1.5386 -2.7530 -1.1437
14626TIP3   OH265292   6.243   6.593  11.017 -0.2398 -0.3424  0.5995
14626TIP3    H165293   6.171   6.613  10.957 -1.4586 -1.4281  1.6307
14626TIP3    H265294   6.281   6.679  11.039 -1.0463  0.2255 -0.1834
14627TIP3   OH265295   2.943   0.774  11.259 -0.6158 -0.0607  0.4053
14627TIP3    H165296   2.930   0.852  11.313  0.8512 -0.0751  0.8145
14627TIP3    H265297   2.935   0.700  11.320 -0.3809 -0.1520  0.3270
14628TIP3   OH265298   4.883   2.373  10.972  0.0849 -0.3694  0.6297
14628TIP3    H165299   4.847   2.415  10.894 -0.4146 -1.3674  0.3035
14628TIP3    H265300   4.962   2.329  10.942 -0.8945 -2.0076  0.3184
14629TIP3   OH265301   3.746   3.237  15.678 -0.0453  0.2251 -0.0076
14629TIP3    H165302   3.818   3.260  15.619 -0.4786 -0.0557 -0.6543
14629TIP3    H265303   3.756   3.142  15.690  0.8096  0.4628  1.4112
14630TIP3   OH265304   1.065   2.181  15.153 -0.3438  0.3840  0.0880
14630TIP3    H165305   1.041   2.156  15.242  1.4867 -0.8860  0.2789
14630TIP3    H265306   1.061   2.100  15.103 -1.5721  1.1201 -1.0935
14631TIP3   OH265307   6.726   1.555   3.129  0.4552  0.0492 -0.6352
14631TIP3    H165308   6.654   1.556   3.065 -0.7295  1.3531  0.6269
14631TIP3    H265309   6.729   1.645   3.162  1.4747 -0.4322  0.6537
14632TIP3   OH265310   6.450   2.905   4.905  0.8607  0.0528  1.2294
14632TIP3    H165311   6.405   2.981   4.870  0.7868  0.4055  2.0874
14632TIP3    H265312   6.510   2.940   4.970  0.1639 -0.6893  2.3069
14633TIP3   OH265313   2.945   0.757   3.649 -0.1496 -0.1490 -0.3585
14633TIP3    H165314   3.020   0.731   3.703 -0.9566 -1.6842  0.1005
14633TIP3    H265315   2.965   0.846   3.620  1.7482 -0.4498 -0.0940
14634TIP3   OH265316   3.358   3.367  13.898 -0.0102 -0.3805 -0.1518
14634TIP3    H165317   3.301   3.296  13.927  1.8304 -2.7670 -1.9551
14634TIP3    H265318   3.433   3.364  13.957 -0.1706  0.4906  0.1166
14635TIP3   OH265319   5.338   4.137   5.369  0.1324 -0.0407  0.5292
14635TIP3    H165320   5.279   4.201   5.328  3.0067  0.9379 -2.5081
14635TIP3    H265321   5.310   4.134   5.460 -3.4200  1.6213 -0.3170
14636TIP3   OH265322   3.119   3.524   2.641 -0.0425 -0.3214 -0.1836
14636TIP3    H165323   3.168   3.442   2.644  1.1599  0.2565 -1.9428
14636TIP3    H265324   3.164   3.582   2.703  0.6764 -0.2344 -0.7711
14637TIP3   OH265325   2.133   6.243  14.043 -0.4301  0.0627  0.0682
14637TIP3    H165326   2.061   6.297  14.009  0.3437  1.1344  0.0986
14637TIP3    H265327   2.199   6.246  13.974 -1.0092 -2.2547 -0.6883
14638TIP3   OH265328   3.229   4.768   1.826  0.1553  0.0017  0.4735
14638TIP3    H165329   3.252   4.817   1.905  0.6446  0.2237  0.1943
14638TIP3    H265330   3.304   4.711   1.810  0.5011  0.6847 -0.4060
14639TIP3   OH265331   0.708   4.114  11.597  0.1142 -0.0349  1.2673
14639TIP3    H165332   0.736   4.197  11.560 -2.6908  0.0257 -1.0707
14639TIP3    H265333   0.752   4.048  11.543 -1.5932  0.0438 -0.3110
14640TIP3   OH265334   5.619   0.528   6.264 -0.4783  0.5402 -0.6030
14640TIP3    H165335   5.704   0.522   6.308 -1.1388  1.9363  0.9448
14640TIP3    H265336   5.609   0.443   6.221 -0.0251 -1.1760  2.3948
14641TIP3   OH265337   6.102   2.260  16.977  0.0211 -0.3388  0.2182
14641TIP3    H165338   6.020   2.217  16.958  0.0354 -0.0519 -0.5294
14641TIP3    H265339   6.106   2.333  16.915 -1.1300  2.2341  2.9222
14642TIP3   OH265340   1.523   6.366   3.498 -0.2912 -0.0465 -0.0118
14642TIP3    H165341   1.566   6.316   3.567  1.2101  1.4427  0.1695
14642TIP3    H265342   1.492   6.446   3.541 -1.2796 -0.0747 -0.6280
14643TIP3   OH265343   3.239   3.671  15.559 -0.2178 -0.7318  0.5639
14643TIP3    H165344   3.294   3.639  15.631 -0.3395  2.0112  2.0061
14643TIP3    H265345   3.200   3.752  15.592  0.6675  1.3814 -2.9776
14644TIP3   OH265346   1.486   4.071   1.811  0.4035  0.3079  0.2627
14644TIP3    H165347   1.421   4.002   1.797 -0.5483  1.4728 -1.4639
14644TIP3    H265348   1.570   4.026   1.801 -0.1899 -0.5798 -1.1843
14645TIP3   OH265349   3.501   5.675   5.234 -0.1248  0.1402  0.3579
14645TIP3    H165350   3.515   5.703   5.325  0.3677 -0.0398  0.3389
14645TIP3    H265351   3.429   5.611   5.240  0.4420 -0.4733  0.7296
14646TIP3   OH265352   3.674   0.898  13.204  0.2848 -0.4165 -0.3171
14646TIP3    H165353   3.695   0.926  13.114 -1.8943 -1.3438 -1.1809
14646TIP3    H265354   3.759   0.884  13.245  1.3786  1.8820 -1.6099
14647TIP3   OH265355   2.303   1.575  13.147 -0.0197 -0.1939 -0.0570
14647TIP3    H165356   2.253   1.591  13.227 -2.5861 -1.9987 -1.1456
14647TIP3    H265357   2.393   1.599  13.169 -1.0724  1.8588  2.5101
14648TIP3   OH265358   1.066   2.825   3.718 -0.0386 -0.0374  0.1723
14648TIP3    H165359   1.110   2.783   3.644  1.7172  2.1644 -0.1436
14648TIP3    H265360   1.136   2.848   3.779 -0.6630  3.1417 -0.0956
14649TIP3   OH265361   4.889   2.630  12.190  0.6561  0.3325 -0.0949
14649TIP3    H165362   4.923   2.656  12.105 -1.1983  2.2648 -0.3130
14649TIP3    H265363   4.944   2.677  12.253  0.8035  0.4386 -0.3011
14650TIP3   OH265364   0.318   3.954   1.956 -0.0729 -0.4475 -0.7388
14650TIP3    H165365   0.341   3.864   1.933  2.2121 -0.1787  0.2638
14650TIP3    H265366   0.238   3.971   1.905  0.3341 -2.4777 -2.2172
14651TIP3   OH265367   1.148   6.254   6.040  0.0428  0.3470 -0.2790
14651TIP3    H165368   1.187   6.256   6.127  1.6753 -1.5092 -0.8966
14651TIP3    H265369   1.054   6.264   6.055 -0.0905 -3.0198  2.0277
14652TIP3   OH265370   2.432   5.073  11.214 -0.3994 -0.0535 -0.3196
14652TIP3    H165371   2.511   5.066  11.160 -0.5464 -0.6658 -0.4590
14652TIP3    H265372   2.368   5.016  11.171 -1.3437  1.4190 -0.9380
14653TIP3   OH265373   5.864   6.002  12.664  0.3911  0.3688  0.5146
14653TIP3    H165374   5.781   6.012  12.711  0.5310  0.1204  0.8225
14653TIP3    H265375   5.871   6.081  12.611  0.0641  0.4963  0.6568
14654TIP3   OH265376   6.464   4.546   0.401  0.3735 -0.4726  0.7541
14654TIP3    H165377   6.493   4.588   0.320 -0.4132  0.5528  0.9773
14654TIP3    H265378   6.371   4.529   0.387  0.4079 -1.0203  1.1500
14655TIP3   OH265379   6.302   4.693  11.307 -0.0818  0.0235 -0.0902
14655TIP3    H165380   6.314   4.676  11.213 -0.5235  0.3103 -0.1999
14655TIP3    H265381   6.236   4.762  11.311  0.0128  0.0879  0.4316
14656TIP3   OH265382   1.543   4.711  10.535  0.4912 -0.2163  0.0361
14656TIP3    H165383   1.549   4.788  10.480 -1.2002 -0.0756  0.0037
14656TIP3    H265384   1.633   4.682  10.545  1.0603  1.1752 -0.7694
14657TIP3   OH265385   1.865   3.301   2.604 -0.0447 -0.0365 -0.1619
14657TIP3    H165386   1.878   3.387   2.563  1.1972 -0.3394 -0.4296
14657TIP3    H265387   1.909   3.309   2.689 -1.4209  0.1395  0.5630
14658TIP3   OH265388   1.955   3.333  16.273 -0.0811 -0.4627  0.5653
14658TIP3    H165389   1.950   3.408  16.332  2.1176 -0.7640  1.2208
14658TIP3    H265390   2.021   3.357  16.209  2.1696 -2.4955  1.9453
14659TIP3   OH265391   4.801   0.850   5.432 -0.4031  0.0628 -0.1409
14659TIP3    H165392   4.766   0.908   5.365 -0.5268 -0.4099 -0.4912
14659TIP3    H265393   4.769   0.886   5.515 -1.6563 -0.3101 -0.4427
14660TIP3   OH265394   3.717   2.206  14.010 -0.4519 -0.1031 -0.4057
14660TIP3    H165395   3.717   2.243  13.922 -0.8418 -0.0994 -0.4055
14660TIP3    H265396   3.804   2.168  14.020  0.1949  1.3692 -0.1623
14661TIP3   OH265397   3.804   3.097  14.110 -0.7534  0.1083 -0.1033
14661TIP3    H165398   3.854   3.047  14.046 -0.2427 -0.2908  0.6050
14661TIP3    H265399   3.713   3.089  14.080 -0.3654  1.4187 -1.7857
14662TIP3   OH265400   6.342   5.726  11.074  0.4595  0.9118  0.6023
14662TIP3    H165401   6.273   5.660  11.080 -0.1752  1.6896  3.0992
14662TIP3    H265402   6.386   5.708  10.991 -1.4114 -0.9173 -0.0649
14663TIP3   OH265403   0.385   0.463  12.241 -0.1284  0.1600 -0.1593
14663TIP3    H165404   0.376   0.488  12.333 -2.5914 -0.2461 -0.2140
14663TIP3    H265405   0.306   0.412  12.222  0.1598  0.4857 -2.5849
14664TIP3   OH265406   1.885   2.353   5.393  0.1954 -0.6399 -0.0879
14664TIP3    H165407   1.951   2.415   5.363 -0.2265 -0.3051 -0.3381
14664TIP3    H265408   1.861   2.383   5.481  0.2353 -0.6501 -0.0732
14665TIP3   OH265409   3.088   6.649   2.697  0.4595  0.2333  0.2099
14665TIP3    H165410   3.053   6.709   2.631 -2.3818 -0.9429  0.5126
14665TIP3    H265411   3.171   6.618   2.660  0.1692  1.5288 -1.6252
14666TIP3   OH265412   3.324   2.591   0.846  0.0000 -0.6759 -0.1401
14666TIP3    H165413   3.342   2.531   0.919 -0.5182 -0.3770  0.2395
14666TIP3    H265414   3.236   2.624   0.863  0.7611  1.2172  0.3696
14667TIP3   OH265415   1.099   2.875  10.538  0.0913  0.4629 -0.2774
14667TIP3    H165416   1.187   2.843  10.554 -0.1253  0.3585  0.8206
14667TIP3    H265417   1.109   2.969  10.526  0.2879  0.5721  0.6316
14668TIP3   OH265418   4.998   0.237   2.180 -0.8793 -0.1715  0.0075
14668TIP3    H165419   4.945   0.198   2.110  0.1399  0.2919 -1.0588
14668TIP3    H265420   5.053   0.302   2.135  0.1118 -0.1725  1.1740
14669TIP3   OH265421   5.958   5.703  14.994 -0.1267  0.4358 -0.2113
14669TIP3    H165422   5.881   5.647  14.987 -1.1746  1.6405  0.9766
14669TIP3    H265423   5.965   5.746  14.909 -0.4120 -0.1077 -0.5125
14670TIP3   OH265424   2.209   2.543  13.961 -0.1472  0.3570 -0.1441
14670TIP3    H165425   2.243   2.453  13.958  1.8403  1.0543 -0.1875
14670TIP3    H265426   2.195   2.565  13.869  2.3044  1.0675 -0.4225
14671TIP3   OH265427   0.066   0.742  13.265  0.2774 -0.5515 -0.0574
14671TIP3    H165428   0.148   0.780  13.234 -0.7596  0.2959 -1.9030
14671TIP3    H265429   0.071   0.650  13.240 -0.3424  0.0121 -2.5392
14672TIP3   OH265430   4.550   6.777  15.759 -0.5012  0.2611 -0.1506
14672TIP3    H165431   4.577   6.738  15.842  1.3098  0.6778 -0.5051
14672TIP3    H265432   4.495   6.709  15.718 -0.6976 -0.2955  0.9742
14673TIP3   OH265433   0.542   5.079   2.559 -0.1280  0.2693 -0.4557
14673TIP3    H165434   0.521   5.015   2.491 -0.6672  0.0577 -0.0923
14673TIP3    H265435   0.634   5.064   2.578  0.2680  0.8758 -1.7108
14674TIP3   OH265436   5.634   3.569   4.314 -0.3905 -0.0207 -0.1807
14674TIP3    H165437   5.625   3.492   4.370  1.4397 -0.3680 -0.3048
14674TIP3    H265438   5.547   3.609   4.314 -1.5228 -2.3258 -0.4929
14675TIP3   OH265439   5.115   2.134  16.926  0.0245 -0.3825  0.5489
14675TIP3    H165440   5.120   2.096  16.838 -0.4406  0.1956  0.2696
14675TIP3    H265441   5.189   2.194  16.930 -2.2232  2.7583 -0.9958
14676TIP3   OH265442   4.890   4.858  11.981 -0.3501  1.0227 -0.1511
14676TIP3    H165443   4.811   4.806  11.968  0.2663  0.5507 -2.3007
14676TIP3    H265444   4.912   4.891  11.894  1.4416  1.7124  0.5165
14677TIP3   OH265445   1.429   1.796   3.705 -0.8018  0.7068 -0.2456
14677TIP3    H165446   1.366   1.822   3.638 -1.9310 -1.2183  0.0008
14677TIP3    H265447   1.488   1.736   3.660  0.0092  1.3767 -0.1088
14678TIP3   OH265448   1.359   2.742  11.569 -0.4326  0.2751  0.4829
14678TIP3    H165449   1.410   2.666  11.541 -2.1022 -0.0476 -1.9468
14678TIP3    H265450   1.423   2.799  11.612  2.1346  0.1003 -2.7065
14679TIP3   OH265451   3.156   6.360   2.436  0.8436  0.0800 -0.1906
14679TIP3    H165452   3.156   6.443   2.388  2.3578  0.3970  0.3231
14679TIP3    H265453   3.095   6.374   2.508  1.8802  1.1289  0.5107
14680TIP3   OH265454   0.715   1.176   5.851  0.2892  0.3854  0.0147
14680TIP3    H165455   0.706   1.159   5.757 -1.8105  1.0637  0.0377
14680TIP3    H265456   0.725   1.271   5.857 -1.3224  0.5645  0.5026
14681TIP3   OH265457   2.003   5.858  15.141 -0.1134 -0.6625  0.2820
14681TIP3    H165458   1.994   5.882  15.049 -2.2526 -1.8434  0.1071
14681TIP3    H265459   1.973   5.767  15.145  1.0635 -1.0198  1.9756
14682TIP3   OH265460   4.837   0.156   1.059  0.3149 -0.0653 -0.2281
14682TIP3    H165461   4.758   0.173   1.008 -1.0665 -3.5889  0.4653
14682TIP3    H265462   4.806   0.145   1.149  2.0127  1.0433  0.5426
14683TIP3   OH265463   1.020   2.097  12.996 -0.1830  0.1757 -0.5490
14683TIP3    H165464   1.016   2.010  13.035 -1.9153  0.3801 -0.1930
14683TIP3    H265465   0.982   2.155  13.062  0.7327  1.1890 -0.8741
14684TIP3   OH265466   3.497   0.800  15.610  0.6252 -0.1284 -0.6366
14684TIP3    H165467   3.515   0.893  15.592  0.6706 -0.0521 -0.2056
14684TIP3    H265468   3.575   0.754  15.578 -0.1634 -0.2059 -2.5274
14685TIP3   OH265469   3.972   2.294  15.087  0.2153  0.6404 -0.0490
14685TIP3    H165470   3.882   2.304  15.053 -0.1389 -0.1963  0.6166
14685TIP3    H265471   4.028   2.305  15.010 -0.5374 -0.4024 -0.7684
14686TIP3   OH265472   4.596   1.930  17.012 -0.3130  0.0937 -0.0458
14686TIP3    H165473   4.543   1.850  17.022 -2.3657  1.4544  0.7825
14686TIP3    H265474   4.657   1.928  17.086  0.0672 -0.9793 -0.3764
14687TIP3   OH265475   2.992   5.446   0.592  0.0773 -0.2296 -0.2879
14687TIP3    H165476   2.922   5.382   0.579 -0.2490  0.1110 -0.2278
14687TIP3    H265477   3.069   5.394   0.615 -0.6210 -0.5110  1.6006
14688TIP3   OH265478   0.305   5.253  10.241  0.0077 -0.3335 -0.3110
14688TIP3    H165479   0.399   5.245  10.261 -0.3147 -0.3832  1.3042
14688TIP3    H265480   0.280   5.167  10.208  0.8087  0.0891 -2.1463
14689TIP3   OH265481   1.535   0.306  12.311  0.3762 -0.1695 -0.1555
14689TIP3    H165482   1.448   0.344  12.299  0.4046  0.3090  1.0354
14689TIP3    H265483   1.519   0.216  12.339  0.1969  0.4276  1.8007
14690TIP3   OH265484   1.788   3.090   3.659 -0.7820 -0.7985 -0.5196
14690TIP3    H165485   1.707   3.069   3.704 -0.6151 -0.0706  0.1227
14690TIP3    H265486   1.823   3.004   3.632 -0.8840 -1.2521  0.7270
14691TIP3   OH265487   3.704   4.349  14.368  0.0159  0.4037 -0.0651
14691TIP3    H165488   3.796   4.377  14.365  0.3101 -0.5616 -2.4528
14691TIP3    H265489   3.655   4.430  14.354  0.4441  0.9811  1.5245
14692TIP3   OH265490   5.975   4.136  14.789 -0.1623 -0.5450 -0.0687
14692TIP3    H165491   6.064   4.109  14.766  0.0861 -1.2119  1.5125
14692TIP3    H265492   5.961   4.216  14.739  1.8474  0.3198  0.6345
14693TIP3   OH265493   1.672   3.770   4.990 -0.0844 -0.0688 -0.0698
14693TIP3    H165494   1.687   3.842   4.929 -1.9476  0.5502  0.1549
14693TIP3    H265495   1.735   3.786   5.061  1.1639 -0.0382 -1.1552
14694TIP3   OH265496   1.280   1.249  12.773  0.4100 -0.0566  0.2290
14694TIP3    H165497   1.350   1.215  12.828  1.4836  1.8542  0.0994
14694TIP3    H265498   1.246   1.171  12.728  0.7706 -1.3875  2.1030
14695TIP3   OH265499   0.289   5.420  16.715  0.0374 -0.0696 -0.3910
14695TIP3    H165500   0.347   5.364  16.663 -0.3656  0.6923 -1.6802
14695TIP3    H265501   0.338   5.435  16.796  0.2026 -2.1788 -0.0457
14696TIP3   OH265502   5.216   3.491   3.589  0.1006  0.7707  0.3156
14696TIP3    H165503   5.254   3.518   3.672 -0.3940 -1.1092  1.1959
14696TIP3    H265504   5.213   3.396   3.593  0.4031  0.5872 -2.0251
14697TIP3   OH265505   2.839   5.224   6.591 -0.3956 -0.2370 -0.1812
14697TIP3    H165506   2.892   5.292   6.549 -0.9326  0.2595 -0.0775
14697TIP3    H265507   2.877   5.142   6.561  0.9779  0.0829  0.5576
14698TIP3   OH265508   2.404   0.140   0.279  0.2974 -0.4439 -0.7748
14698TIP3    H165509   2.342   0.133   0.352 -0.2887 -0.3467 -1.2643
14698TIP3    H265510   2.401   0.232   0.254  4.4802  0.9517  2.5374
14699TIP3   OH265511   2.517   3.869  13.577  0.4587  0.4189 -0.2002
14699TIP3    H165512   2.471   3.826  13.505  0.0666  0.8057 -0.1810
14699TIP3    H265513   2.534   3.798  13.639 -1.3215  0.4945  0.4184
14700TIP3   OH265514   3.109   4.613  16.811 -0.1455  0.2705 -0.3720
14700TIP3    H165515   3.037   4.651  16.761 -0.6709 -0.5282 -0.2282
14700TIP3    H265516   3.187   4.657  16.777 -0.6328  0.7020 -0.9511
14701TIP3   OH265517   6.402   4.449   0.720 -0.9311  0.4608  0.5123
14701TIP3    H165518   6.477   4.429   0.665  0.8981 -2.0176  3.5715
14701TIP3    H265519   6.349   4.369   0.720 -1.5143  0.8210  1.3942
14702TIP3   OH265520   2.850   1.388  14.264 -0.7235 -0.1005  0.5552
14702TIP3    H165521   2.756   1.378  14.249 -0.3438 -2.5387 -0.5845
14702TIP3    H265522   2.876   1.310  14.312  0.7981  0.3574  0.5391
14703TIP3   OH265523   4.177   1.103   3.709  0.1840 -0.4405 -0.8609
14703TIP3    H165524   4.082   1.108   3.713  0.2606  1.0311 -0.0836
14703TIP3    H265525   4.202   1.162   3.638  0.5208 -0.9449 -1.1717
14704TIP3   OH265526   2.252   1.650  17.082  0.0901 -0.4925  0.2497
14704TIP3    H165527   2.166   1.692  17.074 -0.7837 -2.0140  1.1925
14704TIP3    H265528   2.254   1.586  17.011  0.9824  0.3657 -0.5318
14705TIP3   OH265529   2.667   1.029  12.546  0.0363  0.2417  0.4398
14705TIP3    H165530   2.756   1.051  12.576 -0.0159 -1.6646  2.1854
14705TIP3    H265531   2.646   0.947  12.591 -1.5357 -0.8886 -2.1341
14706TIP3   OH265532   6.555   0.793  16.581  0.1627 -0.2664 -0.0874
14706TIP3    H165533   6.501   0.762  16.508  0.8583  0.9235 -1.1431
14706TIP3    H265534   6.603   0.715  16.610 -0.4905 -0.8650 -0.5710
14707TIP3   OH265535   2.170   2.494   1.602  0.7453  0.2222 -0.2339
14707TIP3    H165536   2.190   2.410   1.643  2.4110 -0.2858 -1.9791
14707TIP3    H265537   2.079   2.484   1.572  1.0463 -1.1258 -0.7719
14708TIP3   OH265538   5.884   4.049  12.372  0.5211 -0.4169 -0.3151
14708TIP3    H165539   5.810   4.003  12.411 -1.1027  2.4976  0.3579
14708TIP3    H265540   5.849   4.087  12.291  2.3666 -1.9125 -1.9223
14709TIP3   OH265541   5.910   1.696   5.461  0.0213 -0.0056 -0.1187
14709TIP3    H165542   5.907   1.771   5.521 -0.9082 -1.6471  2.0243
14709TIP3    H265543   5.836   1.641   5.487  0.2897 -1.4008 -2.0280
14710TIP3   OH265544   6.210   2.311  14.916  0.0329  0.3817  0.3920
14710TIP3    H165545   6.273   2.362  14.967  1.5927  0.7893 -1.8040
14710TIP3    H265546   6.226   2.220  14.941  0.6780  0.5840  0.7276
14711TIP3   OH265547   6.497   2.621   4.019  0.5055 -0.2491  0.0400
14711TIP3    H165548   6.482   2.715   4.030  0.8252 -0.3528  1.4811
14711TIP3    H265549   6.463   2.602   3.931  1.4523  1.4051 -0.7319
14712TIP3   OH265550   3.664   6.462   4.997  0.5860  0.1069  0.7835
14712TIP3    H165551   3.697   6.400   5.062  0.9282  0.9294  1.4089
14712TIP3    H265552   3.590   6.416   4.956  0.9096 -0.7550  1.1417
14713TIP3   OH265553   1.502   6.049  10.924 -0.3390 -0.0064 -0.3826
14713TIP3    H165554   1.484   6.128  10.873  0.1143  0.0465 -0.4597
14713TIP3    H265555   1.452   6.061  11.005 -1.1226 -0.1251 -0.8338
14714TIP3   OH265556   6.017   2.907   2.281 -0.2081  0.0702 -0.2415
14714TIP3    H165557   5.971   2.824   2.273 -1.2673  0.6644 -0.5330
14714TIP3    H265558   6.057   2.920   2.195  1.2972 -0.8708  0.2787
14715TIP3   OH265559   0.005   1.830  15.072 -0.3988  0.5712  0.1993
14715TIP3    H165560   0.034   1.796  14.987 -0.4815  1.1006 -0.0409
14715TIP3    H265561   0.085   1.860  15.114  0.0148 -1.7749  1.2952
14716TIP3   OH265562   6.634   0.016  11.720 -0.3223  0.0895 -0.2794
14716TIP3    H165563   6.572  -0.050  11.748 -0.0151 -0.2711 -0.4400
14716TIP3    H265564   6.630   0.084  11.788  0.5611 -0.8676  0.7716
14717TIP3   OH265565   6.009   3.198  13.771  0.4690  0.1146 -0.2675
14717TIP3    H165566   5.943   3.207  13.701 -1.4485 -0.9471  1.2967
14717TIP3    H265567   6.059   3.121  13.746 -1.3436 -1.3287  0.3141
14718TIP3   OH265568   0.326   2.426  15.187  0.1512  0.1275 -0.3624
14718TIP3    H165569   0.331   2.501  15.128  1.6578  0.5772  0.2758
14718TIP3    H265570   0.404   2.374  15.166 -0.1708 -0.5641  0.1108
14719TIP3   OH265571   4.238   1.295  11.499 -0.0527  0.2669 -0.1741
14719TIP3    H165572   4.265   1.346  11.576  0.3759 -1.2079  0.6843
14719TIP3    H265573   4.269   1.347  11.424  1.5875  0.6343  0.7037
14720TIP3   OH265574   4.794   4.404  14.771  0.2429 -0.2015 -0.3107
14720TIP3    H165575   4.736   4.447  14.709 -2.6831 -1.1681  1.5518
14720TIP3    H265576   4.809   4.469  14.840  0.9284 -0.1467 -0.5041
14721TIP3   OH265577   0.315   2.290   4.758  0.6984  0.3991 -0.2966
14721TIP3    H165578   0.391   2.347   4.772  0.9729  0.4732 -1.9028
14721TIP3    H265579   0.328   2.253   4.671  0.1703 -1.6100  0.4315
14722TIP3   OH265580   3.945   4.918   0.520  0.4714  0.4697  0.1627
14722TIP3    H165581   3.903   4.846   0.473 -0.1872  0.5237  0.6458
14722TIP3    H265582   3.973   4.978   0.451 -1.8428  1.2919 -0.1617
14723TIP3   OH265583   1.581   0.731  13.497  0.6133 -0.1578 -0.5203
14723TIP3    H165584   1.574   0.811  13.549 -1.1182 -0.5631 -0.0636
14723TIP3    H265585   1.538   0.751  13.414 -2.2913 -1.3179  0.5719
14724TIP3   OH265586   6.110   6.505  11.255 -0.2046 -0.2976 -0.0712
14724TIP3    H165587   6.201   6.526  11.275  0.3147  0.9807 -3.1420
14724TIP3    H265588   6.092   6.555  11.175 -3.3136 -1.2834 -0.0891
14725TIP3   OH265589   5.554   1.966   5.249 -1.0327  0.0938 -0.1164
14725TIP3    H165590   5.490   2.032   5.221  0.7240  1.8345 -0.2110
14725TIP3    H265591   5.501   1.899   5.293 -2.8110  2.0949  1.0067
14726TIP3   OH265592   5.308   2.485   1.206 -0.5261  0.3035 -0.2020
14726TIP3    H165593   5.280   2.400   1.170  1.1274  0.1359 -1.1615
14726TIP3    H265594   5.334   2.465   1.296  1.2847 -0.5405 -0.8804
14727TIP3   OH265595   1.432   3.911   1.447  0.2245  0.0664  0.1238
14727TIP3    H165596   1.364   3.861   1.403  0.9063 -0.0392 -0.8520
14727TIP3    H265597   1.393   3.938   1.530 -0.8692 -0.2918 -0.2623
14728TIP3   OH265598   1.017   5.022  16.959 -0.5763  0.3183 -0.0862
14728TIP3    H165599   0.981   5.093  17.013  1.3817  0.8542  0.5798
14728TIP3    H265600   0.991   4.942  17.005 -0.9900  0.6755  0.3129
14729TIP3   OH265601   1.449   1.992   5.455  0.3362 -0.0658  0.2288
14729TIP3    H165602   1.403   2.073   5.478 -0.2484 -0.7006  1.3950
14729TIP3    H265603   1.457   1.995   5.360 -0.5647  0.9031  0.1676
14730TIP3   OH265604   1.512   5.294   6.219  0.6062  0.1429  0.0041
14730TIP3    H165605   1.472   5.217   6.260  0.2191 -0.8218 -2.0443
14730TIP3    H265606   1.442   5.331   6.165  1.0075  1.5162  0.3954
14731TIP3   OH265607   5.726   2.114  15.659  0.7071 -0.2746 -0.2156
14731TIP3    H165608   5.670   2.147  15.588  1.1768  2.9444  0.7485
14731TIP3    H265609   5.669   2.057  15.710 -0.0621 -1.4942 -2.3256
14732TIP3   OH265610   4.591   6.060   4.713  0.2562 -0.6337 -0.0718
14732TIP3    H165611   4.578   6.111   4.793 -0.0581 -2.9086  1.4350
14732TIP3    H265612   4.524   5.993   4.716  0.9067 -1.4241 -1.7276
14733TIP3   OH265613   5.080   1.921  15.629  0.2433  0.1599 -0.3871
14733TIP3    H165614   4.995   1.934  15.671 -0.8059 -2.0914 -1.6480
14733TIP3    H265615   5.070   1.957  15.541  0.1743 -1.1914 -0.9466
14734TIP3   OH265616   4.299   3.360   5.791  0.2276  0.1895  0.0416
14734TIP3    H165617   4.345   3.405   5.862  0.2164 -0.4043  0.4232
14734TIP3    H265618   4.350   3.382   5.713  0.1360  0.9873  0.1997
14735TIP3   OH265619   6.033   4.836  14.781 -0.8146 -0.3215 -0.3181
14735TIP3    H165620   6.057   4.744  14.794  0.0280 -0.2248 -1.0335
14735TIP3    H265621   6.017   4.869  14.869  0.4071 -0.7662  0.1020
14736TIP3   OH265622   6.215   1.065   2.068 -0.0712  0.3380 -0.2398
14736TIP3    H165623   6.185   1.113   1.991 -1.1293 -1.2592 -0.8683
14736TIP3    H265624   6.189   1.120   2.142 -1.4397  0.6533 -0.9240
14737TIP3   OH265625   4.565   0.599  15.137 -0.0003  0.0813  0.3603
14737TIP3    H165626   4.656   0.597  15.164 -0.1907  0.5164  1.0812
14737TIP3    H265627   4.544   0.509  15.114  0.2184 -0.2994  1.5856
14738TIP3   OH265628   3.980   2.444  15.718 -0.7281 -0.1143 -0.4438
14738TIP3    H165629   4.025   2.491  15.789 -1.1367 -1.6002  0.8649
14738TIP3    H265630   4.006   2.352  15.730 -2.0009 -0.6125 -1.2768
14739TIP3   OH265631   1.740   4.634   3.926  0.3409 -0.6939 -0.2737
14739TIP3    H165632   1.832   4.630   3.952  0.2205  0.7942  0.5197
14739TIP3    H265633   1.720   4.728   3.925 -1.5738 -1.0426  1.0438
14740TIP3   OH265634   0.877   0.816   4.327 -0.2177 -0.8403  0.9216
14740TIP3    H165635   0.947   0.867   4.287  0.2841 -1.1453  1.3973
14740TIP3    H265636   0.799   0.841   4.278  0.1287 -0.1057  0.7213
14741TIP3   OH265637   3.242   4.333  14.071  0.0131 -0.3400 -0.1801
14741TIP3    H165638   3.318   4.390  14.077  0.1145 -0.5951  1.6363
14741TIP3    H265639   3.201   4.355  13.987  1.5983  0.3910 -0.7932
14742TIP3   OH265640   2.294   4.558  13.617  0.0828  0.0801 -0.4122
14742TIP3    H165641   2.359   4.617  13.579  1.7832 -1.3287  0.1617
14742TIP3    H265642   2.272   4.597  13.702 -0.2721  0.8541 -0.8486
14743TIP3   OH265643   1.616   0.384  11.760  0.0881 -0.7862 -0.1080
14743TIP3    H165644   1.658   0.301  11.783  2.2686  0.0260 -0.9253
14743TIP3    H265645   1.629   0.392  11.666 -1.5335 -0.2386 -0.3200
14744TIP3   OH265646   5.980   2.671  11.949  0.2317 -0.1785 -0.0585
14744TIP3    H165647   6.043   2.602  11.973 -0.3866 -0.8177 -0.2422
14744TIP3    H265648   5.958   2.652  11.858  1.3127  1.2654 -0.6592
14745TIP3   OH265649   2.460   3.232   5.257 -0.1491 -0.3270 -0.4504
14745TIP3    H165650   2.514   3.288   5.312 -0.0116 -1.7309  0.9046
14745TIP3    H265651   2.454   3.279   5.174  0.6325  1.2850  0.3556
14746TIP3   OH265652   1.751   6.740   6.155 -0.0671 -0.2078 -0.4193
14746TIP3    H165653   1.773   6.822   6.111 -0.2984 -0.5661 -1.2244
14746TIP3    H265654   1.821   6.727   6.219 -1.3560  1.9285  1.5736
14747TIP3   OH265655   5.864   4.437  10.890  0.1605  0.8358 -0.5016
14747TIP3    H165656   5.855   4.435  10.985 -1.3422 -0.7997 -0.6283
14747TIP3    H265657   5.947   4.392  10.873 -0.9717 -1.5697 -0.0404
14748TIP3   OH265658   5.079   2.555   1.938  0.5012  0.0259  0.6289
14748TIP3    H165659   5.006   2.499   1.912 -0.4772  1.1153  0.9448
14748TIP3    H265660   5.145   2.494   1.972 -0.1965 -0.9865  0.2205
14749TIP3   OH265661   1.072   3.929  17.172  0.1746 -0.4102 -0.2068
14749TIP3    H165662   1.123   3.857  17.210  0.6848 -0.5374 -1.1001
14749TIP3    H265663   0.983   3.913  17.202  0.2083 -1.6375 -0.6699
14750TIP3   OH265664   6.306   0.087  12.900  0.1877 -0.3066 -0.1456
14750TIP3    H165665   6.386   0.134  12.924  1.7060 -2.3953 -0.7999
14750TIP3    H265666   6.279   0.043  12.980 -0.5749  0.7006  0.1734
14751TIP3   OH265667   4.509   0.433   4.586  0.0354 -0.4680 -0.5684
14751TIP3    H165668   4.433   0.491   4.587  0.3618 -0.0061 -1.2955
14751TIP3    H265669   4.566   0.467   4.655 -1.3823 -2.2199  1.6189
14752TIP3   OH265670   5.161   2.007   5.374 -0.1774 -0.4633 -0.3043
14752TIP3    H165671   5.149   1.925   5.326 -0.9089 -0.9907  0.7469
14752TIP3    H265672   5.096   2.066   5.336 -0.4213 -0.7218 -0.2928
14753TIP3   OH265673   0.287   2.137  10.647  0.0064  0.1175 -0.3245
14753TIP3    H165674   0.358   2.187  10.605  1.7138 -0.6975  1.4058
14753TIP3    H265675   0.318   2.047  10.646 -0.6840 -0.1673  1.0797
14754TIP3   OH265676   5.145   5.340   4.291 -0.5556  0.2746 -0.0044
14754TIP3    H165677   5.128   5.246   4.296  2.1327 -0.2638  0.4792
14754TIP3    H265678   5.155   5.357   4.197  0.2588 -0.2241 -0.0209
14755TIP3   OH265679   6.382   5.382  12.145 -0.0806 -0.0620 -0.5117
14755TIP3    H165680   6.466   5.357  12.107 -0.3270  0.8933 -1.7755
14755TIP3    H265681   6.333   5.300  12.151  0.8106 -0.5751 -0.0758
14756TIP3   OH265682   2.463   2.465  10.569  0.6297  0.6152 -0.1651
14756TIP3    H165683   2.500   2.441  10.484 -0.5794 -1.5275 -0.1524
14756TIP3    H265684   2.479   2.559  10.577  2.3542  0.5290 -1.9459
14757TIP3   OH265685   2.156   4.722   4.009  0.2896 -0.2365 -0.1840
14757TIP3    H165686   2.181   4.712   4.101  2.2060  0.4756 -0.5863
14757TIP3    H265687   2.233   4.761   3.967  0.0772 -2.0136 -2.4148
14758TIP3   OH265688   4.437   2.454   1.314  0.3780 -0.0045 -0.1606
14758TIP3    H165689   4.430   2.362   1.288 -0.2527 -0.3221  1.0498
14758TIP3    H265690   4.464   2.499   1.234 -0.8277 -1.0142 -1.1909
14759TIP3   OH265691   6.505   3.414  14.330 -0.5678  0.3458  0.1343
14759TIP3    H165692   6.554   3.467  14.393 -2.6465  1.6256  0.7830
14759TIP3    H265693   6.413   3.425  14.356 -1.3594 -0.4877 -2.0811
14760TIP3   OH265694   5.818   4.567   3.846 -0.2230  0.5127 -0.5929
14760TIP3    H165695   5.726   4.551   3.865  0.0757  0.8373  1.3499
14760TIP3    H265696   5.822   4.660   3.824 -0.0631  1.1544  1.8639
14761TIP3   OH265697   1.883   1.473   5.428  0.3675 -0.8913 -0.3078
14761TIP3    H165698   1.870   1.568   5.429 -0.1338 -0.9339  1.2769
14761TIP3    H265699   1.913   1.453   5.340  1.7004  0.9032 -0.3057
14762TIP3   OH265700   1.923   5.084  13.605 -0.3772  0.4642 -0.5648
14762TIP3    H165701   1.967   5.021  13.661  2.4265  3.3123  0.7233
14762TIP3    H265702   1.834   5.090  13.640 -0.3716 -1.7975 -0.0193
14763TIP3   OH265703   5.034   1.056   0.111 -0.4479 -0.2886  0.3306
14763TIP3    H165704   5.113   1.009   0.086  1.4542  0.9300  3.5225
14763TIP3    H265705   4.969   0.987   0.127  1.1909 -1.6465  1.4217
14764TIP3   OH265706   5.669   0.960  15.557  0.0515 -0.3484 -0.4416
14764TIP3    H165707   5.594   1.010  15.590  0.0531 -1.0274  0.6365
14764TIP3    H265708   5.737   1.026  15.544  0.0768 -0.0403  1.0337
14765TIP3   OH265709   3.158   0.111  13.837  0.2268 -0.0243  0.2464
14765TIP3    H165710   3.237   0.156  13.808 -0.7848  0.3740 -2.0640
14765TIP3    H265711   3.172   0.020  13.813  0.5193 -0.2042  1.0689
14766TIP3   OH265712   1.393   1.660   3.940 -0.4254 -0.5656 -0.1350
14766TIP3    H165713   1.477   1.612   3.939  0.3126  0.5551 -2.9046
14766TIP3    H265714   1.397   1.715   3.861 -3.9055 -0.6758 -0.5136
14767TIP3   OH265715   5.409   0.915   5.288  0.4451 -0.2386 -0.1038
14767TIP3    H165716   5.484   0.894   5.343  0.7009  1.8629  0.4283
14767TIP3    H265717   5.448   0.944   5.205  0.1708 -0.5264 -0.3337
14768TIP3   OH265718   2.112   5.439  11.165 -0.3389 -0.1696  0.6729
14768TIP3    H165719   2.151   5.413  11.081 -1.3204  1.2916 -0.3010
14768TIP3    H265720   2.044   5.373  11.181 -1.2924  0.4529 -0.5974
14769TIP3   OH265721   3.676   2.168   2.342  0.3513 -0.0526  0.3888
14769TIP3    H165722   3.609   2.225   2.379  2.1960  1.7305  1.1321
14769TIP3    H265723   3.758   2.218   2.349  2.1795 -2.9187  1.5186
14770TIP3   OH265724   3.595   0.882  16.440 -0.1295 -0.0762 -0.0258
14770TIP3    H165725   3.597   0.857  16.347  1.2388 -0.1024 -0.0042
14770TIP3    H265726   3.633   0.969  16.442  0.0525 -0.1647  0.5372
14771TIP3   OH265727   6.330   3.412  15.032  0.5008 -0.0457 -0.2934
14771TIP3    H165728   6.361   3.393  14.944  2.5054  2.4532 -0.2408
14771TIP3    H265729   6.394   3.369  15.089 -0.5599 -1.3077 -0.0005
14772TIP3   OH265730   3.758   3.392  13.912  0.5597  0.0210 -0.2490
14772TIP3    H165731   3.708   3.373  13.832 -0.9285 -0.8078  0.8215
14772TIP3    H265732   3.833   3.332  13.907 -2.3654 -4.3328  1.4838
14773TIP3   OH265733   2.753   5.202   3.675  0.4009 -0.4676 -0.0395
14773TIP3    H165734   2.713   5.129   3.629  1.1052  0.1198 -1.6427
14773TIP3    H265735   2.770   5.267   3.607  0.1222  1.0537  1.2792
14774TIP3   OH265736   0.588   3.477   5.294 -0.5308 -0.6039  0.0780
14774TIP3    H165737   0.610   3.386   5.272 -0.4147 -0.3187 -1.0398
14774TIP3    H265738   0.665   3.509   5.341 -1.1130 -1.4714  1.6990
14775TIP3   OH265739   4.026   5.054  13.513  0.2736  0.0506  0.0367
14775TIP3    H165740   4.050   5.136  13.470 -1.9310  0.9602  0.4010
14775TIP3    H265741   4.002   4.995  13.441  1.7246 -0.2663 -0.2176
14776TIP3   OH265742   0.533   2.510   4.827  0.2095 -0.2006 -0.4057
14776TIP3    H165743   0.598   2.446   4.853  0.6745 -0.0232 -1.1140
14776TIP3    H265744   0.542   2.581   4.891  0.6118 -0.2382 -0.4194
14777TIP3   OH265745   2.464   0.939  17.176 -0.3726 -0.5755  0.0987
14777TIP3    H165746   2.495   0.933  17.266 -0.3735 -1.1885  0.0620
14777TIP3    H265747   2.490   1.027  17.148 -1.6088  0.1573  1.1382
14778TIP3   OH265748   3.951   3.433   5.594 -0.4170 -0.4143 -0.2982
14778TIP3    H165749   3.961   3.403   5.684  0.1889 -0.8164 -0.4937
14778TIP3    H265750   3.957   3.354   5.542 -0.0243 -0.1030 -0.7392
14779TIP3   OH265751   4.022   2.480  15.333  0.4447 -0.3749 -0.0725
14779TIP3    H165752   3.973   2.425  15.394 -0.5361 -0.7349 -1.1523
14779TIP3    H265753   4.007   2.441  15.248  0.2786  1.1728 -0.7906
14780TIP3   OH265754   5.988   5.408   0.942 -0.2147 -0.9841 -0.0976
14780TIP3    H165755   6.052   5.340   0.920  0.4036 -0.3965 -0.1264
14780TIP3    H265756   5.963   5.446   0.858  0.8341  0.0664  0.0347
14781TIP3   OH265757   5.006   6.613  11.466  0.8910 -0.3140 -0.1755
14781TIP3    H165758   4.951   6.664  11.406 -1.0025 -1.7376  0.2782
14781TIP3    H265759   5.065   6.565  11.408  1.1698  0.6369 -0.7154
14782TIP3   OH265760   3.740   0.529  15.701  0.0900  0.1959 -0.2172
14782TIP3    H165761   3.802   0.479  15.754  0.5849  0.7669 -0.2478
14782TIP3    H265762   3.668   0.468  15.685 -0.5824  0.3061  1.9964
14783TIP3   OH265763   4.723   3.749   4.930  0.0705  0.2649 -0.0250
14783TIP3    H165764   4.764   3.688   4.992 -1.6696  0.6439  1.6007
14783TIP3    H265765   4.713   3.830   4.980  0.8637  1.3929 -1.6393
14784TIP3   OH265766   1.076   0.349  13.738 -0.1396  0.3295  0.2302
14784TIP3    H165767   1.033   0.424  13.779  0.0986  0.0948  0.9221
14784TIP3    H265768   1.118   0.385  13.660 -0.0302  0.9131  0.5513
14785TIP3   OH265769   4.049   2.701   0.641 -0.0825  0.2117 -0.0669
14785TIP3    H165770   3.960   2.671   0.623 -0.9084  1.7248  1.2592
14785TIP3    H265771   4.097   2.622   0.664 -1.5868 -0.4127  1.0577
14786TIP3   OH265772   1.363   0.569  10.724  0.4954 -0.5382 -0.5257
14786TIP3    H165773   1.455   0.557  10.746  0.9246 -1.0565 -2.4319
14786TIP3    H265774   1.344   0.500  10.661 -0.8631  0.3053 -1.0754
14787TIP3   OH265775   0.424   4.890  16.009 -0.0656 -0.0883 -0.0072
14787TIP3    H165776   0.387   4.807  15.979  0.9248 -0.5869  0.1267
14787TIP3    H265777   0.361   4.956  15.980 -0.4744 -0.8082 -0.7895
14788TIP3   OH265778   0.596   6.187   4.361 -0.0250  0.5318 -0.3624
14788TIP3    H165779   0.618   6.214   4.272 -1.5761  2.2237 -0.2809
14788TIP3    H265780   0.644   6.248   4.417  0.1498  0.1192 -0.0630
14789TIP3   OH265781   0.029   3.258   1.851  0.3401 -0.3238 -0.5273
14789TIP3    H165782  -0.031   3.184   1.841 -0.4397  0.4761 -2.3562
14789TIP3    H265783   0.101   3.239   1.790 -1.1626  1.5588 -3.0870
14790TIP3   OH265784   2.477   4.877  14.484  0.4900  0.4233 -0.5425
14790TIP3    H165785   2.517   4.894  14.569  0.4537 -0.5899 -0.3030
14790TIP3    H265786   2.543   4.907  14.421  1.0485  0.0510 -0.1549
14791TIP3   OH265787   0.077   5.872   0.459 -0.1310  0.4481  0.3567
14791TIP3    H165788   0.071   5.967   0.444  1.4159  0.3535 -1.1184
14791TIP3    H265789  -0.012   5.847   0.483 -1.5951  1.6657 -3.1098
14792TIP3   OH265790   4.354   2.466  13.303 -0.4675  0.3581  0.3834
14792TIP3    H165791   4.372   2.522  13.228 -1.5690  1.5229  0.9470
14792TIP3    H265792   4.385   2.517  13.378  0.4637 -0.7204  0.7538
14793TIP3   OH265793   0.723   5.845   1.533 -0.1762  0.3578 -0.2654
14793TIP3    H165794   0.663   5.906   1.576  2.1364  1.6125  1.4193
14793TIP3    H265795   0.693   5.759   1.562 -1.4707  0.8808  0.0707
14794TIP3   OH265796   4.355   2.854  12.445  0.4632 -0.3741  0.7704
14794TIP3    H165797   4.338   2.866  12.351 -1.0368 -1.1033  0.9151
14794TIP3    H265798   4.356   2.943  12.481  0.3873 -0.1242  0.1633
14795TIP3   OH265799   4.814   5.546  13.991 -0.3493  0.1918  0.4264
14795TIP3    H165800   4.744   5.571  13.930  0.6814  1.2684 -0.3428
14795TIP3    H265801   4.854   5.629  14.017  1.6126 -0.4660 -0.3255
14796TIP3   OH265802   4.261   4.085  11.881  0.1472  0.0499 -0.5508
14796TIP3    H165803   4.179   4.096  11.832  0.1145  0.9289 -0.3062
14796TIP3    H265804   4.267   4.163  11.936  0.5667 -0.5649  0.2964
14797TIP3   OH265805   1.524   3.948   3.482 -0.2710 -0.2962  0.1147
14797TIP3    H165806   1.561   4.036   3.486 -1.9105  0.5051 -1.1537
14797TIP3    H265807   1.599   3.890   3.489  0.7876  1.1791  1.6449
14798TIP3   OH265808   3.657   6.729   5.201 -0.3221 -0.4729 -0.2219
14798TIP3    H165809   3.644   6.799   5.137  2.0199  2.5024  2.2299
14798TIP3    H265810   3.695   6.657   5.150  1.8517  1.8663 -2.2235
14799TIP3   OH265811   6.667   5.258   5.208  0.1859 -0.1283  0.3900
14799TIP3    H165812   6.684   5.169   5.178 -0.8981  0.2635 -1.5749
14799TIP3    H265813   6.578   5.255   5.244 -0.6037  0.4861 -1.3924
14800TIP3   OH265814   0.463   2.012   2.862  0.7174 -0.1234  0.7179
14800TIP3    H165815   0.371   2.019   2.837  0.1878 -0.1354  2.5601
14800TIP3    H265816   0.487   1.922   2.841  1.3508  0.7048 -2.8845
14801TIP3   OH265817   2.333   1.074   2.171  0.2780  0.3143  0.1410
14801TIP3    H165818   2.417   1.062   2.215  0.3322  0.4864  0.0850
14801TIP3    H265819   2.269   1.080   2.242  0.2280 -0.4712  0.1648
14802TIP3   OH265820   4.371   5.263  16.034 -0.1436  0.3901 -0.1374
14802TIP3    H165821   4.380   5.326  16.106  0.7361  0.9759 -0.7428
14802TIP3    H265822   4.453   5.269  15.987 -0.7600  0.1054 -1.2792
14803TIP3   OH265823   5.186   4.954  16.339 -0.4000 -0.1279  0.0416
14803TIP3    H165824   5.185   5.040  16.298 -0.9427 -0.4041 -0.5377
14803TIP3    H265825   5.241   4.901  16.281  1.1375  0.1807  1.1595
14804TIP3   OH265826   4.087   3.867   0.172 -0.7965  0.3757 -0.6667
14804TIP3    H165827   4.130   3.951   0.156 -2.0707  0.9932 -0.9571
14804TIP3    H265828   4.123   3.808   0.105 -0.6990  0.9760 -1.1416
14805TIP3   OH265829   5.447   3.337  10.910 -0.1413 -0.4231 -0.7487
14805TIP3    H165830   5.451   3.413  10.853  2.0481  0.5929  0.5890
14805TIP3    H265831   5.355   3.327  10.932 -0.3239  3.5364  1.0847
14806TIP3   OH265832   6.112   4.044  11.691  0.0447 -0.1578 -0.1692
14806TIP3    H165833   6.175   4.078  11.627 -1.3532  2.7876 -0.1108
14806TIP3    H265834   6.072   3.969  11.646  2.2151 -0.9657 -0.9140
14807TIP3   OH265835   1.960   1.089  16.023  0.1890 -0.5305 -0.1066
14807TIP3    H165836   1.887   1.028  16.031  0.7670 -1.1156  0.9127
14807TIP3    H265837   2.036   1.040  16.056  1.0812  0.0081 -1.2778
14808TIP3   OH265838   6.634   0.366  16.174  0.2499  0.2133 -0.2462
14808TIP3    H165839   6.657   0.274  16.158 -0.5704 -0.2497  1.1511
14808TIP3    H265840   6.594   0.394  16.092 -0.2516 -0.9222 -0.4143
14809TIP3   OH265841   4.050   4.609  11.566  0.3171 -0.1101  0.3699
14809TIP3    H165842   4.083   4.646  11.484 -0.1439 -0.0525  0.2085
14809TIP3    H265843   3.963   4.648  11.577 -0.4824 -1.6625 -0.1669
14810TIP3   OH265844   1.810   5.521   0.168 -0.4315  0.3246  0.0693
14810TIP3    H165845   1.890   5.474   0.144  0.3700  0.1542  2.7041
14810TIP3    H265846   1.745   5.452   0.182 -0.8470  0.4127 -1.3043
14811TIP3   OH265847   4.570   1.819  16.229 -0.7142  0.0898  0.3004
14811TIP3    H165848   4.522   1.775  16.299 -0.1282 -0.3277  0.4401
14811TIP3    H265849   4.533   1.908  16.227 -2.0229 -0.4398 -0.0980
14812TIP3   OH265850   6.568   4.825   0.175 -0.0660  0.3769 -0.3354
14812TIP3    H165851   6.502   4.774   0.128  0.0619 -1.7084  1.5283
14812TIP3    H265852   6.532   4.913   0.180 -1.2712  0.0247 -1.9674
14813TIP3   OH265853   4.529   4.184  11.029 -0.3391  0.4928 -0.1671
14813TIP3    H165854   4.551   4.229  11.111 -0.3548 -3.1216  2.0552
14813TIP3    H265855   4.445   4.143  11.047 -0.2850 -0.4887 -1.9744
14814TIP3   OH265856   1.987   5.367  12.358 -0.1148  0.6531 -0.1053
14814TIP3    H165857   1.998   5.434  12.290 -0.1576  1.0762  0.2986
14814TIP3    H265858   1.922   5.405  12.418 -0.4943  0.0462 -0.1243
14815TIP3   OH265859   0.732   5.056   1.351 -0.5289  0.5317  0.0433
14815TIP3    H165860   0.645   5.031   1.320 -0.2828  0.6545 -0.7510
14815TIP3    H265861   0.715   5.125   1.416 -1.0464  0.2447  0.2170
14816TIP3   OH265862   3.042   0.598  11.729 -0.2936 -0.0116  0.5737
14816TIP3    H165863   3.036   0.568  11.639  2.6683 -1.2031  0.6651
14816TIP3    H265864   3.049   0.693  11.723 -0.4694 -0.0587 -0.4151
14817TIP3   OH265865   2.664   2.738  12.661 -0.5723  0.1417 -0.1047
14817TIP3    H165866   2.582   2.690  12.652 -0.3140 -0.2463 -0.4193
14817TIP3    H265867   2.732   2.671  12.659 -0.2098  0.5154 -0.5482
14818TIP3   OH265868   3.392   2.410  11.325  0.7597 -0.3612 -0.3104
14818TIP3    H165869   3.446   2.457  11.262  1.7766 -0.6331  0.3260
14818TIP3    H265870   3.355   2.478  11.381  1.0224 -0.2166 -0.3113
14819TIP3   OH265871   3.861   3.258  10.934  0.4035  0.0395 -0.6518
14819TIP3    H165872   3.933   3.197  10.920  1.5279  0.6084  2.0774
14819TIP3    H265873   3.895   3.343  10.907  1.0932  0.4248  1.2557
14820TIP3   OH265874   2.436   1.356   3.267  0.2939 -0.0012  0.4023
14820TIP3    H165875   2.476   1.428   3.316  1.4695 -1.3514  1.5348
14820TIP3    H265876   2.487   1.279   3.293 -0.2006 -1.0747 -1.6215
14821TIP3   OH265877   0.773   1.599   3.882 -0.2608 -0.7351 -0.0677
14821TIP3    H165878   0.818   1.547   3.815 -1.0766 -0.1901 -1.0664
14821TIP3    H265879   0.801   1.689   3.866  0.4205 -0.7297  1.0647
14822TIP3   OH265880   6.592   4.190   3.880 -0.1027  0.3437  0.3105
14822TIP3    H165881   6.530   4.119   3.897  1.5552 -0.9570  1.2617
14822TIP3    H265882   6.661   4.149   3.828  0.8904  1.2335  0.8886
14823TIP3   OH265883   2.930   1.196   3.996 -0.3871 -0.2809 -0.0022
14823TIP3    H165884   3.015   1.224   4.028  0.6619 -4.1681  1.2097
14823TIP3    H265885   2.876   1.188   4.075 -1.2846  0.3104 -0.5363
14824TIP3   OH265886   1.075   4.663  15.103  0.3178  0.0481  0.4635
14824TIP3    H165887   1.059   4.568  15.107 -0.3441  0.1769  0.9671
14824TIP3    H265888   1.126   4.681  15.183 -1.3042  0.4308  1.4593
14825TIP3   OH265889   3.483   1.604   3.617  0.4065 -0.2377  0.4503
14825TIP3    H165890   3.388   1.612   3.629  0.4934 -0.1428  1.1245
14825TIP3    H265891   3.493   1.581   3.525 -0.2914 -0.5882  0.4481
14826TIP3   OH265892   1.394   6.110   5.886 -0.4851  0.0829 -0.1361
14826TIP3    H165893   1.465   6.048   5.871 -0.8369 -0.7391  1.4027
14826TIP3    H265894   1.318   6.068   5.844 -0.8441 -0.8321  1.3714
14827TIP3   OH265895   3.707   5.464  16.451 -0.1893  0.0354 -0.1260
14827TIP3    H165896   3.685   5.428  16.365  1.3323  0.6123 -0.7883
14827TIP3    H265897   3.795   5.431  16.469  0.7519  2.3402 -0.1944
14828TIP3   OH265898   6.135   5.860   5.646  0.0257 -0.2101  0.2232
14828TIP3    H165899   6.060   5.879   5.703 -0.0119  0.3045  0.0044
14828TIP3    H265900   6.201   5.826   5.706  0.4258  1.4679  0.7903
14829TIP3   OH265901   3.177   5.310  12.250  0.0619  0.6180  0.3060
14829TIP3    H165902   3.160   5.223  12.287 -0.1147  1.2559  1.8072
14829TIP3    H265903   3.208   5.293  12.161  3.1287 -1.1784  1.5422
14830TIP3   OH265904   3.560   6.231   0.428 -0.2422  0.4782 -0.0976
14830TIP3    H165905   3.576   6.253   0.337 -2.7998 -0.3814 -0.8434
14830TIP3    H265906   3.536   6.138   0.426 -1.0251  0.6212  1.3409
14831TIP3   OH265907   0.263   4.147  12.055 -0.2229  0.6050  0.2938
14831TIP3    H165908   0.339   4.197  12.085 -0.6023  0.5796  1.3587
14831TIP3    H265909   0.251   4.079  12.122  1.2938 -2.0437 -1.9611
14832TIP3   OH265910   1.585   5.632   1.614 -0.6636  0.7372 -0.1200
14832TIP3    H165911   1.574   5.683   1.534  1.1895 -1.1182 -1.6609
14832TIP3    H265912   1.647   5.683   1.667 -1.4421  1.6858 -0.1008
14833TIP3   OH265913   5.996   3.808  10.418  0.4357 -0.5994  0.0418
14833TIP3    H165914   5.948   3.878  10.462 -0.3693 -1.6100  0.8284
14833TIP3    H265915   6.080   3.804  10.464 -0.4594 -1.7654  1.6955
14834TIP3   OH265916   2.826   0.257  13.811 -0.8494  0.3519 -0.0362
14834TIP3    H165917   2.915   0.222  13.825 -0.8950  1.2596  3.5392
14834TIP3    H265918   2.800   0.221  13.727  2.6605 -0.4757 -0.9669
14835TIP3   OH265919   3.840   4.819   3.258 -0.4165  0.0907  0.5551
14835TIP3    H165920   3.797   4.898   3.290 -0.3728  0.2505  0.2188
14835TIP3    H265921   3.910   4.803   3.321 -0.1264  0.5886  0.3606
14836TIP3   OH265922   0.081   0.944   5.580  0.7509 -0.2017  0.4368
14836TIP3    H165923   0.145   0.998   5.626  0.8186 -0.9019  1.1816
14836TIP3    H265924   0.133   0.876   5.537  0.7936  0.9448 -1.4765
14837TIP3   OH265925   4.326   1.510   0.239 -0.8368 -0.3198  0.5888
14837TIP3    H165926   4.382   1.530   0.313 -1.6218 -0.1387  1.1421
14837TIP3    H265927   4.362   1.562   0.167 -1.8495  1.8704  1.5799
14838TIP3   OH265928   2.344   6.290   4.088  0.2329 -0.4689  0.5530
14838TIP3    H165929   2.305   6.315   4.004  0.4599  2.4196  1.1845
14838TIP3    H265930   2.281   6.231   4.127 -1.5158  0.7501 -0.2742
14839TIP3   OH265931   3.158   6.725   5.487 -0.0779  0.3053 -0.0779
14839TIP3    H165932   3.201   6.744   5.570 -1.5129  1.1060  0.5122
14839TIP3    H265933   3.199   6.784   5.424  2.4406 -1.6588 -0.4737
14840TIP3   OH265934   2.369   0.584  16.464  0.9830 -0.1287  0.0211
14840TIP3    H165935   2.334   0.576  16.376  2.0872 -1.8053 -0.3219
14840TIP3    H265936   2.457   0.547  16.458  0.2426 -2.5682  2.3127
14841TIP3   OH265937   5.064   5.130  14.693 -0.2045 -0.1322 -0.9184
14841TIP3    H165938   5.045   5.178  14.773  0.4549  1.7864 -1.8502
14841TIP3    H265939   4.978   5.120  14.651 -1.0291 -3.5718  1.1712
14842TIP3   OH265940   4.466   5.898   6.053  0.1430  0.2159 -0.6850
14842TIP3    H165941   4.533   5.830   6.050  0.8050  0.8278 -0.2886
14842TIP3    H265942   4.443   5.905   6.146 -1.3637 -0.8182 -0.9545
14843TIP3   OH265943   5.168   3.397  16.766 -0.1288 -0.8023 -0.2678
14843TIP3    H165944   5.099   3.426  16.706 -0.3251 -1.1297 -0.2073
14843TIP3    H265945   5.129   3.407  16.853  0.4531  0.4700 -0.1323
14844TIP3   OH265946   2.458   0.858   0.227  0.2174  0.1624 -0.1704
14844TIP3    H165947   2.382   0.799   0.229  1.4690 -1.6043 -1.3682
14844TIP3    H265948   2.425   0.941   0.261 -1.5476 -1.3163  2.0851
14845TIP3   OH265949   1.987   1.851   2.459  0.2139 -0.4519  0.3149
14845TIP3    H165950   1.949   1.929   2.499  0.9577  0.3274 -0.4693
14845TIP3    H265951   2.022   1.801   2.533 -0.9989 -0.4785  0.9075
14846TIP3   OH265952   5.592   1.149  15.255  0.3062  0.0761  0.3955
14846TIP3    H165953   5.608   1.058  15.231  0.4995 -0.6801  3.0021
14846TIP3    H265954   5.655   1.167  15.326  0.1057  2.1681  0.1295
14847TIP3   OH265955   4.394   2.997  12.170 -0.1753 -0.3940 -0.0047
14847TIP3    H165956   4.478   3.040  12.151 -0.1638  0.4427  1.7146
14847TIP3    H265957   4.369   2.955  12.088  1.3137  0.3906 -0.9005
14848TIP3   OH265958   6.108   4.599   0.087 -0.1394 -0.1982 -0.3145
14848TIP3    H165959   6.122   4.565   0.176 -0.8142  0.6171  0.1154
14848TIP3    H265960   6.161   4.542   0.032  1.3209  0.0678  0.7563
14849TIP3   OH265961   0.567   2.623  17.155  0.9073 -0.0758 -0.0113
14849TIP3    H165962   0.478   2.649  17.133  0.4120 -2.4694 -1.1301
14849TIP3    H265963   0.579   2.538  17.112  2.7679 -1.1712  2.4204
14850TIP3   OH265964   3.199   1.785  13.919 -0.4670  0.4426  0.2262
14850TIP3    H165965   3.240   1.715  13.970 -0.3301  0.7492  0.5407
14850TIP3    H265966   3.198   1.752  13.829  1.9270  1.0688 -0.0855
14851TIP3   OH265967   1.488   5.370  15.306  0.4752  0.2351  0.2358
14851TIP3    H165968   1.430   5.372  15.382  0.2647  2.7635  0.1072
14851TIP3    H265969   1.551   5.301  15.325  0.0151  0.3357  2.3835
14852TIP3   OH265970   2.422   0.198  15.842 -0.4817 -0.6314 -0.5168
14852TIP3    H165971   2.354   0.130  15.837 -1.1338 -0.2431  1.7309
14852TIP3    H265972   2.375   0.277  15.867  0.5949  0.0492 -0.5836
14853TIP3   OH265973   3.762   4.918  16.603 -0.6114 -0.3801  0.0048
14853TIP3    H165974   3.857   4.917  16.606 -0.5237 -1.2984 -1.7984
14853TIP3    H265975   3.738   4.830  16.574 -1.8812  0.4813 -1.7214
14854TIP3   OH265976   0.529   4.668   5.266 -0.0527 -0.1975 -0.0991
14854TIP3    H165977   0.487   4.748   5.297  2.9390  1.5957 -0.2773
14854TIP3    H265978   0.524   4.673   5.171 -0.5594 -0.6407 -0.0982
14855TIP3   OH265979   3.120   1.747   5.985  0.2541 -0.6923 -0.1325
14855TIP3    H165980   3.205   1.773   5.950  0.7299 -0.9538  0.7945
14855TIP3    H265981   3.126   1.765   6.079 -1.4587  1.2635 -0.3412
14856TIP3   OH265982   2.648   5.658  10.600 -0.6499 -0.2259 -0.7005
14856TIP3    H165983   2.596   5.688  10.525 -2.6411 -1.3226  0.1468
14856TIP3    H265984   2.661   5.736  10.653 -0.7034  0.2329 -1.3489
14857TIP3   OH265985   1.368   2.863  15.979 -0.3073 -0.3693 -0.2867
14857TIP3    H165986   1.306   2.890  15.911 -0.6128  0.2849  0.2431
14857TIP3    H265987   1.374   2.768  15.969 -1.9357 -0.5510  0.0958
14858TIP3   OH265988   5.993   2.062  12.849 -0.3710  0.3445 -0.1971
14858TIP3    H165989   5.917   2.035  12.901  0.6402 -0.8989  0.7180
14858TIP3    H265990   6.022   2.144  12.889 -1.0959  0.7075 -0.4097
14859TIP3   OH265991   2.673   1.199   1.754  0.3884  0.4527  0.6522
14859TIP3    H165992   2.726   1.233   1.682  0.6686  0.2727  0.7720
14859TIP3    H265993   2.643   1.277   1.801 -1.7048  0.7152 -0.9699
14860TIP3   OH265994   0.840   1.473   0.234 -0.4139  0.2879 -0.4978
14860TIP3    H165995   0.877   1.539   0.175  1.6418  0.7038  1.1183
14860TIP3    H265996   0.881   1.391   0.206 -0.2392  0.3039 -0.2843
14861TIP3   OH265997   0.968   2.392   5.164 -0.4966 -0.3428 -0.3333
14861TIP3    H165998   0.982   2.298   5.150  1.7243 -0.2774  1.0433
14861TIP3    H265999   0.937   2.398   5.255 -0.9673  0.2482 -0.5254
14862TIP3   OH266000   6.111   3.050  15.786  0.5333  0.4686  0.2674
14862TIP3    H166001   6.170   3.114  15.746  0.7387  0.2425  0.2053
14862TIP3    H266002   6.066   3.099  15.855  1.5633  0.3917  1.0199
14863TIP3   OH266003   1.315   5.969   4.285 -0.2889 -0.0344  0.2348
14863TIP3    H166004   1.314   6.036   4.217  0.5465 -0.3389 -0.0858
14863TIP3    H266005   1.240   5.912   4.264  0.4829 -0.6475 -0.9733
14864TIP3   OH266006   2.017   0.260  15.544  0.3999 -0.3048 -0.3266
14864TIP3    H166007   2.013   0.189  15.608 -1.8113 -1.0294 -1.1654
14864TIP3    H266008   1.955   0.326  15.577  1.4964  0.6987 -0.2029
14865TIP3   OH266009   1.516   6.345   5.109  0.0939 -0.3021  0.4801
14865TIP3    H166010   1.595   6.314   5.064 -0.0339 -0.2735  0.2311
14865TIP3    H266011   1.540   6.432   5.143 -0.0276 -0.0142 -0.1486
14866TIP3   OH266012   0.471   4.636   0.246  0.0984 -0.0390  0.0580
14866TIP3    H166013   0.508   4.667   0.328  3.8268  0.6709 -1.6707
14866TIP3    H266014   0.423   4.712   0.212 -2.5264 -0.7032  1.9535
14867TIP3   OH266015   6.109   1.469   5.706  0.0669 -0.0535 -0.1188
14867TIP3    H166016   6.112   1.392   5.762  0.6573  0.4154  0.5054
14867TIP3    H266017   6.015   1.486   5.693 -0.0889  0.1138  1.1184
14868TIP3   OH266018   0.537   2.888  15.717  0.2807 -0.0890 -0.5745
14868TIP3    H166019   0.465   2.899  15.780 -1.4641 -0.1713 -2.4575
14868TIP3    H266020   0.522   2.802  15.679  2.1281 -0.6283 -0.1847
14869TIP3   OH266021   3.849   3.106   3.145 -0.3842  0.2595 -0.0366
14869TIP3    H166022   3.900   3.185   3.129 -1.2060  1.2466  1.8553
14869TIP3    H266023   3.764   3.124   3.104 -0.4661  0.2337  0.1200
14870TIP3   OH266024   5.889   2.264  15.132  0.1847  0.6286 -0.6133
14870TIP3    H166025   5.839   2.297  15.057 -1.5774 -0.3620  0.0507
14870TIP3    H266026   5.911   2.174  15.109 -0.7196  0.1832  0.1829
14871TIP3   OH266027   3.997   2.105   1.682  0.0955 -0.2828 -0.0108
14871TIP3    H166028   4.050   2.034   1.646  0.4207 -1.5672  2.7143
14871TIP3    H266029   3.940   2.062   1.746 -1.4854  1.6111 -0.0571
14872TIP3   OH266030   6.050   1.932   2.589  0.2444 -0.1898 -0.2854
14872TIP3    H166031   5.990   1.879   2.537  0.3568  0.5778 -1.2270
14872TIP3    H266032   6.037   2.021   2.558  1.8133  0.0063 -0.4757
14873TIP3   OH266033   2.054   0.480   5.056  0.1729  0.3984  0.3138
14873TIP3    H166034   2.125   0.533   5.092  0.3697  0.2493  0.1486
14873TIP3    H266035   1.976   0.534   5.068  0.5427  1.2722 -0.9902
14874TIP3   OH266036   2.579   5.389  14.100 -0.2295  0.3665 -0.2240
14874TIP3    H166037   2.519   5.455  14.064 -0.2362 -1.1648 -3.4141
14874TIP3    H266038   2.521   5.327  14.144 -0.4688  1.1367  0.5920
14875TIP3   OH266039   5.607   1.769  12.360 -0.5372 -0.3729 -0.1113
14875TIP3    H166040   5.616   1.775  12.455 -0.3144  1.0056 -0.2056
14875TIP3    H266041   5.539   1.703  12.347  0.2839 -1.4871  0.9622
14876TIP3   OH266042   3.117   6.119   0.470 -0.1272 -0.3469 -0.3746
14876TIP3    H166043   3.144   6.103   0.561  0.3613 -1.3304 -0.6722
14876TIP3    H266044   3.035   6.071   0.462 -1.6548  1.9975  0.3047
14877TIP3   OH266045   1.069   5.552   4.143  0.3355 -0.7314 -0.5639
14877TIP3    H166046   1.123   5.625   4.176  1.5209 -0.6415 -2.5690
14877TIP3    H266047   1.098   5.477   4.194  0.5433 -0.1993  0.1291
14878TIP3   OH266048   2.733   0.322   2.228 -0.3108  0.5302 -0.4432
14878TIP3    H166049   2.807   0.377   2.202 -0.9513  1.1119 -1.0746
14878TIP3    H266050   2.713   0.350   2.317 -1.3747  2.1877 -1.1554
14879TIP3   OH266051   0.115   5.122   6.571 -0.6021  0.2634  0.6897
14879TIP3    H166052   0.073   5.204   6.544 -0.3516  0.5032  1.0107
14879TIP3    H266053   0.111   5.124   6.667  2.8695  1.7963  0.9527
14880TIP3   OH266054   3.551   5.313  12.260  0.1385  0.4406  0.4952
14880TIP3    H166055   3.589   5.310  12.348  0.0447 -4.7271  0.6760
14880TIP3    H266056   3.465   5.353  12.272  0.2981  0.2300  2.6611
14881TIP3   OH266057   4.598   6.412   2.723  0.5131 -0.0619  0.1432
14881TIP3    H166058   4.611   6.444   2.634  0.3385  1.3688  0.6024
14881TIP3    H266059   4.508   6.379   2.724 -0.3983  2.1829  0.3655
14882TIP3   OH266060   2.332   3.624   3.603  0.3336  0.0331  0.4920
14882TIP3    H166061   2.312   3.530   3.606  2.1560 -0.3671  1.9154
14882TIP3    H266062   2.273   3.659   3.536 -0.1400 -2.1845 -0.3385
14883TIP3   OH266063   2.857   6.614  15.391 -0.8866 -0.2935  0.0615
14883TIP3    H166064   2.771   6.583  15.363 -0.4509 -2.0768  0.5439
14883TIP3    H266065   2.917   6.582  15.323 -0.6061  1.0476 -0.3394
14884TIP3   OH266066   5.794   1.875  16.164  0.1410  0.1686  0.5817
14884TIP3    H166067   5.875   1.893  16.212  1.2005 -2.3600 -0.0566
14884TIP3    H266068   5.786   1.947  16.102  2.1760  0.2907  0.3874
14885TIP3   OH266069   0.848   2.591  12.153  0.3945  0.4513  0.1239
14885TIP3    H166070   0.789   2.516  12.145  0.9683 -0.0036  0.1072
14885TIP3    H266071   0.827   2.629  12.238  0.5682 -0.1271  0.4292
14886TIP3   OH266072   5.879   6.476   2.365  0.2414  0.2625 -0.7924
14886TIP3    H166073   5.918   6.542   2.309  0.8422 -0.9361 -1.8510
14886TIP3    H266074   5.927   6.395   2.343 -2.1920 -1.0938 -1.4818
14887TIP3   OH266075   3.153   0.603  11.984 -0.0085 -0.4089 -0.0964
14887TIP3    H166076   3.220   0.536  11.991  0.1516 -0.2478 -0.0902
14887TIP3    H266077   3.109   0.585  11.900  0.3596 -0.2190 -0.3312
14888TIP3   OH266078   5.663   6.709   3.679 -0.5640 -0.4132 -0.1748
14888TIP3    H166079   5.581   6.730   3.724 -0.6634  0.7328 -0.8463
14888TIP3    H266080   5.688   6.791   3.636  0.4421 -1.0066 -0.7524
14889TIP3   OH266081   0.933   3.881   2.025 -0.3680 -0.3007 -0.2297
14889TIP3    H166082   0.936   3.925   1.940 -0.9491 -0.4172 -0.3186
14889TIP3    H266083   0.840   3.860   2.037 -0.6466  1.5300  1.3718
14890TIP3   OH266084   2.172   1.857   0.055 -0.2536 -0.1072  0.2894
14890TIP3    H166085   2.199   1.864  -0.037 -0.1473 -1.1934  0.2300
14890TIP3    H266086   2.087   1.901   0.058 -0.3680 -0.2636 -0.3835
14891TIP3   OH266087   0.371   5.350  12.449  0.0534 -0.1385  0.0146
14891TIP3    H166088   0.323   5.335  12.530 -0.0823  1.2834  0.2095
14891TIP3    H266089   0.463   5.359  12.476 -0.2635  3.0438  0.4337
14892TIP3   OH266090   4.171   0.452  16.005 -0.1079  0.2555 -0.4335
14892TIP3    H166091   4.246   0.444  16.065 -1.6250  0.6017  1.6455
14892TIP3    H266092   4.210   0.472  15.920  2.1631  0.1163  0.5028
14893TIP3   OH266093   3.985   5.990   0.898 -0.8446 -0.3419  0.8219
14893TIP3    H166094   3.969   5.937   0.821 -2.1578  1.1807 -0.0049
14893TIP3    H266095   3.901   5.994   0.944 -0.8833  1.2680  0.6760
14894TIP3   OH266096   3.023   1.856   4.539  0.1093  0.3507 -0.0235
14894TIP3    H166097   2.985   1.771   4.564 -2.4358  1.0609 -1.1568
14894TIP3    H266098   3.099   1.833   4.486  1.2691 -1.1607  2.1454
14895TIP3   OH266099   4.807   0.211  14.863 -1.1761 -0.4752 -0.0153
14895TIP3    H166100   4.889   0.200  14.911 -1.1226 -0.9554 -0.2113
14895TIP3    H266101   4.831   0.195  14.772 -1.9827 -3.2745  0.1967
14896TIP3   OH266102   3.834   1.493  15.344 -0.3263 -0.0546 -0.3214
14896TIP3    H166103   3.795   1.561  15.398  1.5548  2.6935 -2.2009
14896TIP3    H266104   3.926   1.489  15.371 -0.1000 -0.9376 -1.1341
14897TIP3   OH266105   5.358   1.524  15.042 -0.0293 -0.1115  0.2495
14897TIP3    H166106   5.380   1.432  15.054 -1.2698 -0.4005  0.5454
14897TIP3    H266107   5.305   1.546  15.119 -1.5352  0.2328 -0.8277
14898TIP3   OH266108   2.327   2.158   2.202 -0.3666 -0.2431  0.0668
14898TIP3    H166109   2.396   2.094   2.181 -1.0170 -1.2280  0.8275
14898TIP3    H266110   2.270   2.156   2.126 -0.3359 -0.5071  0.0483
14899TIP3   OH266111   5.147   2.016   2.772 -0.0466 -0.3818  0.2219
14899TIP3    H166112   5.143   1.972   2.856 -1.4652  0.4286  0.6312
14899TIP3    H266113   5.170   1.948   2.709 -0.9668 -1.4506  1.0007
14900TIP3   OH266114   5.072   6.230   2.393 -0.2417 -0.7711 -0.1753
14900TIP3    H166115   5.096   6.319   2.368 -1.2306 -1.1911 -2.9689
14900TIP3    H266116   5.078   6.229   2.488  3.9597  1.0441 -0.2031
14901TIP3   OH266117   5.700   3.092  11.377  0.0220 -0.2626  0.0018
14901TIP3    H166118   5.736   3.035  11.309  1.0214 -0.6324  0.8004
14901TIP3    H266119   5.686   3.176  11.334  1.4509 -0.2432 -0.4771
14902TIP3   OH266120   5.731   5.046   6.177  0.2798  0.0082  0.6366
14902TIP3    H166121   5.734   5.140   6.195 -2.1302  0.2724 -0.0356
14902TIP3    H266122   5.653   5.015   6.223  0.0851 -1.3386 -0.5513
14903TIP3   OH266123   2.829   4.316  11.157  0.0506  0.4470 -0.1165
14903TIP3    H166124   2.765   4.246  11.170  0.5676  0.0513  0.3536
14903TIP3    H266125   2.884   4.284  11.085 -0.0538  0.6221 -0.2744
14904TIP3   OH266126   6.160   0.904   6.581 -0.4260 -0.1686 -0.1305
14904TIP3    H166127   6.079   0.880   6.625  0.6692  1.1450  2.7981
14904TIP3    H266128   6.229   0.867   6.636  1.0509 -0.7936 -2.2601
14905TIP3   OH266129   3.811   2.896   2.748 -0.1170  0.5099  0.0396
14905TIP3    H166130   3.774   2.847   2.674 -0.1322 -0.3158  0.5746
14905TIP3    H266131   3.902   2.866   2.752  0.1798  1.3477 -0.2921
14906TIP3   OH266132   3.053   5.274   3.932 -0.1885  0.1772 -0.2838
14906TIP3    H166133   3.099   5.256   4.015 -0.6581 -0.3488 -0.1354
14906TIP3    H266134   3.064   5.369   3.920  3.8323 -0.2874 -1.9565
14907TIP3   OH266135   0.829   5.675  15.829 -0.0994 -0.3081 -0.1423
14907TIP3    H166136   0.810   5.629  15.911 -1.2414 -0.3358 -0.4108
14907TIP3    H266137   0.924   5.688  15.831  0.0707 -1.4939  0.5591
14908TIP3   OH266138   3.040   2.546  13.456 -0.2605 -0.4735 -0.1904
14908TIP3    H166139   3.059   2.611  13.388  1.7603  0.2911  1.0487
14908TIP3    H266140   2.952   2.569  13.486 -0.5447  0.1577 -1.4328
14909TIP3   OH266141   2.247   2.222   0.837 -0.2930  0.0940 -0.4078
14909TIP3    H166142   2.266   2.224   0.743 -0.9250 -0.0233 -0.5390
14909TIP3    H266143   2.329   2.250   0.878  0.7637 -2.1217 -0.8713
14910TIP3   OH266144   1.936   5.714   2.028  0.4940 -0.0462 -0.4661
14910TIP3    H166145   1.940   5.622   2.002  0.6327 -0.1143 -0.2132
14910TIP3    H266146   1.916   5.711   2.122 -3.2761  0.2395 -1.1304
14911TIP3   OH266147   6.460   4.936  13.710 -0.5927 -0.4600  0.2673
14911TIP3    H166148   6.480   4.867  13.774 -0.1534 -1.0506 -0.4931
14911TIP3    H266149   6.460   5.017  13.762  1.2247 -0.7367  0.7828
14912TIP3   OH266150   5.967   1.927  12.162 -0.7728 -0.4604 -0.0320
14912TIP3    H166151   5.964   1.849  12.218 -2.4282 -0.0101  0.5783
14912TIP3    H266152   5.888   1.921  12.109  0.8973 -1.0176 -2.6227
14913TIP3   OH266153   3.117   4.264  13.787 -0.1705 -0.2891 -0.4173
14913TIP3    H166154   3.170   4.184  13.790  0.2646 -0.0702 -1.7781
14913TIP3    H266155   3.038   4.241  13.836  0.4567 -1.1585  0.2280
14914TIP3   OH266156   5.355   0.083  13.329 -0.0797 -0.4811  0.2805
14914TIP3    H166157   5.287   0.114  13.269  0.4718  0.4028  0.0987
14914TIP3    H266158   5.307   0.046  13.402 -0.8299  2.2453  1.2852
14915TIP3   OH266159   6.481   5.526  12.343  0.2393  0.2163  0.2231
14915TIP3    H166160   6.438   5.477  12.272 -1.0376  0.4295  0.8114
14915TIP3    H266161   6.455   5.617  12.327 -0.1100  0.2584  0.9802
14916TIP3   OH266162   4.732   4.538  12.894  0.1747  0.4480  0.6315
14916TIP3    H166163   4.680   4.465  12.859 -0.0482  0.2071  1.4471
14916TIP3    H266164   4.822   4.518  12.868  0.5196 -1.4648  2.9452
14917TIP3   OH266165   2.229   1.430  12.151  0.0189  0.2103  0.0021
14917TIP3    H166166   2.168   1.357  12.145  0.1324  0.1953 -1.4011
14917TIP3    H266167   2.292   1.414  12.080  1.7938  0.1074  1.5234
14918TIP3   OH266168   2.662   2.796  13.751  0.0674 -0.3157  0.0810
14918TIP3    H166169   2.745   2.793  13.798 -0.8881  0.7570  1.9008
14918TIP3    H266170   2.688   2.808  13.659  1.8909  0.8463  0.6940
14919TIP3   OH266171   3.499   3.504  15.033  0.0238  0.2039 -0.3099
14919TIP3    H166172   3.508   3.557  14.953 -1.5298 -0.6889 -1.1463
14919TIP3    H266173   3.582   3.458  15.041  0.7688  1.4636 -0.5345
14920TIP3   OH266174   4.124   2.992  12.743  0.4573 -0.0533 -0.4584
14920TIP3    H166175   4.207   2.971  12.784  0.7872  2.4331  0.3107
14920TIP3    H266176   4.147   3.054  12.673 -0.7138  0.4632 -0.4081
14921TIP3   OH266177   1.714   6.554  14.728 -0.2822  0.0911  0.6307
14921TIP3    H166178   1.685   6.466  14.703 -1.3518 -0.7070  4.1662
14921TIP3    H266179   1.649   6.583  14.792  0.9526  2.8054  0.7820
14922TIP3   OH266180   0.275   0.187  16.591 -0.1858 -0.3192  0.0852
14922TIP3    H166181   0.181   0.193  16.576 -0.1313  0.8801  0.1460
14922TIP3    H266182   0.296   0.264  16.645  0.7679 -0.7631  0.3663
14923TIP3   OH266183   1.563   6.683  16.312  0.0790  0.2551  0.7853
14923TIP3    H166184   1.566   6.591  16.288 -1.1189  0.1905  0.7890
14923TIP3    H266185   1.544   6.728  16.229 -0.9538  0.3240  1.0392
14924TIP3   OH266186   0.519   0.270   3.943  0.4763 -0.6185  0.0004
14924TIP3    H166187   0.455   0.331   3.905 -0.2692 -0.6093  1.2202
14924TIP3    H266188   0.541   0.308   4.028  3.3525  0.2019 -1.0121
14925TIP3   OH266189   5.061   2.325   1.544 -0.0303  0.5556 -0.3242
14925TIP3    H166190   5.001   2.394   1.517  0.1848  1.4193  1.2920
14925TIP3    H266191   5.047   2.316   1.639 -0.9976 -2.5405 -0.6523
14926TIP3   OH266192   1.159   3.304   4.209 -0.9605 -0.5651  0.4234
14926TIP3    H166193   1.206   3.227   4.240 -1.2242 -0.6586  0.6005
14926TIP3    H266194   1.155   3.293   4.114 -0.9271 -0.7285  0.4403
14927TIP3   OH266195   4.567   1.509  16.517 -0.3233 -0.3349 -0.2895
14927TIP3    H166196   4.594   1.459  16.440 -0.5222  0.4227 -0.8593
14927TIP3    H266197   4.643   1.506  16.575  0.1768 -0.1267 -0.9172
14928TIP3   OH266198   4.997   4.102   4.020  0.1005  0.0088  0.4960
14928TIP3    H166199   4.907   4.120   4.045 -0.4387 -0.3598 -1.0453
14928TIP3    H266200   5.039   4.188   4.020 -1.0973  0.7029 -1.7462
14929TIP3   OH266201   0.865   6.414   4.797  0.5369  0.0004 -0.0672
14929TIP3    H166202   0.827   6.362   4.868  0.0639  0.1867 -0.1754
14929TIP3    H266203   0.878   6.501   4.836 -0.5895  0.3667 -0.4508
14930TIP3   OH266204   6.572   2.098   2.031  0.7838 -0.3379 -0.0405
14930TIP3    H166205   6.541   2.010   2.009 -0.7525  0.2754 -0.4516
14930TIP3    H266206   6.635   2.119   1.963  0.3389 -0.7025 -0.5696
14931TIP3   OH266207   6.602   5.362   0.778  0.3043 -0.2989  0.2377
14931TIP3    H166208   6.611   5.272   0.807  0.8532  0.5061  2.8459
14931TIP3    H266209   6.508   5.374   0.762  0.0785 -1.0070  1.0293
14932TIP3   OH266210   6.608   1.711  10.972 -0.1306 -0.4304 -1.2014
14932TIP3    H166211   6.552   1.781  11.005 -0.1238 -0.1574 -1.7736
14932TIP3    H266212   6.591   1.638  11.032  0.3378  0.2417 -0.2133
14933TIP3   OH266213   6.206   1.594  12.301  0.3932  0.2927 -0.6902
14933TIP3    H166214   6.252   1.677  12.293 -0.7156  1.3914  2.6002
14933TIP3    H266215   6.271   1.528  12.275  2.3548  2.0041 -0.3939
14934TIP3   OH266216   0.545   4.252  13.184 -0.3062 -0.7423  0.3795
14934TIP3    H166217   0.569   4.314  13.253 -2.5794 -0.0572  0.6281
14934TIP3    H266218   0.628   4.209  13.160  0.9767  0.9262  1.6180
14935TIP3   OH266219   3.302   1.426  13.775  0.1601  0.1086  0.1982
14935TIP3    H166220   3.239   1.354  13.783 -0.4238  0.6470  0.5407
14935TIP3    H266221   3.382   1.384  13.745  0.0961 -0.8308  1.2682
14936TIP3   OH266222   4.802   4.870   6.560  0.3514 -0.0539 -0.3635
14936TIP3    H166223   4.858   4.821   6.620 -0.6731 -0.0314  0.6486
14936TIP3    H266224   4.713   4.853   6.591 -0.0522  3.1643  0.6693
14937TIP3   OH266225   4.631   3.217  12.915  0.0099  0.1416  0.4147
14937TIP3    H166226   4.569   3.228  12.843 -0.9822  2.2625  1.4883
14937TIP3    H266227   4.696   3.286  12.901  2.9804 -2.7172 -1.3342
14938TIP3   OH266228   0.738   5.603  13.397 -0.0980  0.2409 -0.1092
14938TIP3    H166229   0.775   5.531  13.345 -0.8017 -0.2582  0.0667
14938TIP3    H266230   0.787   5.680  13.369  2.2042 -0.6128  1.2612
14939TIP3   OH266231   2.478   1.765   1.536 -0.3410  0.5498 -0.0752
14939TIP3    H166232   2.412   1.698   1.519  1.0361 -0.9803  0.3564
14939TIP3    H266233   2.480   1.817   1.456 -2.0052  0.6113 -0.1196
14940TIP3   OH266234   0.911   5.566   2.928  0.6076  0.1672 -0.2103
14940TIP3    H166235   0.846   5.514   2.976  0.7047 -1.1436 -1.4302
14940TIP3    H266236   0.945   5.506   2.861  2.3526  1.1340 -0.2446
14941TIP3   OH266237   2.771   0.166   6.091  0.0929 -0.4515  0.7118
14941TIP3    H166238   2.853   0.185   6.137  0.0255  0.2274  0.5630
14941TIP3    H266239   2.797   0.155   5.999  0.1062 -0.9010  0.7692
14942TIP3   OH266240   5.493   6.142  13.713  0.1349 -0.0571 -0.4549
14942TIP3    H166241   5.555   6.151  13.785  0.9446 -1.1875 -0.9800
14942TIP3    H266242   5.547   6.119  13.637 -0.9762 -1.9690 -0.7432
14943TIP3   OH266243   6.670   4.520   6.213 -0.2452 -0.2766  0.0858
14943TIP3    H166244   6.630   4.482   6.134 -0.1613  1.5668 -0.9004
14943TIP3    H266245   6.596   4.538   6.271 -1.3369  4.4702 -2.3035
14944TIP3   OH266246   2.373   5.505  14.579  0.3463 -0.8178 -0.0456
14944TIP3    H166247   2.388   5.411  14.573  3.2502 -0.5307  0.7482
14944TIP3    H266248   2.429   5.543  14.511 -0.6542  0.3598 -0.2535
14945TIP3   OH266249   6.364   4.013  13.187  0.1872  0.7858 -0.1053
14945TIP3    H166250   6.305   3.940  13.173 -0.1486  0.7894  1.1709
14945TIP3    H266251   6.401   4.031  13.101 -0.5352 -0.1836 -0.6345
14946TIP3   OH266252   0.227   0.833   1.146 -0.2266  0.1501 -0.3246
14946TIP3    H166253   0.304   0.875   1.183  0.7167  0.3441 -2.3758
14946TIP3    H266254   0.223   0.864   1.056 -3.2826  0.9152 -0.0549
14947TIP3   OH266255   4.273   3.869   3.045  0.6630  0.2956 -0.2122
14947TIP3    H166256   4.194   3.896   2.998  0.7256  0.3321 -0.2955
14947TIP3    H266257   4.269   3.773   3.044  1.4107  0.2563 -1.5628
14948TIP3   OH266258   1.090   4.660  12.164  0.1576 -0.2914 -0.5064
14948TIP3    H166259   1.097   4.629  12.074  2.2926 -2.3260  0.2706
14948TIP3    H266260   1.042   4.591  12.210  0.3476  0.0314  0.1928
14949TIP3   OH266261   1.438   0.915  10.756  0.3426 -0.0409 -0.8286
14949TIP3    H166262   1.352   0.889  10.790  0.1809 -0.9486 -1.8717
14949TIP3    H266263   1.459   0.995  10.803 -0.4997 -0.4924  0.3657
14950TIP3   OH266264   3.659   2.274  11.070  0.2433 -0.0425  0.6204
14950TIP3    H166265   3.653   2.196  11.126  2.1322 -0.4631  0.3109
14950TIP3    H266266   3.713   2.335  11.121  0.7383  0.1399 -0.1073
14951TIP3   OH266267   3.600   5.121   4.407 -0.1533 -0.5073 -0.0464
14951TIP3    H166268   3.592   5.216   4.406  0.5352 -0.4454 -0.0642
14951TIP3    H266269   3.550   5.093   4.484  0.7204 -0.0240  0.7175
14952TIP3   OH266270   6.345   6.370   3.272 -0.8877  0.3755  0.5723
14952TIP3    H166271   6.380   6.395   3.358  2.3495 -0.0485 -0.5059
14952TIP3    H266272   6.325   6.453   3.229  0.2195  0.7380  0.7204
14953TIP3   OH266273   4.876   0.489   2.339  0.0920  0.0776 -0.2273
14953TIP3    H166274   4.916   0.429   2.402  0.0561 -1.1808 -1.3577
14953TIP3    H266275   4.783   0.464   2.338 -0.1449  0.9184  0.1166
14954TIP3   OH266276   2.397   1.861  16.341 -0.3317  0.1145  0.1950
14954TIP3    H166277   2.443   1.938  16.310 -1.0684  0.2245 -0.6671
14954TIP3    H266278   2.327   1.847  16.277  0.0298 -1.4945  0.1078
14955TIP3   OH266279   6.550   2.403   2.328 -0.6232  0.1465  0.5908
14955TIP3    H166280   6.472   2.355   2.356 -0.0825  0.3218  2.5229
14955TIP3    H266281   6.623   2.344   2.346 -0.0691  1.1134  1.6603
14956TIP3   OH266282   0.588   3.831   0.687 -0.0852 -0.9274 -0.3677
14956TIP3    H166283   0.580   3.903   0.750  0.7447 -1.3556  0.2421
14956TIP3    H266284   0.553   3.867   0.605 -0.6270 -0.1701  0.1832
14957TIP3   OH266285   2.399   6.786   2.379  0.1647 -0.4995 -0.1895
14957TIP3    H166286   2.461   6.812   2.447 -0.0551 -3.7756  1.5052
14957TIP3    H266287   2.453   6.776   2.300  0.5832  2.5331 -0.4053
14958TIP3   OH266288   1.537   4.183   3.867 -0.1507  0.6066  0.3414
14958TIP3    H166289   1.528   4.207   3.774 -0.2339  1.0663  0.4672
14958TIP3    H266290   1.562   4.264   3.911  1.6076  0.0326  0.4788
14959TIP3   OH266291   5.764   3.293  11.169 -0.3912  0.0804 -0.9001
14959TIP3    H166292   5.857   3.306  11.187 -0.1727 -1.5184 -0.7250
14959TIP3    H266293   5.762   3.257  11.080 -0.6389 -2.0603 -0.0672
14960TIP3   OH266294   5.423   2.141  10.995 -0.0453 -0.0807 -0.0920
14960TIP3    H166295   5.404   2.064  10.942  0.2762  0.1367 -0.5301
14960TIP3    H266296   5.465   2.202  10.934  1.0908 -0.1461  0.6022
14961TIP3   OH266297   5.406   0.674   5.833  0.2941  0.4407 -0.3949
14961TIP3    H166298   5.404   0.578   5.832  0.5131  0.4403 -0.8414
14961TIP3    H266299   5.380   0.697   5.922  0.6649 -0.0418 -0.1579
14962TIP3   OH266300   1.563   1.351   5.981 -0.1271  0.0007 -0.2447
14962TIP3    H166301   1.560   1.256   5.993 -0.5892  0.1324  0.8004
14962TIP3    H266302   1.476   1.374   5.948 -0.9528  0.3419  1.9960
14963TIP3   OH266303   1.503   6.423  16.279  0.3695  0.0048  0.4176
14963TIP3    H166304   1.452   6.350  16.316 -0.4734  1.5284  2.4470
14963TIP3    H266305   1.442   6.468  16.221 -0.2503  1.1038  1.8842
14964TIP3   OH266306   0.619   4.452   1.545 -0.1971  0.0731 -0.6122
14964TIP3    H166307   0.657   4.449   1.457  3.2343 -0.7880  0.7448
14964TIP3    H266308   0.607   4.545   1.562 -0.2106  0.2873 -1.6846
14965TIP3   OH266309   4.684   5.896   5.356  0.6893  0.1266 -0.0213
14965TIP3    H166310   4.737   5.828   5.398 -1.3511 -0.3026  2.0792
14965TIP3    H266311   4.595   5.879   5.387 -0.3481  2.0522 -1.7486
14966TIP3   OH266312   3.471   3.603   4.677 -0.7605 -0.2575  0.4466
14966TIP3    H166313   3.496   3.592   4.768 -0.6129 -0.2352  0.4085
14966TIP3    H266314   3.543   3.652   4.637 -1.1152  0.2888  0.4643
14967TIP3   OH266315   3.027   3.668  11.442  0.1433 -0.0968 -0.0592
14967TIP3    H166316   3.089   3.729  11.402 -0.0184 -0.1460 -0.3853
14967TIP3    H266317   2.965   3.725  11.489 -0.5605  0.0528 -1.1387
14968TIP3   OH266318   2.993   4.861  14.933 -0.4268 -0.7319  0.3040
14968TIP3    H166319   2.907   4.836  14.968 -1.5570  1.3963 -0.7620
14968TIP3    H266320   2.973   4.911  14.854  1.9108 -2.1027 -1.2867
14969TIP3   OH266321   5.901   4.897  16.338 -0.2250 -0.1408 -0.2566
14969TIP3    H166322   5.828   4.918  16.280  0.1708 -0.4299 -0.8795
14969TIP3    H266323   5.899   4.802  16.345 -1.2946 -0.0129  1.5894
14970TIP3   OH266324   3.437   6.288   0.665 -0.3677  0.0763 -0.5575
14970TIP3    H166325   3.431   6.375   0.626  0.8024  1.4831  2.1144
14970TIP3    H266326   3.475   6.233   0.597  1.7012  2.3960 -1.4151
14971TIP3   OH266327   3.248   6.781   3.431 -0.2685  0.5557 -0.3493
14971TIP3    H166328   3.297   6.781   3.349  3.1186  3.4671  1.3745
14971TIP3    H266329   3.202   6.865   3.431 -0.8755  0.2337  0.4041
14972TIP3   OH266330   0.423   2.331  16.602 -0.0182 -0.0540 -0.4139
14972TIP3    H166331   0.338   2.358  16.566  0.4857  0.9703 -0.8676
14972TIP3    H266332   0.465   2.412  16.629  1.3111 -0.4076 -1.2827
14973TIP3   OH266333   1.798   3.861  16.294  0.6529  0.5124 -0.1902
14973TIP3    H166334   1.707   3.879  16.273  0.7438  0.0125 -1.0150
14973TIP3    H266335   1.794   3.802  16.370  0.2932  0.2786 -0.3931
14974TIP3   OH266336   2.051   4.212   3.352 -0.3667 -0.6226 -0.2058
14974TIP3    H166337   2.036   4.118   3.357  1.4139 -0.9133  0.4197
14974TIP3    H266338   2.145   4.222   3.367  0.0654  1.0213 -3.2024
14975TIP3   OH266339   4.867   4.595   3.394  0.6839  0.9310  0.7334
14975TIP3    H166340   4.912   4.633   3.470 -1.8741 -0.6191  3.2620
14975TIP3    H266341   4.891   4.503   3.396 -1.3348  0.3550  1.3182
14976TIP3   OH266342   2.347   2.950  15.343 -0.3467  0.1344 -0.1852
14976TIP3    H166343   2.366   2.859  15.365 -1.8882 -0.1971 -0.0527
14976TIP3    H266344   2.426   2.982  15.300  0.2937 -1.2030 -0.0617
14977TIP3   OH266345   6.586   0.812  13.191  0.2321 -0.1343 -0.6847
14977TIP3    H166346   6.681   0.800  13.192  0.3923  0.6799  2.0503
14977TIP3    H266347   6.554   0.755  13.261 -1.2975 -0.2911 -1.4727
14978TIP3   OH266348   0.799   1.041   5.081 -0.0339 -0.3635 -0.2731
14978TIP3    H166349   0.770   1.122   5.039 -2.0474 -0.9694 -0.1205
14978TIP3    H266350   0.835   0.988   5.010 -0.0939  0.0633 -0.6234
14979TIP3   OH266351   3.587   1.382   4.601 -0.1788 -0.6171  0.2965
14979TIP3    H166352   3.635   1.322   4.543  1.9322 -0.3177  1.6072
14979TIP3    H266353   3.550   1.325   4.669 -0.8801 -0.7445 -0.1831
14980TIP3   OH266354   5.358   6.249  14.390 -0.4608  0.7058 -0.2919
14980TIP3    H166355   5.318   6.329  14.424  0.6933  0.7027  1.1772
14980TIP3    H266356   5.446   6.276  14.363 -0.6687  0.2773 -1.4297
14981TIP3   OH266357   3.768   6.751  11.028  0.6599  0.6593  0.1957
14981TIP3    H166358   3.719   6.703  10.961 -1.2357  1.7006  0.7743
14981TIP3    H266359   3.793   6.684  11.092 -0.5066  0.1850  0.1726
14982TIP3   OH266360   4.776   1.829  14.394  0.0257 -0.4102  0.0093
14982TIP3    H166361   4.688   1.815  14.429  0.3413 -0.5532  0.7673
14982TIP3    H266362   4.800   1.745  14.353  1.4089 -1.8491  3.4121
14983TIP3   OH266363   0.208   5.942   1.561 -0.1586 -0.1284 -0.4495
14983TIP3    H166364   0.229   6.010   1.625  0.5920 -0.6616 -0.1113
14983TIP3    H266365   0.263   5.868   1.587 -0.2357 -0.5285 -1.3990
14984TIP3   OH266366   1.946   4.004   3.874 -0.5251 -0.5799 -0.3201
14984TIP3    H166367   2.005   3.960   3.935 -1.6099 -0.9723  0.4782
14984TIP3    H266368   1.891   3.934   3.839 -2.2113  0.0743  0.8958
14985TIP3   OH266369   5.937   3.197  15.490 -0.3060 -0.4809 -0.5549
14985TIP3    H166370   5.929   3.118  15.542  0.0349  1.9166  3.5456
14985TIP3    H266371   5.858   3.247  15.509  0.6164  1.2355 -0.9979
14986TIP3   OH266372   4.181   6.271   5.375  0.0389  0.1367  0.2959
14986TIP3    H166373   4.183   6.329   5.299 -1.2058  0.8320  0.7645
14986TIP3    H266374   4.152   6.187   5.340  0.2261  0.2469 -0.1267
14987TIP3   OH266375   6.545   3.361  16.034  0.5855 -0.6891 -0.0442
14987TIP3    H166376   6.636   3.382  16.056  0.2902  0.2537  0.3386
14987TIP3    H266377   6.532   3.272  16.067  0.7614 -0.0522  1.8887
14988TIP3   OH266378   0.323   1.170   4.200  0.9520  0.0294  0.3922
14988TIP3    H166379   0.285   1.129   4.122  2.2832  1.1831 -0.9010
14988TIP3    H266380   0.361   1.098   4.249 -0.9068 -0.8693  0.6210
14989TIP3   OH266381   2.481   2.931  11.846  0.6289  0.7385  0.3392
14989TIP3    H166382   2.527   2.914  11.764  1.7281  2.8371  0.4326
14989TIP3    H266383   2.392   2.956  11.819  0.6447  0.2989 -0.1279
14990TIP3   OH266384   2.918   2.923  14.795 -0.2455  0.1239  0.1526
14990TIP3    H166385   2.878   2.880  14.719 -0.0926  0.3745 -0.0691
14990TIP3    H266386   2.848   2.973  14.835 -1.3328 -2.7653  2.2781
14991TIP3   OH266387   4.558   5.663   0.189 -0.3384  0.0854  0.1226
14991TIP3    H166388   4.646   5.662   0.153 -0.5827 -2.5705 -0.5503
14991TIP3    H266389   4.571   5.683   0.282  1.1843 -1.9421  0.4108
14992TIP3   OH266390   5.590   6.149  16.261  0.5960  0.1916 -0.1535
14992TIP3    H166391   5.685   6.155  16.253  0.5740 -0.2731 -0.8033
14992TIP3    H266392   5.567   6.065  16.221 -0.1991  0.7690 -0.9410
14993TIP3   OH266393   0.876   6.528   1.675 -0.4073  0.5520 -0.5919
14993TIP3    H166394   0.927   6.499   1.599 -1.1153  1.5742 -1.5010
14993TIP3    H266395   0.899   6.467   1.745  0.4969 -0.2375 -1.5465
14994TIP3   OH266396   0.855   4.665   1.883 -0.1745 -0.5896 -0.4131
14994TIP3    H166397   0.762   4.657   1.904 -0.1034 -1.8416 -0.5167
14994TIP3    H266398   0.868   4.759   1.870 -1.2245 -0.2945  0.4801
14995TIP3   OH266399   4.712   5.757  14.929 -0.3465  0.2017  0.0248
14995TIP3    H166400   4.668   5.842  14.927  0.2881  0.5692 -2.4776
14995TIP3    H266401   4.793   5.771  14.881  0.4717 -1.4991  0.8132
14996TIP3   OH266402   2.327   1.086  12.711 -0.0993 -0.6638 -0.1773
14996TIP3    H166403   2.310   1.152  12.778  0.9751 -0.3314 -0.2089
14996TIP3    H266404   2.330   1.134  12.629 -0.3863 -0.9179 -0.3404
14997TIP3   OH266405   3.027   5.834  16.516 -0.3654  0.6316 -0.1187
14997TIP3    H166406   3.092   5.900  16.538  1.6376 -1.2718 -0.0024
14997TIP3    H266407   2.990   5.808  16.600  1.1751 -0.6245  0.2100
14998TIP3   OH266408   1.153   0.644   0.627 -0.0104 -0.3503  0.2581
14998TIP3    H166409   1.134   0.626   0.535 -0.2522 -0.0245  0.2471
14998TIP3    H266410   1.144   0.738   0.636 -2.4074 -0.6068  1.1625
14999TIP3   OH266411   3.251   1.247   4.995 -0.2286  0.3533 -0.6474
14999TIP3    H166412   3.277   1.237   5.087 -2.4244  2.1513  0.2714
14999TIP3    H266413   3.216   1.162   4.970  0.6936 -0.2549  0.0521
15000TIP3   OH266414   3.272   0.215  11.356 -0.6119  0.5979 -0.3176
15000TIP3    H166415   3.240   0.153  11.291 -1.0623  0.6058 -0.1033
15000TIP3    H266416   3.356   0.179  11.384 -1.5878 -0.7934  0.9866
15001TIP3   OH266417   3.676   5.279  11.052  0.0686  0.2426  0.5620
15001TIP3    H166418   3.658   5.372  11.033  0.1571  0.8726  3.1399
15001TIP3    H266419   3.592   5.236  11.038  0.4822  0.2491 -2.6516
15002TIP3   OH266420   0.196   5.949  13.501  0.1566 -0.0736 -0.4759
15002TIP3    H166421   0.209   5.856  13.519 -0.8233 -0.1150  0.1373
15002TIP3    H266422   0.230   5.994  13.579  0.3481  0.0660 -0.6378
15003TIP3   OH266423   4.403   0.707   2.093  0.0464 -0.2878  0.1847
15003TIP3    H166424   4.308   0.715   2.103  0.2153  1.6500  0.5054
15003TIP3    H266425   4.417   0.613   2.083 -2.1021 -0.4730 -2.0528
15004TIP3   OH266426   6.690   4.198  12.792  0.2131  0.1156 -0.2053
15004TIP3    H166427   6.675   4.104  12.782 -2.1356  0.4814 -1.0124
15004TIP3    H266428   6.781   4.211  12.767  1.3892 -2.2204  2.3875
15005TIP3   OH266429   3.933   3.512   2.093  0.3179  0.1232  0.0325
15005TIP3    H166430   3.959   3.427   2.057  0.9494  0.1984  0.2975
15005TIP3    H266431   3.851   3.533   2.047  0.8610  0.0015 -1.0217
15006TIP3   OH266432   5.833   0.972   5.353 -0.6687 -0.1590  0.2221
15006TIP3    H166433   5.852   0.880   5.374  1.5081 -0.6207 -2.9363
15006TIP3    H266434   5.893   1.022   5.407  0.9807 -0.9317 -0.7868
15007TIP3   OH266435   4.651   0.317   1.273  0.3792 -0.1085  0.5281
15007TIP3    H166436   4.581   0.253   1.262  0.2897 -0.1131  1.0771
15007TIP3    H266437   4.728   0.266   1.297  0.1429  0.0200  1.6627
15008TIP3   OH266438   6.724   1.905  12.850  0.5969  0.4590  0.4677
15008TIP3    H166439   6.782   1.979  12.834  1.2815 -0.4881 -1.9338
15008TIP3    H266440   6.641   1.931  12.808  0.7919 -0.0405 -0.2472
15009TIP3   OH266441   0.943   1.679  13.137  0.1190 -0.2794 -0.0116
15009TIP3    H166442   0.999   1.756  13.145 -0.0488 -0.1387 -0.1817
15009TIP3    H266443   0.879   1.687  13.207  1.2682 -1.2542  1.1945
15010TIP3   OH266444   3.430   6.224  15.550 -0.1892 -0.4666 -0.5802
15010TIP3    H166445   3.503   6.262  15.599 -0.8747 -0.6369  0.6180
15010TIP3    H266446   3.378   6.300  15.524 -0.9063 -0.4730  0.7551
15011TIP3   OH266447   5.221   4.514   1.710  0.1530 -0.8123  0.0817
15011TIP3    H166448   5.275   4.463   1.649  0.6174 -1.7051  1.1991
15011TIP3    H266449   5.282   4.541   1.779 -0.1201  1.1395 -0.3830
15012TIP3   OH266450   3.067   3.676  13.237 -0.3930  0.2152  0.4026
15012TIP3    H166451   2.981   3.712  13.260 -0.3488  0.5384  0.0701
15012TIP3    H266452   3.050   3.627  13.156  0.1782  2.2832 -1.0649
15013TIP3   OH266453   1.945   6.473  12.919  0.0658 -0.0475 -0.0221
15013TIP3    H166454   1.954   6.561  12.955  0.4972  0.0887 -0.4521
15013TIP3    H266455   1.852   6.464  12.897  0.1201  0.4908 -0.4719
15014TIP3   OH266456   2.372   6.727  14.163  0.7477  0.6005 -0.1629
15014TIP3    H166457   2.314   6.723  14.088 -0.4257 -0.5471  0.7553
15014TIP3    H266458   2.334   6.793  14.221  0.1430 -0.3341  0.5572
15015TIP3   OH266459   2.876   3.886  11.165  0.2727  0.2570 -0.2124
15015TIP3    H166460   2.912   3.965  11.123  0.4623 -0.2784 -1.0645
15015TIP3    H266461   2.948   3.823  11.163 -0.7477 -0.9560 -2.2463
15016TIP3   OH266462   3.746   6.453   1.412  0.3665  0.1409 -0.1417
15016TIP3    H166463   3.826   6.449   1.361  0.9935  3.8803  0.2446
15016TIP3    H266464   3.677   6.472   1.348  0.0201 -1.3452 -0.2533
15017TIP3   OH266465   3.967   5.475  15.139 -0.5694  0.7065  0.1139
15017TIP3    H166466   4.023   5.399  15.157  1.0626  1.2223 -2.2811
15017TIP3    H266467   3.908   5.445  15.069  2.0535  2.2974 -3.0387
15018TIP3   OH266468   1.002   2.126   5.404 -0.1795 -0.1046  0.0786
15018TIP3    H166469   0.939   2.132   5.476  0.2945  1.8922  0.3821
15018TIP3    H266470   1.012   2.032   5.389 -2.6519 -0.5104  0.5166
15019TIP3   OH266471   4.626   3.025  13.565  0.5522  0.4797  0.0049
15019TIP3    H166472   4.538   3.031  13.527 -0.0029 -0.1663  1.1103
15019TIP3    H266473   4.685   3.051  13.495 -0.4385 -0.2928 -1.1674
15020TIP3   OH266474   4.202   1.231  10.606 -0.4064 -0.6735  0.0039
15020TIP3    H166475   4.200   1.290  10.682  1.0227  0.0597 -0.5021
15020TIP3    H266476   4.110   1.224  10.580 -0.8120 -0.1261  1.1759
15021TIP3   OH266477   2.382   2.837  12.492  0.0977 -0.5976  0.2362
15021TIP3    H166478   2.313   2.817  12.429 -0.4903 -1.0115  0.9877
15021TIP3    H266479   2.363   2.926  12.521 -0.1229 -0.7087  0.4371
15022TIP3   OH266480   6.623   1.247   1.480  0.3430 -0.0058 -0.2175
15022TIP3    H166481   6.580   1.202   1.407 -1.6848  1.1727  0.1778
15022TIP3    H266482   6.661   1.176   1.533  0.2694 -0.9924 -1.4499
15023TIP3   OH266483   5.430   2.655  14.655 -0.4041 -0.4034  0.6119
15023TIP3    H166484   5.373   2.704  14.596 -1.0525 -2.7621 -0.8512
15023TIP3    H266485   5.374   2.588  14.693  0.9351 -1.5627  0.6429
15024TIP3   OH266486   3.585   2.243   1.132  0.1664 -0.0999  0.0033
15024TIP3    H166487   3.594   2.262   1.039 -0.1509  0.7579  0.1442
15024TIP3    H266488   3.633   2.161   1.144  1.2180  0.3920 -0.6962
15025TIP3   OH266489   1.234   3.459  11.295 -0.2771 -0.0012 -0.6561
15025TIP3    H166490   1.213   3.452  11.202 -1.9973 -3.4982 -0.1699
15025TIP3    H266491   1.151   3.482  11.337 -0.1504 -1.0834  0.2161
15026TIP3   OH266492   1.953   2.362  17.107 -0.0815  0.5591 -0.0874
15026TIP3    H166493   1.964   2.332  17.197  1.6584 -1.0950 -0.7642
15026TIP3    H266494   1.859   2.363  17.093 -0.3305 -1.1835  1.1478
15027TIP3   OH266495   4.673   0.404  13.066  0.0751 -0.4659 -0.3192
15027TIP3    H166496   4.700   0.321  13.025 -0.0929  0.0242 -1.4806
15027TIP3    H266497   4.754   0.440  13.102  0.1828 -1.0393  0.0242
15028TIP3   OH266498   2.129   1.225  14.661 -0.6571 -0.3083  0.1431
15028TIP3    H166499   2.188   1.299  14.648 -0.3794 -0.4986  0.2799
15028TIP3    H266500   2.184   1.148  14.643 -0.2734 -0.5889  2.2199
15029TIP3   OH266501   6.478   1.875   0.713  0.0364 -0.2566  0.3661
15029TIP3    H166502   6.455   1.906   0.625 -0.1410  0.0725  0.5260
15029TIP3    H266503   6.573   1.881   0.717 -0.0415  1.0383  0.6702
15030TIP3   OH266504   5.080   4.641  13.829  0.2274  0.5986  0.4400
15030TIP3    H166505   5.011   4.574  13.827 -1.9712  2.7049 -1.8117
15030TIP3    H266506   5.157   4.597  13.795 -0.0376 -1.6986  2.4971
15031TIP3   OH266507   0.352   0.583  12.499 -0.0561 -0.0001 -0.1732
15031TIP3    H166508   0.304   0.664  12.480 -0.4931 -0.1195  0.3876
15031TIP3    H266509   0.441   0.612  12.520  0.7273  0.0781 -3.1925
15032TIP3   OH266510   2.684   0.450   2.968 -0.1185 -0.0584 -0.9306
15032TIP3    H166511   2.736   0.396   3.027 -0.9285  0.7159  0.5826
15032TIP3    H266512   2.722   0.538   2.977 -0.9616  0.2938 -0.6384
15033TIP3   OH266513   5.812   6.586  17.056  0.2950 -0.6913  0.1086
15033TIP3    H166514   5.717   6.597  17.046  0.2522 -0.5963  0.5967
15033TIP3    H266515   5.830   6.614  17.145  1.1485  1.6988 -0.7521
15034TIP3   OH266516   2.965   1.903  12.898  0.2168 -0.1809 -0.6647
15034TIP3    H166517   2.895   1.965  12.918  0.3829 -0.2493  0.1750
15034TIP3    H266518   3.039   1.934  12.951  0.1187 -1.4547  0.2731
15035TIP3   OH266519   0.827   4.929   0.171  0.2627 -0.1284 -0.0049
15035TIP3    H166520   0.759   4.891   0.115  0.2258  0.2054 -0.1943
15035TIP3    H266521   0.847   4.861   0.234 -0.4413 -0.1433  0.2159
15036TIP3   OH266522   0.685   1.055  14.132  0.2046 -0.7248  0.5017
15036TIP3    H166523   0.691   1.140  14.176 -0.2077  0.0638 -0.8695
15036TIP3    H266524   0.721   0.992  14.194  3.1285  0.8273  0.5645
15037TIP3   OH266525   0.213   1.310   1.307  0.2995 -0.3932 -0.3117
15037TIP3    H166526   0.146   1.375   1.289  1.6665  1.1285 -0.1415
15037TIP3    H266527   0.260   1.300   1.224  0.2231 -1.0152 -0.2824
15038TIP3   OH266528   0.185   2.636   5.733  0.3510  0.3544 -0.1930
15038TIP3    H166529   0.263   2.680   5.700  0.4608 -0.4230 -1.0199
15038TIP3    H266530   0.191   2.645   5.828  1.9159 -0.4319 -0.1799
15039TIP3   OH266531   1.257   3.397  10.734  0.8798  0.7026  0.5616
15039TIP3    H166532   1.313   3.457  10.684  0.9285  1.0291  1.0032
15039TIP3    H266533   1.316   3.326  10.759  1.0777  0.9940  0.9369
15040TIP3   OH266534   4.341   4.199  13.739 -0.4124  0.3902 -0.4383
15040TIP3    H166535   4.352   4.233  13.650  2.7959  2.0713  0.4547
15040TIP3    H266536   4.341   4.277  13.794  1.6596 -0.7356  1.2832
15041TIP3   OH266537   4.844   5.173  17.146 -0.5486 -0.1962 -0.6472
15041TIP3    H166538   4.819   5.237  17.213  0.2965  0.5453 -1.0294
15041TIP3    H266539   4.938   5.184  17.136 -0.1126 -2.5734  0.3599
15042TIP3   OH266540   1.183   2.745  13.917 -0.3225  0.4373 -0.2213
15042TIP3    H166541   1.206   2.829  13.957  0.2981  0.0238  0.3198
15042TIP3    H266542   1.268   2.707  13.892 -0.6164  0.0831 -0.6948
15043TIP3   OH266543   3.883   0.997   1.736 -0.1752 -0.2402 -0.0380
15043TIP3    H166544   3.972   0.977   1.708 -0.2134  0.1351 -0.4459
15043TIP3    H266545   3.888   1.000   1.832  0.3230  0.0970 -0.0707
15044TIP3   OH266546   6.414   3.129  11.964  0.4832  0.2837  0.2510
15044TIP3    H166547   6.456   3.198  12.016 -3.0730  0.7992  2.7851
15044TIP3    H266548   6.481   3.060  11.957  1.8418  1.0031  3.9376
15045TIP3   OH266549   1.269   2.004  14.948  0.7639  0.3090 -0.2465
15045TIP3    H166550   1.296   1.940  14.882  0.3777  0.4606 -0.5572
15045TIP3    H266551   1.318   2.083  14.928 -1.2470  1.2205 -2.0164
15046TIP3   OH266552   5.313   5.860   1.793 -1.2316  0.6223  0.3497
15046TIP3    H166553   5.264   5.918   1.851 -0.2757 -1.0936  3.0950
15046TIP3    H266554   5.401   5.899   1.790 -0.8583 -0.0956  1.3928
15047TIP3   OH266555   0.945   6.385  13.106  0.4864 -0.5429  0.3115
15047TIP3    H166556   0.917   6.327  13.176  0.4758 -0.4456  0.3885
15047TIP3    H266557   1.010   6.334  13.057  0.1125 -0.8019  0.0811
15048TIP3   OH266558   1.654   1.463  11.582  0.6690  0.2621  0.2202
15048TIP3    H166559   1.629   1.381  11.540 -1.3171  1.1337 -0.3904
15048TIP3    H266560   1.586   1.525  11.558  1.8054  1.9688  1.1455
15049TIP3   OH266561   4.184   3.819  14.664 -0.1149  0.4358 -0.0437
15049TIP3    H166562   4.090   3.811  14.678 -0.0367 -0.5665  0.0250
15049TIP3    H266563   4.198   3.786  14.575  0.2470 -0.0836  0.2017
15050TIP3   OH266564   1.241   4.146   0.426 -0.2695 -0.9172  0.2444
15050TIP3    H166565   1.289   4.101   0.356  1.5944 -0.6695  1.3075
15050TIP3    H266566   1.266   4.100   0.506  1.0275  1.3972  1.2668
15051TIP3   OH266567   6.419   6.145   1.508 -0.1432  0.2411 -0.6730
15051TIP3    H166568   6.384   6.227   1.542 -0.2043  0.4268 -1.1737
15051TIP3    H266569   6.346   6.106   1.461  0.0754  0.2188 -0.9959
15052TIP3   OH266570   4.634   1.856   0.830  0.1246  0.7707  0.1186
15052TIP3    H166571   4.641   1.871   0.736  1.3501 -1.7681 -0.2832
15052TIP3    H266572   4.724   1.862   0.862  0.1793 -1.3354  0.5380
15053TIP3   OH266573   6.260   2.352  15.205 -0.1279  0.0857  0.1970
15053TIP3    H166574   6.203   2.302  15.146 -1.1016  1.0163  0.3231
15053TIP3    H266575   6.299   2.286  15.263  1.1834 -0.9214 -1.7004
15054TIP3   OH266576   6.241   0.741  12.169  0.0748  0.0613  0.3921
15054TIP3    H166577   6.204   0.775  12.250  1.2069 -0.0573  0.9776
15054TIP3    H266578   6.258   0.818  12.115  0.6434  0.2608  0.8512
15055TIP3   OH266579   2.269   5.939   0.361 -0.5181 -0.1577  0.4070
15055TIP3    H166580   2.322   5.991   0.301  1.3897  0.2153  2.3134
15055TIP3    H266581   2.182   5.980   0.358 -0.0093  0.8920 -0.7744
15056TIP3   OH266582   3.464   1.986  17.058  0.5404 -0.2598  0.5393
15056TIP3    H166583   3.402   1.942  16.999  2.3474 -0.8406 -1.0153
15056TIP3    H266584   3.455   2.079  17.038 -1.4953 -0.0621  2.0534
15057TIP3   OH266585   6.011   0.332   3.769  0.5599 -0.3896 -0.2461
15057TIP3    H166586   5.940   0.268   3.775 -0.5332  0.7691 -0.3126
15057TIP3    H266587   6.011   0.360   3.678 -0.3760  1.1849  0.1946
15058TIP3   OH266588   2.562   6.237   5.019  0.3874 -0.1708 -0.0910
15058TIP3    H166589   2.652   6.242   5.051  0.0356 -0.3123  0.9707
15058TIP3    H266590   2.554   6.311   4.960  1.0334  0.1795  0.2447
15059TIP3   OH266591   4.816   5.900   2.119 -0.3429  0.1170  0.0958
15059TIP3    H166592   4.819   5.940   2.206  0.2318  2.1340 -0.7707
15059TIP3    H266593   4.900   5.854   2.111 -0.0092  0.6781  0.2920
15060TIP3   OH266594   1.443   5.372  16.017 -0.4827 -0.0118  0.1662
15060TIP3    H166595   1.443   5.313  15.941  1.0285  1.1270 -0.7911
15060TIP3    H266596   1.362   5.422  16.008  0.1578  0.8393 -1.3612
15061TIP3   OH266597   0.221   5.820   1.224 -0.3389 -0.5760 -0.7524
15061TIP3    H166598   0.231   5.913   1.246 -1.4955 -1.0542  2.3891
15061TIP3    H266599   0.126   5.806   1.224 -0.2166 -1.6049 -2.1906
15062TIP3   OH266600   0.306   2.325  13.910 -0.2536  0.0930 -0.6257
15062TIP3    H166601   0.261   2.241  13.900 -1.7915  0.7874  0.0378
15062TIP3    H266602   0.276   2.358  13.995  0.7770  1.0615 -0.6041
15063TIP3   OH266603   1.254   2.466  11.317  0.0239  0.0368 -0.0463
15063TIP3    H166604   1.303   2.388  11.342 -0.6678 -0.5227 -0.3845
15063TIP3    H266605   1.214   2.443  11.233  0.3780  1.0114 -0.4980
15064TIP3   OH266606   6.343   3.076  12.912  0.0473 -0.2596  0.3836
15064TIP3    H166607   6.285   3.002  12.894 -0.7308  0.7243 -1.4488
15064TIP3    H266608   6.330   3.095  13.005  0.2943 -2.4059  0.9034
15065TIP3   OH266609   5.946   4.641  15.696  0.0242  0.0556 -0.1457
15065TIP3    H166610   5.902   4.594  15.625  1.8898  0.2696 -1.5049
15065TIP3    H266611   6.039   4.626  15.682  0.4939  0.7910  1.8082
15066TIP3   OH266612   2.781   2.209   0.686 -0.6850 -0.2460  1.0830
15066TIP3    H166613   2.802   2.199   0.593  0.2109  0.0989  1.2430
15066TIP3    H266614   2.688   2.186   0.692 -0.5895 -0.8985  0.2099
15067TIP3   OH266615   4.984   6.416  17.194 -0.5245 -0.6318 -0.0989
15067TIP3    H166616   4.975   6.511  17.189 -0.0665 -0.6199 -0.7663
15067TIP3    H266617   4.948   6.393  17.280 -0.2366  0.1912  0.2491
15068TIP3   OH266618   4.609   3.422  13.939  0.2281 -0.0359  0.0463
15068TIP3    H166619   4.634   3.503  13.894 -0.1265 -0.2580 -0.5482
15068TIP3    H266620   4.682   3.362  13.922  0.3697  0.0676  0.2714
15069TIP3   OH266621   2.133   3.542   5.094 -0.4161  0.6375  0.4713
15069TIP3    H166622   2.190   3.609   5.056 -0.7479  0.2348 -0.7895
15069TIP3    H266623   2.135   3.560   5.188 -0.9739  2.7865  0.1316
15070TIP3   OH266624   0.436   1.302   1.090  0.4733 -0.4969 -0.2584
15070TIP3    H166625   0.518   1.293   1.139  0.2642  0.9435  0.4238
15070TIP3    H266626   0.425   1.218   1.046  2.0760 -0.8819  0.0038
15071TIP3   OH266627   5.751   5.151  16.490 -0.1246  0.5237 -0.2806
15071TIP3    H166628   5.826   5.207  16.506  0.6591 -0.9876  1.8807
15071TIP3    H266629   5.773   5.068  16.534 -2.0232 -0.8137 -1.6591
15072TIP3   OH266630   6.628   3.248  12.096  0.3194  0.1972  0.1653
15072TIP3    H166631   6.688   3.233  12.024  0.3052 -0.5998  0.3098
15072TIP3    H266632   6.587   3.333  12.077  1.0542  0.4677 -0.2290
15073TIP3   OH266633   4.426   3.052  14.129 -0.0779  0.1490 -0.1022
15073TIP3    H166634   4.447   3.046  14.035 -0.0833  1.4929 -0.2109
15073TIP3    H266635   4.441   2.963  14.162  1.6777  0.0430 -1.0280
15074TIP3   OH266636   6.435   1.979   0.467  0.3124 -0.2019  0.3981
15074TIP3    H166637   6.453   1.973   0.373  0.4759 -0.8273  0.4651
15074TIP3    H266638   6.354   1.930   0.479 -0.8416  1.5722  0.2841
15075TIP3   OH266639   5.171   6.362  16.844  0.0180 -0.1543  0.1548
15075TIP3    H166640   5.251   6.322  16.810  0.4475 -1.9239  2.8627
15075TIP3    H266641   5.200   6.445  16.882 -0.0363  0.6428 -1.4595
15076TIP3   OH266642   3.571   1.678  13.840  0.1906  0.0066 -0.2820
15076TIP3    H166643   3.598   1.710  13.754 -0.8003  0.2936 -0.5041
15076TIP3    H266644   3.628   1.724  13.902 -1.0991  2.2178 -0.5961
15077TIP3   OH266645   3.870   5.491   0.440 -0.4496  0.4878  0.7458
15077TIP3    H166646   3.894   5.463   0.528  0.8861 -1.1719 -0.0796
15077TIP3    H266647   3.802   5.430   0.413  1.5747 -1.3535 -0.5838
15078TIP3   OH266648   6.349   3.297   4.207  0.4466  0.0240  0.0613
15078TIP3    H166649   6.270   3.285   4.258  1.0706 -1.2975  0.7672
15078TIP3    H266650   6.337   3.242   4.129 -0.1631  1.4135 -0.8727
15079TIP3   OH266651   1.302   1.986  15.315  0.2315 -0.0701  0.2657
15079TIP3    H166652   1.345   2.071  15.305  0.1222  0.2478  2.0299
15079TIP3    H266653   1.334   1.933  15.243  0.4940  1.3959 -0.7262
15080TIP3   OH266654   1.180   0.603   2.996 -0.4303  0.0092  0.4402
15080TIP3    H166655   1.133   0.522   3.015  0.9175 -1.0981 -0.6881
15080TIP3    H266656   1.129   0.671   3.040 -1.6444 -1.4233  1.3714
15081TIP3   OH266657   2.969   3.917  16.941 -0.0049  0.2509 -0.5320
15081TIP3    H166658   2.910   3.978  16.897 -1.1846  1.1074  2.0216
15081TIP3    H266659   3.046   3.970  16.963 -0.4633  0.4995  0.5235
15082TIP3   OH266660   0.720   3.736  14.570 -0.5195 -0.4539 -0.1132
15082TIP3    H166661   0.643   3.760  14.621  0.4274 -0.6245  1.4488
15082TIP3    H266662   0.744   3.649  14.602 -0.8327 -1.2919 -2.0150
15083TIP3   OH266663   5.086   0.229  13.050 -0.3948  0.2601  0.5158
15083TIP3    H166664   5.035   0.154  13.082 -0.3674  0.6745  1.5509
15083TIP3    H266665   5.054   0.242  12.961 -1.1377 -0.3388  0.6794
15084TIP3   OH266666   0.867   0.385   4.876 -0.1089 -0.6863  0.2991
15084TIP3    H166667   0.923   0.356   4.949  0.1199 -0.4324  0.2273
15084TIP3    H266668   0.797   0.434   4.919 -0.8071 -1.7945  0.4672
15085TIP3   OH266669   0.010   5.103   5.766 -0.4425  0.1602  0.3283
15085TIP3    H166670   0.096   5.099   5.725  0.8773 -0.6328  2.9977
15085TIP3    H266671  -0.045   5.149   5.702  0.9317 -2.5192 -3.0701
15086TIP3   OH266672   1.584   4.694  15.300 -0.2288  0.3707 -0.4043
15086TIP3    H166673   1.678   4.678  15.286 -0.3715 -1.9485  0.7374
15086TIP3    H266674   1.542   4.613  15.269 -1.4141 -0.5016  3.0600
15087TIP3   OH266675   5.937   0.249  11.148  0.0043  0.2666  0.0636
15087TIP3    H166676   5.888   0.280  11.072  0.5074  1.1631  0.1030
15087TIP3    H266677   5.979   0.327  11.184  1.1353 -0.4199  0.2761
15088TIP3   OH266678   0.987   3.497  11.433  0.1421  0.1293 -0.7887
15088TIP3    H166679   0.965   3.415  11.389 -0.4135 -0.4875  0.5962
15088TIP3    H266680   0.917   3.557  11.407 -0.5017 -0.3960 -0.3051
15089TIP3   OH266681   3.978   1.779  12.459 -0.2165 -0.3126  0.0138
15089TIP3    H166682   3.930   1.833  12.522 -2.0647 -0.4460 -1.1725
15089TIP3    H266683   4.064   1.819  12.453 -1.1221  1.7943  0.0921
15090TIP3   OH266684   2.754   1.634  16.683  0.1057 -0.1211 -0.5713
15090TIP3    H166685   2.759   1.539  16.694  1.7465 -0.0699 -0.5843
15090TIP3    H266686   2.664   1.657  16.706  0.1606 -1.4580  1.1266
15091TIP3   OH266687   5.010   4.103   5.498  0.3591  0.1061 -0.7191
15091TIP3    H166688   4.944   4.039   5.527  1.1475 -0.3510  0.1212
15091TIP3    H266689   5.079   4.050   5.458  1.4574  0.3022  0.8126
15092TIP3   OH266690   1.281   5.921  13.178  0.0437  0.0673 -0.1336
15092TIP3    H166691   1.234   5.862  13.119 -0.8126 -0.4997  1.0638
15092TIP3    H266692   1.336   5.974  13.121 -0.6039 -0.5957 -1.4114
15093TIP3   OH266693   1.362   4.999  11.356 -0.1453  0.2606  0.3258
15093TIP3    H166694   1.409   5.077  11.385  0.2082  0.2894 -0.3220
15093TIP3    H266695   1.431   4.938  11.328 -0.5046  0.6711 -1.5737
15094TIP3   OH266696   0.707   3.628  10.922 -0.1090 -0.4425 -0.1761
15094TIP3    H166697   0.749   3.677  10.852 -0.3028 -1.0957 -0.7586
15094TIP3    H266698   0.662   3.556  10.878 -2.6779  0.7655  0.2830
15095TIP3   OH266699   6.591   5.704  15.979  0.1795 -0.1228 -0.0108
15095TIP3    H166700   6.572   5.788  16.020 -1.3989 -0.7723  0.6832
15095TIP3    H266701   6.530   5.698  15.907 -0.3628 -1.0534  0.5082
15096TIP3   OH266702   0.656   5.563   1.348  0.0538 -0.5055 -0.1234
15096TIP3    H166703   0.597   5.579   1.274 -1.4579  0.6338  1.2499
15096TIP3    H266704   0.694   5.649   1.367  1.5501 -1.0651 -0.4435
15097TIP3   OH266705   6.609   4.578   0.958 -0.4294 -0.0846 -0.1543
15097TIP3    H166706   6.533   4.531   0.923 -0.4959 -1.4719  1.7334
15097TIP3    H266707   6.581   4.607   1.044  1.0872 -0.3800  0.4670
15098TIP3   OH266708   2.076   0.782   2.776 -0.1430 -0.2647  0.1452
15098TIP3    H166709   1.995   0.732   2.777  0.6179 -1.5244  0.1839
15098TIP3    H266710   2.144   0.718   2.794  0.8912  0.7397 -0.0972
15099TIP3   OH266711   4.539   4.835  16.671  0.3910 -0.1710 -0.7098
15099TIP3    H166712   4.474   4.800  16.610  1.6983  0.0207 -2.2843
15099TIP3    H266713   4.490   4.894  16.728 -0.7648  0.2321 -2.0759
15100TIP3   OH266714   4.373   1.625  11.926 -0.0521  0.8802 -0.6275
15100TIP3    H166715   4.362   1.626  12.021  0.2788  2.3334 -0.5830
15100TIP3    H266716   4.467   1.617  11.913 -0.1974 -1.0403 -0.8931
15101TIP3   OH266717   5.884   4.563  16.135 -0.1373  0.0343  0.2372
15101TIP3    H166718   5.890   4.486  16.079  0.1493 -0.7051  1.2527
15101TIP3    H266719   5.975   4.586  16.154 -0.2037 -0.9600  2.0036
15102TIP3   OH266720   5.392   6.318  11.305 -0.4715 -0.2400  0.2447
15102TIP3    H166721   5.422   6.228  11.317 -0.0381 -0.3175 -1.1953
15102TIP3    H266722   5.431   6.367  11.378 -0.7509 -1.2156  1.0609
15103TIP3   OH266723   6.139   5.432  13.145  0.3269  0.0961  0.0860
15103TIP3    H166724   6.143   5.435  13.240  1.7513  1.1034  0.0249
15103TIP3    H266725   6.215   5.380  13.119 -1.1254 -1.8559 -0.4659
15104TIP3   OH266726   5.824   1.743   3.489 -0.1583 -0.1004  0.1436
15104TIP3    H166727   5.851   1.731   3.398 -2.4262 -3.2940 -0.3048
15104TIP3    H266728   5.770   1.822   3.487  0.9203  0.6542 -0.9544
15105TIP3   OH266729   5.514   6.475   3.651 -0.0927 -0.0626 -0.2496
15105TIP3    H166730   5.567   6.550   3.676  1.0608 -1.6177  2.4641
15105TIP3    H266731   5.560   6.435   3.578  1.1639  0.0225  0.4750
15106TIP3   OH266732   2.962   0.443   1.584  0.1439  0.0688  0.2327
15106TIP3    H166733   2.898   0.430   1.514  0.7616  0.0347 -0.3303
15106TIP3    H266734   2.912   0.487   1.654 -0.5301 -0.1034 -0.1286
15107TIP3   OH266735   3.208   1.963  13.073 -0.2052  0.0866 -0.5601
15107TIP3    H166736   3.189   2.051  13.107  0.0544 -0.5326  1.2998
15107TIP3    H266737   3.275   1.929  13.132 -0.4163 -1.4294 -1.1621
15108TIP3   OH266738   0.903   2.727   5.662  0.1106 -0.4481  0.0214
15108TIP3    H166739   0.827   2.750   5.716 -0.4617  1.8439 -1.6337
15108TIP3    H266740   0.882   2.760   5.575  2.1000 -1.7427 -1.0354
15109TIP3   OH266741   5.357   2.124  12.435 -0.1858  0.2220 -0.3420
15109TIP3    H166742   5.286   2.181  12.466 -2.8835 -2.5956 -0.7974
15109TIP3    H266743   5.385   2.077  12.513  1.3433  1.3796 -0.1495
15110TIP3   OH266744   5.789   1.334   5.397 -0.4693  0.2431 -0.6691
15110TIP3    H166745   5.859   1.275   5.425  1.2974  1.4393 -2.2959
15110TIP3    H266746   5.807   1.417   5.442 -0.1152  0.8970 -1.9519
15111TIP3   OH266747   3.853   0.319   6.269  0.0138  0.0597  0.4313
15111TIP3    H166748   3.910   0.396   6.259  0.0672 -0.0308  0.0086
15111TIP3    H266749   3.766   0.356   6.284 -0.5340  0.3022 -2.6659
15112TIP3   OH266750   4.820   1.317   0.467  0.1211 -0.2467 -0.3996
15112TIP3    H166751   4.844   1.233   0.427  0.4665 -0.9375  1.1672
15112TIP3    H266752   4.798   1.373   0.393  0.0868 -1.6516 -1.5095
15113TIP3   OH266753   5.522   4.590  13.998  0.3668  0.2394 -0.1945
15113TIP3    H166754   5.528   4.652  13.925 -0.5551  0.0501 -0.4331
15113TIP3    H266755   5.614   4.568  14.017  0.6093  0.1405 -1.4181
15114TIP3   OH266756   6.616   6.074   3.783 -0.1615 -0.4262 -0.6816
15114TIP3    H166757   6.523   6.054   3.783 -0.0916 -0.8378  0.4825
15114TIP3    H266758   6.652   6.020   3.853  0.7886  0.4630 -0.4615
15115TIP3   OH266759   3.660   1.787  14.687 -0.4575 -0.0532 -0.3436
15115TIP3    H166760   3.582   1.749  14.727 -0.5179  1.6819  1.3356
15115TIP3    H266761   3.733   1.753  14.739 -0.3123  0.2693 -0.3316
15116TIP3   OH266762   3.990   1.262   2.103  0.5967 -0.1593  0.4001
15116TIP3    H166763   3.917   1.299   2.153 -0.1761  0.0447 -0.8362
15116TIP3    H266764   3.948   1.201   2.042  1.7066 -1.9337  1.3564
15117TIP3   OH266765   6.031   0.612   0.225  0.4616  0.0064 -0.2526
15117TIP3    H166766   5.973   0.663   0.168 -1.5145 -0.9579  0.7914
15117TIP3    H266767   6.056   0.672   0.295 -0.7126 -0.0044  0.2043
15118TIP3   OH266768   5.733   3.463   6.011 -0.5205  0.1405 -0.6694
15118TIP3    H166769   5.805   3.475   5.950  0.5648 -1.7278  0.1503
15118TIP3    H266770   5.736   3.540   6.068  0.9918 -0.0178 -0.5077
15119TIP3   OH266771   4.846   4.636   0.413 -0.4876  0.1235  0.4931
15119TIP3    H166772   4.937   4.618   0.391 -0.6217  0.5255 -0.4066
15119TIP3    H266773   4.841   4.732   0.417 -0.4888  0.0947  2.2223
15120TIP3   OH266774   4.430   4.689  15.834  0.2751  0.6513 -0.1236
15120TIP3    H166775   4.398   4.777  15.819 -0.0376  0.6353  0.4161
15120TIP3    H266776   4.516   4.702  15.874 -0.5697  0.7640  1.7694
15121TIP3   OH266777   1.485   0.811   0.176  0.1010 -0.0940  0.4042
15121TIP3    H166778   1.571   0.851   0.167  0.2653  0.0578  2.2577
15121TIP3    H266779   1.425   0.874   0.134  0.8270 -0.0421 -0.5927
15122TIP3   OH266780   2.042   5.236   1.592  0.5666 -0.5583  0.5395
15122TIP3    H166781   1.981   5.275   1.654  0.7983 -1.1956  1.1915
15122TIP3    H266782   1.988   5.213   1.517  0.5956  1.9224 -0.3298
15123TIP3   OH266783   5.426   4.708  13.296  0.0414 -0.2221 -0.3073
15123TIP3    H166784   5.401   4.616  13.303  0.4485 -0.3957 -1.0709
15123TIP3    H266785   5.490   4.721  13.366 -0.8047 -0.2402  0.4831
15124TIP3   OH266786   2.024   1.171  12.845  0.4613 -0.3614 -0.1347
15124TIP3    H166787   2.106   1.208  12.877  0.1852  0.2764 -0.1535
15124TIP3    H266788   2.049   1.119  12.769  0.6848  0.9455 -0.9942
15125TIP3   OH266789   0.318   5.630  16.405  0.1947  0.0495 -0.5201
15125TIP3    H166790   0.314   5.717  16.365  2.3789  0.5328  0.1573
15125TIP3    H266791   0.329   5.570  16.330  0.5702  0.5688 -0.8896
15126TIP3   OH266792   3.339   3.185  12.024  0.2991  0.0013  0.0605
15126TIP3    H166793   3.323   3.262  12.079 -1.2525  0.9603 -1.6135
15126TIP3    H266794   3.282   3.118  12.060  2.3254 -0.7831  2.1076
15127TIP3   OH266795   2.354   4.939   3.977 -0.3073  0.2212  0.1122
15127TIP3    H166796   2.287   5.006   3.963 -0.3688 -0.1465 -1.7463
15127TIP3    H266797   2.421   4.959   3.911  1.2133  0.2871  1.6102
15128TIP3   OH266798   0.160   2.665   6.021 -0.1648 -0.4423  0.0339
15128TIP3    H166799   0.132   2.583   6.062 -0.0225 -0.5259 -0.0347
15128TIP3    H266800   0.187   2.721   6.094  0.0113 -0.5613  0.0607
15129TIP3   OH266801   6.461   2.582   0.098 -0.1817  0.4011  0.0448
15129TIP3    H166802   6.539   2.601   0.044  0.2922  0.3663  0.7058
15129TIP3    H266803   6.407   2.526   0.043  1.2387 -1.3409  0.3542
15130TIP3   OH266804   6.107   4.621   1.133 -0.2445  0.1427  0.1112
15130TIP3    H166805   6.034   4.560   1.121 -0.0031 -0.1854  0.3047
15130TIP3    H266806   6.177   4.567   1.169  1.1924 -0.2720 -2.9469
15131TIP3   OH266807   1.488   0.164  10.671  0.6045 -0.1293  0.6043
15131TIP3    H166808   1.551   0.138  10.605  0.7848  0.6895  0.4424
15131TIP3    H266809   1.536   0.223  10.729 -0.2318  1.2449 -0.0444
15132TIP3   OH266810   0.207   2.083  13.349 -0.5367  0.2976  0.4948
15132TIP3    H166811   0.159   2.036  13.418  0.0745  0.0869  0.7803
15132TIP3    H266812   0.299   2.066  13.368 -0.3625  0.0693 -0.4915
15133TIP3   OH266813   0.981   5.804   3.504 -0.1058  0.1839 -0.4389
15133TIP3    H166814   0.996   5.737   3.570  0.1531  1.1216  0.4944
15133TIP3    H266815   0.890   5.831   3.518 -0.3506 -0.2856 -1.1115
15134TIP3   OH266816   0.926   3.353  11.880 -0.5549 -0.5728  0.2328
15134TIP3    H166817   0.880   3.424  11.835 -0.4695 -0.9197 -0.4156
15134TIP3    H266818   0.951   3.293  11.810 -3.6992 -3.1015  1.0330
15135TIP3   OH266819   2.453   0.194  14.881  0.3658  0.1420  0.0200
15135TIP3    H166820   2.406   0.263  14.928  1.5016 -0.0536  1.4965
15135TIP3    H266821   2.507   0.241  14.818 -1.1258  0.4085 -1.1264
15136TIP3   OH266822   0.818   3.324   1.878 -0.0825  0.0747 -0.0444
15136TIP3    H166823   0.801   3.237   1.843 -1.9199  0.4731 -0.2692
15136TIP3    H266824   0.892   3.357   1.828  1.4215 -1.7724  0.8450
15137TIP3   OH266825   3.139   3.823  14.499  0.0683  0.4593 -0.3418
15137TIP3    H166826   3.115   3.891  14.436  1.4775 -0.4215 -1.9081
15137TIP3    H266827   3.099   3.743  14.466 -0.7017  0.2927  0.9170
15138TIP3   OH266828   0.612   5.900  12.259 -0.3400 -0.6215 -0.0953
15138TIP3    H166829   0.620   5.924  12.351 -0.3278 -1.6770  0.1943
15138TIP3    H266830   0.680   5.833  12.246 -0.0137 -0.1247 -0.9971
15139TIP3   OH266831   0.981   1.617  10.514  0.0162 -0.6059  0.5731
15139TIP3    H166832   1.069   1.582  10.531 -0.5126 -1.2417  2.2291
15139TIP3    H266833   0.922   1.555  10.557 -1.2227  0.0096 -0.2087
15140TIP3   OH266834   1.215   5.500  17.205  0.5869  0.1394 -0.3233
15140TIP3    H166835   1.203   5.418  17.252 -0.9497 -0.1216 -1.1072
15140TIP3    H266836   1.214   5.567  17.273 -1.9267 -0.1969  0.0677
15141TIP3   OH266837   1.955   0.664  11.810  0.2885  0.7057  0.7425
15141TIP3    H166838   2.000   0.729  11.864  1.3360  1.3877 -0.8589
15141TIP3    H266839   1.874   0.707  11.782  0.4676  0.9157  0.5499
15142TIP3   OH266840   3.357   5.343  13.204  0.1720  0.7017  0.0548
15142TIP3    H166841   3.405   5.262  13.221 -0.5340 -0.0716 -1.3707
15142TIP3    H266842   3.375   5.361  13.111  0.0866  2.0226  0.2879
15143TIP3   OH266843   2.488   1.807   6.596  0.3204 -0.0694 -0.2913
15143TIP3    H166844   2.510   1.895   6.626 -0.2606  0.0144 -0.1072
15143TIP3    H266845   2.404   1.816   6.552 -0.0967 -0.6518  0.3550
15144TIP3   OH266846   6.447   3.342  15.351  0.1127  0.0085 -0.0600
15144TIP3    H166847   6.499   3.288  15.292  0.3909  0.0150  0.1713
15144TIP3    H266848   6.406   3.279  15.411  1.0341  0.0805  0.6824
15145TIP3   OH266849   3.188   5.230  12.939  0.2295 -0.0690  0.1629
15145TIP3    H166850   3.096   5.248  12.955  0.5862  1.2776  0.7691
15145TIP3    H266851   3.198   5.137  12.961 -0.4297  0.4063  2.7166
15146TIP3   OH266852   1.294   0.849   4.434 -0.1373  0.0829 -0.2740
15146TIP3    H166853   1.213   0.802   4.457 -0.0723 -0.2312 -0.6670
15146TIP3    H266854   1.269   0.941   4.432 -1.3021 -0.1826 -3.5103
15147TIP3   OH266855   1.819   0.606   1.872  0.0492  0.1902 -0.0267
15147TIP3    H166856   1.796   0.649   1.954 -0.3902  0.6909 -0.4029
15147TIP3    H266857   1.791   0.515   1.884 -0.4491  0.3693  0.2048
15148TIP3   OH266858   5.282   5.341   4.568  0.6696  0.1575  0.4020
15148TIP3    H166859   5.288   5.267   4.507  0.1017 -0.4247  1.0419
15148TIP3    H266860   5.192   5.372   4.560  0.8867  0.7648  0.1779
15149TIP3   OH266861   5.450   4.837  14.946  0.0360 -0.0850  0.0098
15149TIP3    H166862   5.385   4.855  14.878  0.8705 -0.2683 -0.8644
15149TIP3    H266863   5.510   4.912  14.943  0.9324 -0.7960 -0.5122
15150TIP3   OH266864   6.459   4.664   1.418 -0.2241  0.0316 -0.0423
15150TIP3    H166865   6.504   4.722   1.479  0.5955 -0.9862  0.3452
15150TIP3    H266866   6.383   4.715   1.388  0.2003  1.1084  0.6505
15151TIP3   OH266867   4.667   3.161  14.257 -0.0299  0.4524  0.7805
15151TIP3    H166868   4.599   3.120  14.204  2.1714 -0.3749 -1.6771
15151TIP3    H266869   4.679   3.248  14.218  2.2940 -0.5217 -0.9957
15152TIP3   OH266870   3.563   1.038   5.580 -0.0705 -0.1453 -0.1794
15152TIP3    H166871   3.544   0.988   5.659  0.9338  1.5806  1.2577
15152TIP3    H266872   3.648   1.078   5.598  1.7401 -2.1195 -3.4449
15153TIP3   OH266873   0.187   6.704  15.362 -0.5336  0.0969  0.3702
15153TIP3    H166874   0.171   6.626  15.414  0.3950 -1.3901 -1.4729
15153TIP3    H266875   0.100   6.741  15.346 -0.8269  0.7398  3.0671
15154TIP3   OH266876   2.068   0.214   1.343 -0.1864  0.0108  0.0197
15154TIP3    H166877   2.130   0.282   1.316 -0.5688  0.7381  0.9042
15154TIP3    H266878   1.983   0.257   1.341 -0.5233 -0.6599 -0.1110
15155TIP3   OH266879   2.451   5.585  15.711 -0.6849  0.3925  0.1092
15155TIP3    H166880   2.474   5.548  15.626  0.5507  0.4051  0.4063
15155TIP3    H266881   2.359   5.609  15.704 -1.2334 -1.6783 -0.4758
15156TIP3   OH266882   5.218   3.307   1.278 -0.4386  0.4221  0.5255
15156TIP3    H166883   5.173   3.352   1.207 -0.1944  1.0458  0.7597
15156TIP3    H266884   5.165   3.229   1.294 -0.5455  0.3263 -0.2691
15157TIP3   OH266885   5.162   0.635  13.072  0.2596  0.2768  0.9232
15157TIP3    H166886   5.131   0.698  13.007 -4.2316 -2.3380  0.0995
15157TIP3    H266887   5.175   0.688  13.152 -3.1131  2.4262  0.2753
15158TIP3   OH266888   2.714   5.521   4.830  0.1018  0.3823 -0.4691
15158TIP3    H166889   2.659   5.554   4.902 -1.1408 -1.9122 -0.2639
15158TIP3    H266890   2.774   5.459   4.872 -1.4523 -1.9383 -1.4355
15159TIP3   OH266891   3.291   3.746   5.377 -0.4593  0.4740 -1.1466
15159TIP3    H166892   3.228   3.818   5.378 -1.2903 -0.2401 -0.1361
15159TIP3    H266893   3.292   3.713   5.467 -0.1645 -0.8362 -1.6040
15160TIP3   OH266894   2.606   0.408   3.979 -0.2210 -0.0096  0.3746
15160TIP3    H166895   2.684   0.371   3.938 -1.0891  0.6035 -2.0635
15160TIP3    H266896   2.639   0.473   4.041  1.1963 -1.0857  0.7799
15161TIP3   OH266897   3.211   4.440  12.570  0.1126  0.0437 -0.4421
15161TIP3    H166898   3.187   4.368  12.628 -2.4927  2.0191  1.1654
15161TIP3    H266899   3.128   4.480  12.546  1.3906  1.8136 -2.2376
15162TIP3   OH266900   2.326   5.003   2.670  0.1762  0.0881  0.0680
15162TIP3    H166901   2.349   4.916   2.635 -1.9381  0.0847 -1.5218
15162TIP3    H266902   2.325   4.991   2.765  1.0601 -1.3139 -0.0661
15163TIP3   OH266903   5.664   6.150   5.482  0.6331 -0.0872 -0.6954
15163TIP3    H166904   5.735   6.181   5.538  0.8906 -0.8057 -0.6055
15163TIP3    H266905   5.704   6.139   5.396  0.6764 -0.6349 -0.6103
15164TIP3   OH266906   6.782   6.431  17.073 -0.4494 -0.4267  0.7342
15164TIP3    H166907   6.873   6.455  17.092 -0.1514 -1.1245  0.2602
15164TIP3    H266908   6.789   6.363  17.006 -1.3641  0.2355 -0.0542
15165TIP3   OH266909   4.511   0.355   6.439  0.3873 -0.1567  0.3874
15165TIP3    H166910   4.596   0.310   6.441  0.4794 -0.0040 -0.0710
15165TIP3    H266911   4.449   0.290   6.473  0.8484  0.0987  1.7692
15166TIP3   OH266912   4.476   2.542   2.988  0.3086 -0.0042 -0.1167
15166TIP3    H166913   4.429   2.469   2.947  2.1636 -3.5369  3.4051
15166TIP3    H266914   4.429   2.559   3.069  1.8761  0.2744  0.7760
15167TIP3   OH266915   2.065   1.396  14.944 -0.2768  0.0469  0.4659
15167TIP3    H166916   2.000   1.365  15.007 -0.8011  0.3627  0.0891
15167TIP3    H266917   2.054   1.337  14.869 -0.3086  0.2615  0.3017
15168TIP3   OH266918   3.704   3.043  11.319 -0.0756 -0.0483 -0.8278
15168TIP3    H166919   3.613   3.047  11.350  0.9822  1.7480  2.5234
15168TIP3    H266920   3.715   3.122  11.266 -0.6382 -0.7070 -1.9633
15169TIP3   OH266921   6.186   6.609  10.705  0.4157 -0.4874 -0.3102
15169TIP3    H166922   6.282   6.616  10.698  0.4482  2.2824  1.2684
15169TIP3    H266923   6.153   6.649  10.625  0.6599  1.4095  0.4792
15170TIP3   OH266924   0.388   2.487   0.294 -0.1288 -0.1663 -0.2381
15170TIP3    H166925   0.298   2.517   0.283 -0.2799 -1.0533 -1.5441
15170TIP3    H266926   0.384   2.431   0.371 -0.7899 -0.5762 -0.5634
15171TIP3   OH266927   3.396   5.398  12.932 -0.1682 -0.5019 -0.0539
15171TIP3    H166928   3.318   5.345  12.917 -0.3264 -0.0674 -0.8404
15171TIP3    H266929   3.460   5.365  12.868  0.1872 -0.6414  0.3686
15172TIP3   OH266930   5.332   1.611   6.185 -0.5867 -0.4544 -0.1258
15172TIP3    H166931   5.422   1.605   6.154 -0.5083  0.5309 -0.1109
15172TIP3    H266932   5.311   1.522   6.214  0.0533 -0.9100 -1.0007
15173TIP3   OH266933   4.772   3.823  16.647  0.0461 -0.3501 -0.0789
15173TIP3    H166934   4.774   3.760  16.575  2.4140 -0.5701  0.1035
15173TIP3    H266935   4.820   3.780  16.718  0.4361  1.0770  0.5581
15174TIP3   OH266936   3.784   2.405  15.548 -0.1152  0.1245  0.2571
15174TIP3    H166937   3.729   2.481  15.528 -1.9949 -1.0346  0.6949
15174TIP3    H266938   3.859   2.441  15.595 -1.9344  1.5647  2.2774
15175TIP3   OH266939   5.089   1.065   3.370 -0.1752  0.2620 -0.2473
15175TIP3    H166940   5.167   1.122   3.373  0.4391 -0.5953  0.9825
15175TIP3    H266941   5.120   0.985   3.328 -0.2623 -0.2380  0.6068
15176TIP3   OH266942   6.698   4.835  14.597  0.2922  0.1044  0.7519
15176TIP3    H166943   6.620   4.781  14.611  0.7933 -0.8259  0.0453
15176TIP3    H266944   6.771   4.778  14.618  0.9399 -0.2427 -2.0684
15177TIP3   OH266945   1.259   0.316   5.187  0.2331 -0.1726  0.7366
15177TIP3    H166946   1.330   0.255   5.206 -0.4108 -0.7474  1.3366
15177TIP3    H266947   1.270   0.387   5.250  0.6440  0.0606  0.4100
15178TIP3   OH266948   6.631   4.654   3.144 -0.0125 -0.1722 -0.2139
15178TIP3    H166949   6.695   4.726   3.149 -1.1312  0.7581  1.5410
15178TIP3    H266950   6.567   4.685   3.080  0.2349 -0.2445 -0.5035
15179TIP3   OH266951   3.422   6.637  14.823 -0.4388  1.0240 -0.9869
15179TIP3    H166952   3.456   6.612  14.737 -0.9686 -0.3862 -0.8166
15179TIP3    H266953   3.329   6.651  14.809 -0.9431 -1.2486 -0.2942
15180TIP3   OH266954   2.714   6.054   3.144 -0.0860 -0.3043 -0.4407
15180TIP3    H166955   2.794   6.052   3.196  1.3853 -1.4245 -2.6238
15180TIP3    H266956   2.646   6.023   3.204  1.2975 -0.4539  1.1228
15181TIP3   OH266957   2.367   4.682   6.005 -0.3357 -0.0560 -0.3685
15181TIP3    H166958   2.333   4.766   5.974  0.2942  0.4586  0.2946
15181TIP3    H266959   2.453   4.675   5.965  0.2273  0.3239  0.7191
15182TIP3   OH266960   1.615   4.220  17.045  0.2630 -0.0887 -0.1246
15182TIP3    H166961   1.666   4.145  17.013  0.6557 -0.2014  0.7218
15182TIP3    H266962   1.669   4.296  17.026  0.0213 -0.0533 -0.6725
15183TIP3   OH266963   2.589   5.653  15.176 -0.2653  0.2255  0.2196
15183TIP3    H166964   2.600   5.559  15.192  0.2358 -0.0921 -1.7741
15183TIP3    H266965   2.510   5.659  15.122  0.5307  0.7855 -0.9134
15184TIP3   OH266966   5.801   4.443   2.729 -0.2472  0.1236 -0.3688
15184TIP3    H166967   5.844   4.521   2.763  3.2540 -2.4211  1.7662
15184TIP3    H266968   5.822   4.443   2.636 -0.1561  1.5768 -0.3763
15185TIP3   OH266969   2.318   3.067  16.622  0.0223  0.7269 -0.6820
15185TIP3    H166970   2.326   3.131  16.551 -3.1163  1.7829 -0.2461
15185TIP3    H266971   2.297   2.985  16.577  1.7092  0.4970 -1.1127
15186TIP3   OH266972   5.837   0.546   5.874  0.7943  0.5373  0.4574
15186TIP3    H166973   5.833   0.616   5.939 -0.7357  1.8418 -0.9665
15186TIP3    H266974   5.764   0.489   5.895 -0.2792  1.4652 -0.5969
15187TIP3   OH266975   0.584   4.895  15.783  0.4302  0.0340  0.1732
15187TIP3    H166976   0.502   4.845  15.790 -0.1833  0.7762 -1.2166
15187TIP3    H266977   0.632   4.852  15.712  1.3357 -0.4830  1.0763
15188TIP3   OH266978   3.931   2.616   4.611 -0.0010  0.0405 -0.8410
15188TIP3    H166979   3.972   2.701   4.628 -0.9719  0.4306 -0.4118
15188TIP3    H266980   3.929   2.610   4.515 -0.3254  0.7034 -0.8852
15189TIP3   OH266981   0.677   1.189  11.471 -0.2799  0.2289 -0.1860
15189TIP3    H166982   0.601   1.132  11.486  0.6535 -0.5617  1.8396
15189TIP3    H266983   0.639   1.269  11.435 -1.8625 -0.8295 -1.0276
15190TIP3   OH266984   5.395   4.304   4.370  0.0732  0.3817 -0.5897
15190TIP3    H166985   5.308   4.314   4.410 -0.4809  1.9377 -2.0845
15190TIP3    H266986   5.385   4.228   4.312 -0.5580  1.0735 -1.4016
15191TIP3   OH266987   2.287   3.259  16.445  0.3109  0.2431 -0.2157
15191TIP3    H166988   2.240   3.282  16.365  1.2278  0.8200 -0.6099
15191TIP3    H266989   2.359   3.322  16.449  0.7632 -0.3086  0.6202
15192TIP3   OH266990   3.973   5.389  16.134 -0.2257 -0.0584 -0.2048
15192TIP3    H166991   3.979   5.346  16.049  1.2007 -1.9476  0.7688
15192TIP3    H266992   4.018   5.329  16.194 -1.6333  0.9427  1.9837
15193TIP3   OH266993   0.914   4.573   5.231  0.1307  0.0976  0.1183
15193TIP3    H166994   0.920   4.481   5.205 -1.6945  0.0589 -0.3218
15193TIP3    H266995   0.983   4.584   5.296  1.4812 -1.1305 -1.0381
15194TIP3   OH266996   4.739   1.354  13.525 -0.1442  0.4868  0.4552
15194TIP3    H166997   4.726   1.371  13.432 -1.6793 -1.0584  0.3406
15194TIP3    H266998   4.664   1.395  13.568  0.3306  0.8169  0.9910
15195TIP3   OH266999   5.965   6.069  16.647 -0.9039 -0.4622  0.4503
15195TIP3    H167000   6.012   6.120  16.581  0.8832  0.0774  2.0335
15195TIP3    H267001   5.902   6.131  16.684 -1.2217 -0.4818 -0.0405
15196TIP3   OH267002   5.252   0.214  10.912  0.2270  0.1391 -0.2589
15196TIP3    H167003   5.173   0.223  10.858  0.1443 -0.0307 -0.1701
15196TIP3    H267004   5.322   0.196  10.849  0.0568 -0.4791 -0.2799
15197TIP3   OH267005   2.709   5.994  17.072  0.1823  0.3264 -0.1001
15197TIP3    H167006   2.632   5.956  17.112  0.1080  0.6073  0.0293
15197TIP3    H267007   2.745   5.925  17.017  0.8826 -0.4402  1.2435
15198TIP3   OH267008   3.210   4.502   3.212  0.0965  0.0156  0.8001
15198TIP3    H167009   3.181   4.479   3.124 -0.7780  0.8318  0.8628
15198TIP3    H267010   3.150   4.571   3.240  0.8563  0.3199  1.7316
15199TIP3   OH267011   2.159   5.935  16.772 -0.0087 -0.0633 -1.1291
15199TIP3    H167012   2.173   6.024  16.804 -3.7130  1.1462 -2.4271
15199TIP3    H267013   2.155   5.882  16.852 -1.2533  1.5638 -0.0396
15200TIP3   OH267014   4.068   5.694   2.319  0.1875  0.0312 -0.4711
15200TIP3    H167015   3.987   5.740   2.339 -1.0504 -2.4002  0.5556
15200TIP3    H267016   4.055   5.661   2.230  1.2334  1.8767 -1.3585
15201TIP3   OH267017   4.426   0.442  12.347  0.5649 -0.4763 -0.2527
15201TIP3    H167018   4.454   0.517  12.400 -0.2715 -1.3030  1.4337
15201TIP3    H267019   4.419   0.477  12.258 -0.6755  1.6872  0.6088
15202TIP3   OH267020   1.730   0.788  12.430 -0.4409 -0.2033  0.5828
15202TIP3    H167021   1.759   0.710  12.476 -1.0119  0.0757  1.4491
15202TIP3    H267022   1.635   0.776  12.421 -0.3512 -0.2279 -0.4930
15203TIP3   OH267023   4.787   2.803   2.830 -0.1588  0.0896  0.0206
15203TIP3    H167024   4.705   2.764   2.800 -0.1532  0.3650 -0.3634
15203TIP3    H267025   4.848   2.729   2.834  0.5420  0.3452 -3.0738
15204TIP3   OH267026   5.760   0.451  11.063  0.0362 -0.0321  0.1235
15204TIP3    H167027   5.758   0.439  10.968 -1.6038  0.9732 -0.0049
15204TIP3    H267028   5.817   0.527  11.076  0.4028 -0.2783 -0.0373
15205TIP3   OH267029   3.663   2.605  11.686 -0.5531 -0.5138  0.0990
15205TIP3    H167030   3.745   2.566  11.715  0.0493  0.9070  0.4380
15205TIP3    H267031   3.615   2.534  11.645 -0.2565 -1.9865  2.1460
15206TIP3   OH267032   4.857   2.851  13.395 -0.0487 -0.2379 -0.1513
15206TIP3    H167033   4.948   2.858  13.366 -0.6309 -0.6576 -2.2589
15206TIP3    H267034   4.846   2.758  13.417  0.1773 -0.0671  0.7350
15207TIP3   OH267035   4.887   2.547   5.614  0.3015 -0.0613  0.1985
15207TIP3    H167036   4.870   2.630   5.661  0.6076  0.1745 -0.1068
15207TIP3    H267037   4.982   2.543   5.605  0.2023  0.4953 -1.4613
15208TIP3   OH267038   1.616   5.639  13.630  0.1214  0.0089 -0.0966
15208TIP3    H167039   1.692   5.683  13.667 -0.2496  0.4762  0.1271
15208TIP3    H267040   1.628   5.547  13.652  0.6371  0.0745 -0.0972
15209TIP3   OH267041   5.144   0.536  13.777  0.2347  0.0250  0.0797
15209TIP3    H167042   5.058   0.539  13.734  0.4805 -1.4539 -0.5751
15209TIP3    H267043   5.133   0.473  13.848  0.4907  0.6780  0.7132
15210TIP3   OH267044   5.128   0.639   1.878 -0.3251 -0.1079 -0.2125
15210TIP3    H167045   5.167   0.600   1.957 -1.0371 -0.5968 -0.0885
15210TIP3    H267046   5.195   0.628   1.810  0.1382 -0.0405  0.2319
15211TIP3   OH267047   6.290   2.253  13.685 -0.5257  0.1414 -0.5683
15211TIP3    H167048   6.291   2.164  13.720  0.2369 -0.0204 -0.9824
15211TIP3    H267049   6.200   2.266  13.656 -0.9182 -0.0918  0.4846
15212TIP3   OH267050   4.332   0.021   0.582  0.0938  0.4631  0.0434
15212TIP3    H167051   4.291  -0.065   0.582  1.5278 -0.2576 -0.0775
15212TIP3    H267052   4.348   0.041   0.490  1.2365  0.0893  0.1371
15213TIP3   OH267053   4.105   6.193   1.678  0.1324 -0.0568 -0.3854
15213TIP3    H167054   4.112   6.119   1.618  0.2398 -1.0039  0.7707
15213TIP3    H267055   4.027   6.240   1.648 -0.1644 -0.8550 -0.9028
15214TIP3   OH267056   0.574   4.447  15.642  0.4279  0.1178 -0.0394
15214TIP3    H167057   0.621   4.364  15.630  0.5436  0.4828 -2.4761
15214TIP3    H267058   0.543   4.470  15.555  0.4055  2.6526  0.5771
15215TIP3   OH267059   3.396   3.349   0.714  0.6984  0.1348  0.2620
15215TIP3    H167060   3.450   3.270   0.719  0.6827  0.0937 -0.1664
15215TIP3    H267061   3.428   3.404   0.785 -0.3477 -0.8965  1.6103
15216TIP3   OH267062   2.066   5.570  13.057  0.4537  0.1632 -0.4678
15216TIP3    H167063   2.040   5.531  12.973 -0.1804 -1.7601  0.5736
15216TIP3    H267064   1.999   5.636  13.074 -2.4300 -2.7940  0.8081
15217TIP3   OH267065   6.239   5.445  10.553 -0.2515  0.4644 -0.6140
15217TIP3    H167066   6.247   5.539  10.538  0.0041  0.5148 -0.1865
15217TIP3    H267067   6.170   5.417  10.493  0.3094  0.7556 -1.4033
15218TIP3   OH267068   4.349   4.739  16.918  0.3116  0.0114  0.0253
15218TIP3    H167069   4.290   4.786  16.976 -0.1370 -2.0262  1.3517
15218TIP3    H267070   4.305   4.739  16.834 -0.6258  0.2275  0.5034
15219TIP3   OH267071   2.815   6.200  12.134  0.2037 -0.0756  0.6052
15219TIP3    H167072   2.884   6.236  12.079 -0.5248 -1.4141 -1.3216
15219TIP3    H267073   2.757   6.154  12.072 -1.7365 -0.0332  2.2836
15220TIP3   OH267074   6.179   2.561   3.530 -0.3145  0.3324 -0.1745
15220TIP3    H167075   6.222   2.624   3.472 -0.1521 -0.7298 -1.2537
15220TIP3    H267076   6.093   2.599   3.547 -0.7285  0.2712 -1.8889
15221TIP3   OH267077   5.149   0.844   1.200 -0.6510 -0.1672 -0.6230
15221TIP3    H167078   5.145   0.876   1.110 -1.4996 -0.9396 -0.8690
15221TIP3    H267079   5.231   0.795   1.205 -0.1193  0.6922 -0.6855
15222TIP3   OH267080   5.338   5.137   4.201 -0.5457  0.2493  0.3713
15222TIP3    H167081   5.310   5.053   4.165 -1.0437  0.5683 -0.0117
15222TIP3    H267082   5.322   5.130   4.295  0.0146 -0.3063  0.4297
15223TIP3   OH267083   3.893   1.360   4.090  0.0082  0.7287 -0.1143
15223TIP3    H167084   3.949   1.391   4.019 -1.0925  2.1173 -0.4133
15223TIP3    H267085   3.834   1.297   4.049 -1.0425  1.9936 -0.6072
15224TIP3   OH267086   3.076   3.199   3.269  0.1112  0.3965 -0.6331
15224TIP3    H167087   3.004   3.138   3.252 -0.9566  0.9972  1.4341
15224TIP3    H267088   3.033   3.285   3.274  1.1516  0.9258 -0.5603
15225TIP3   OH267089   2.985   2.265   5.573  0.5680  0.1331  0.1856
15225TIP3    H167090   3.057   2.202   5.576  0.8296  0.4517  1.1499
15225TIP3    H267091   3.018   2.336   5.518  0.2041 -0.6282 -1.0482
15226TIP3   OH267092   6.186   4.499   0.359  0.5142  0.1828  0.2600
15226TIP3    H167093   6.149   4.421   0.398 -0.4267 -0.3229 -1.5487
15226TIP3    H267094   6.152   4.571   0.412 -0.9969 -0.4447  0.1698
15227TIP3   OH267095   2.790   6.438   3.069  0.0605 -0.4152 -0.0128
15227TIP3    H167096   2.832   6.450   2.984 -1.9085  0.3521 -0.9557
15227TIP3    H267097   2.743   6.355   3.061 -1.7965  0.6131 -0.4993
15228TIP3   OH267098   2.318   2.660   1.869 -0.0937  0.1903 -0.2024
15228TIP3    H167099   2.249   2.602   1.836 -1.0065  0.8982  0.4016
15228TIP3    H267100   2.270   2.728   1.916  1.0941  0.0281  1.2878
15229TIP3   OH267101   3.671   1.453  13.248 -0.5087  0.0867  0.5726
15229TIP3    H167102   3.707   1.368  13.224  0.4741  0.5261  0.4460
15229TIP3    H267103   3.599   1.467  13.186  1.3011  0.7300 -1.5135
15230TIP3   OH267104   6.163   4.310   0.896 -0.1306 -0.6009  0.0123
15230TIP3    H167105   6.207   4.261   0.827  0.8237  0.6053 -0.2754
15230TIP3    H267106   6.232   4.329   0.960 -0.4922  0.2534  0.1710
15231TIP3   OH267107   1.200   5.363   4.813  0.4492 -0.0065  0.3136
15231TIP3    H167108   1.292   5.339   4.799  0.5575  0.9820 -0.8580
15231TIP3    H267109   1.204   5.444   4.864  0.2629  0.3681 -0.2536
15232TIP3   OH267110   3.642   3.692  11.299  0.3061  0.0502 -0.5289
15232TIP3    H167111   3.627   3.787  11.294 -1.6053 -0.2369 -1.1300
15232TIP3    H267112   3.737   3.683  11.297  0.5434  1.9562 -0.3405
15233TIP3   OH267113   1.649   4.892   3.981 -0.2977 -0.5236 -0.3521
15233TIP3    H167114   1.590   4.892   3.905 -2.1896  0.5663  1.0428
15233TIP3    H267115   1.730   4.930   3.947 -0.2835 -2.1543 -2.3579
15234TIP3   OH267116   5.632   5.545  17.054 -0.1468  0.1515 -0.2243
15234TIP3    H167117   5.663   5.618  17.001 -0.5143  0.2364 -0.3255
15234TIP3    H267118   5.668   5.562  17.141 -0.2921  0.4958 -0.2291
15235TIP3   OH267119   1.440   1.638  12.842  0.0337  0.5620 -0.0305
15235TIP3    H167120   1.457   1.710  12.781  2.0064  0.6735  0.5897
15235TIP3    H267121   1.515   1.579  12.831 -1.1750 -1.0612 -0.0042
15236TIP3   OH267122   5.552   0.363  13.740  0.0400  0.5494  0.0765
15236TIP3    H167123   5.587   0.450  13.722 -0.7145  1.0141  0.7680
15236TIP3    H267124   5.513   0.334  13.657  2.2333 -0.1095 -0.8051
15237TIP3   OH267125   5.251   6.620  11.919  0.1459  0.6817  0.5460
15237TIP3    H167126   5.232   6.561  11.846  2.5743  0.4561  0.0321
15237TIP3    H267127   5.193   6.695  11.905  0.8611  0.8374 -1.8821
15238TIP3   OH267128   3.394   3.423   3.656 -0.0808 -0.4242  0.4119
15238TIP3    H167129   3.326   3.381   3.709 -2.0916  0.5898 -1.2526
15238TIP3    H267130   3.429   3.492   3.713 -0.7801 -0.6543  1.1436
15239TIP3   OH267131   1.691   1.466   1.463  0.2420 -0.3463  0.1047
15239TIP3    H167132   1.696   1.560   1.446 -0.2723 -0.3329  0.0008
15239TIP3    H267133   1.604   1.441   1.433  0.4316 -0.8888 -0.0061
15240TIP3   OH267134   4.087   2.129   4.829  0.0175 -0.1579  0.4519
15240TIP3    H167135   4.109   2.045   4.790  2.0994 -0.5478  2.1978
15240TIP3    H267136   4.123   2.194   4.769 -2.2009 -0.4051 -1.2517
15241TIP3   OH267137   4.313   6.395  15.277  0.1988 -0.0436  0.7670
15241TIP3    H167138   4.353   6.393  15.364  0.5922 -1.9472  0.5893
15241TIP3    H267139   4.227   6.435  15.291  1.9935  4.3224  1.1265
15242TIP3   OH267140   3.541   4.778   5.594  0.3257 -0.0005 -0.0434
15242TIP3    H167141   3.570   4.691   5.622 -1.0326 -0.0337  1.3975
15242TIP3    H267142   3.517   4.823   5.675  2.9893  2.5429 -0.5419
15243TIP3   OH267143   0.552   3.285   0.797  0.4272  0.0698  0.1058
15243TIP3    H167144   0.456   3.284   0.804  0.2458 -0.4240 -1.7112
15243TIP3    H267145   0.570   3.350   0.729  1.1995 -1.3371 -1.0987
15244TIP3   OH267146   0.635   4.342   2.187  0.0881 -0.1019 -0.0402
15244TIP3    H167147   0.653   4.430   2.154  0.1356  0.1117  0.5436
15244TIP3    H267148   0.539   4.337   2.193  0.1121  1.1789  3.2051
15245TIP3   OH267149   5.970   5.290  15.534  0.1380  0.1508 -0.1301
15245TIP3    H167150   6.021   5.281  15.454  2.9925 -1.1235  1.6618
15245TIP3    H267151   5.936   5.202  15.551 -0.4090  0.4027  0.0915
15246TIP3   OH267152   5.941   3.110  11.728  0.0355 -0.7556 -0.0899
15246TIP3    H167153   5.922   3.188  11.677 -1.8514 -0.5218  0.8766
15246TIP3    H267154   6.024   3.130  11.772 -0.0166  0.3795 -0.4779
15247TIP3   OH267155   3.081   0.603   1.768 -0.3582  0.5962 -0.3768
15247TIP3    H167156   3.108   0.542   1.836  0.9763  1.0434 -0.4726
15247TIP3    H267157   3.033   0.672   1.815 -0.4192  0.3357 -0.0528
15248TIP3   OH267158   2.210   5.349   5.898  0.0736 -0.3699  0.0558
15248TIP3    H167159   2.234   5.383   5.984  0.5201 -1.0761  0.2180
15248TIP3    H267160   2.292   5.345   5.850  0.1269 -1.6814  0.2156
15249TIP3   OH267161   5.542   2.158  13.435  0.0432  0.3989  0.0933
15249TIP3    H167162   5.463   2.130  13.481 -0.8458 -0.3196 -1.7874
15249TIP3    H267163   5.556   2.248  13.464 -1.4131  0.5072  0.5439
15250TIP3   OH267164   3.071   6.124   0.162 -0.3656 -0.4483 -0.1269
15250TIP3    H167165   3.045   6.052   0.105 -2.3599  0.6083 -0.6282
15250TIP3    H267166   3.045   6.096   0.250 -2.2909  0.1236 -0.4791
15251TIP3   OH267167   0.494   6.659  13.520 -0.8194  0.3106 -0.6235
15251TIP3    H167168   0.492   6.600  13.445 -1.2556  2.5095 -2.4379
15251TIP3    H267169   0.562   6.723  13.499 -0.8433  0.9038  0.9305
15252TIP3   OH267170   6.489   3.340   1.368  0.0968  0.5772 -0.0508
15252TIP3    H167171   6.568   3.370   1.413 -0.4431  0.4075  1.0429
15252TIP3    H267172   6.430   3.312   1.439 -0.8255  0.4176 -0.8613
15253TIP3   OH267173   3.323   1.586   5.621  0.3547  0.3419 -0.3570
15253TIP3    H167174   3.302   1.498   5.652 -1.1885  0.5362 -0.7755
15253TIP3    H267175   3.337   1.637   5.701  3.7479 -0.7514 -0.0720
15254TIP3   OH267176   2.380   3.214   0.001 -0.2317  0.1514 -0.0165
15254TIP3    H167177   2.352   3.267  -0.073  1.9187 -0.7100 -1.5529
15254TIP3    H267178   2.372   3.272   0.077 -1.7180  1.3150 -1.0024
15255TIP3   OH267179   2.048   0.299   3.392 -0.0550 -0.2829  0.1465
15255TIP3    H167180   2.068   0.392   3.399  0.5330 -0.4431  0.6314
15255TIP3    H267181   2.057   0.280   3.299 -2.4402  0.6324 -0.3650
15256TIP3   OH267182   4.985   4.415   4.188 -0.0764  0.2863 -0.1712
15256TIP3    H167183   5.069   4.379   4.160 -0.1521 -0.8269  0.9343
15256TIP3    H267184   4.931   4.414   4.110 -0.1293 -2.2361 -0.1686
15257TIP3   OH267185   3.924   6.175  16.384 -0.5985 -0.3248 -0.0902
15257TIP3    H167186   3.948   6.262  16.415 -0.2008 -0.5101  0.1319
15257TIP3    H267187   3.998   6.148  16.329 -0.7846 -0.4665 -0.2741
15258TIP3   OH267188   6.129   5.949  12.528  0.2541 -0.0743 -0.3086
15258TIP3    H167189   6.171   6.007  12.463  1.1138 -2.2268 -1.8103
15258TIP3    H267190   6.037   5.949  12.504  0.4750 -0.4019 -1.2151
15259TIP3   OH267191   4.482   2.713  12.625 -0.3112 -0.1525  0.1165
15259TIP3    H167192   4.438   2.762  12.555  0.2771  0.5032  0.1956
15259TIP3    H267193   4.413   2.659  12.663 -0.7404 -0.1788 -0.6693
15260TIP3   OH267194   0.352   4.564   0.892 -0.5885  0.1474 -0.2118
15260TIP3    H167195   0.367   4.584   0.984  0.2853  1.6613 -0.6581
15260TIP3    H267196   0.378   4.472   0.883  0.3417  0.2833  0.8430
15261TIP3   OH267197   6.531   4.419  15.057  0.1430 -0.3959 -0.3286
15261TIP3    H167198   6.490   4.466  14.985 -1.6183  0.2569  1.0302
15261TIP3    H267199   6.465   4.354  15.083  2.1889 -3.2778 -1.6717
15262TIP3   OH267200   3.410   1.518  16.115  0.3168  0.0524 -0.0266
15262TIP3    H167201   3.396   1.532  16.022 -1.0067  0.4714  0.2171
15262TIP3    H267202   3.399   1.423  16.127  1.8321 -0.2075 -0.4861
15263TIP3   OH267203   6.619   3.087   3.136  0.1968 -0.5807 -0.4321
15263TIP3    H167204   6.684   3.153   3.112 -1.4059  1.6439  1.0244
15263TIP3    H267205   6.537   3.118   3.099 -0.5608 -1.9804 -0.0107
15264TIP3   OH267206   4.633   2.637   0.767 -0.1858 -0.6501  0.3863
15264TIP3    H167207   4.571   2.641   0.839 -1.1573 -0.8697 -0.4155
15264TIP3    H267208   4.614   2.715   0.714  1.0104 -0.0948  0.7478
15265TIP3   OH267209   1.564   1.053  16.119  0.6417  0.1636  0.3680
15265TIP3    H167210   1.482   1.005  16.126  0.1559  0.6963 -1.3640
15265TIP3    H267211   1.558   1.120  16.188 -1.5286  1.8080 -1.2957
15266TIP3   OH267212   4.950   3.546   4.980  0.4377 -0.5865 -0.6857
15266TIP3    H167213   5.016   3.479   5.000 -0.4167 -1.1415  0.3513
15266TIP3    H267214   4.877   3.497   4.943  0.0207 -0.1537 -0.4407
15267TIP3   OH267215   4.779   5.225  11.238 -0.8577 -0.5178 -0.3439
15267TIP3    H167216   4.769   5.314  11.204 -0.8837  0.6895  2.5388
15267TIP3    H267217   4.698   5.180  11.213 -2.2616  1.2567  0.8024
15268TIP3   OH267218   1.251   3.619   1.908  0.1092  0.2929  0.5487
15268TIP3    H167219   1.250   3.645   1.816  0.2283  0.2839  0.5445
15268TIP3    H267220   1.297   3.535   1.909 -2.0557 -0.9638  0.2994
15269TIP3   OH267221   1.444   5.289  15.020  0.4346 -0.1210 -0.3176
15269TIP3    H167222   1.449   5.206  15.069 -0.6984 -2.1231 -3.3338
15269TIP3    H267223   1.531   5.327  15.030  0.9883 -1.6252  1.1836
15270TIP3   OH267224   1.193   2.886  15.755 -0.1111  0.4167 -0.1746
15270TIP3    H167225   1.214   2.805  15.708  0.7704  1.5445 -1.7865
15270TIP3    H267226   1.123   2.860  15.816 -0.9483 -1.2261 -1.7221
15271TIP3   OH267227   6.706   1.206  11.371  0.4841  0.1323  0.0062
15271TIP3    H167228   6.779   1.172  11.319  1.4619  1.7307  0.2389
15271TIP3    H267229   6.740   1.211  11.460 -0.1900  0.1234  0.2696
15272TIP3   OH267230   2.247   4.507   1.703  0.1238  0.1098  0.1889
15272TIP3    H167231   2.217   4.550   1.783 -0.0717 -0.7024  0.5514
15272TIP3    H267232   2.278   4.579   1.648 -2.0794  0.9581 -0.0442
15273TIP3   OH267233   6.260   3.815   4.649 -0.5916 -0.4633  0.4417
15273TIP3    H167234   6.340   3.767   4.671  0.2521  0.7333  0.1069
15273TIP3    H267235   6.224   3.841   4.734 -0.2245 -0.3817  0.5753
15274TIP3   OH267236   2.566   5.014  15.138  0.3308  0.0551  0.4690
15274TIP3    H167237   2.552   5.070  15.215  2.6523 -0.8380  1.6550
15274TIP3    H267238   2.497   4.949  15.143 -0.0102  0.4666  1.3731
15275TIP3   OH267239   2.117   1.022  14.371  0.5291  0.0117 -0.1984
15275TIP3    H167240   2.047   1.026  14.436  2.0759  1.4764  1.4919
15275TIP3    H267241   2.099   0.942  14.322 -2.1945  0.2233  0.2584
15276TIP3   OH267242   4.016   0.878  14.237 -0.6116  0.3693  0.1800
15276TIP3    H167243   4.090   0.881  14.178  0.9569 -0.6564  1.9705
15276TIP3    H267244   3.981   0.789  14.227  1.0237 -0.5882  2.2454
15277TIP3   OH267245   4.152   6.072  11.026  0.0282  0.5657  0.7540
15277TIP3    H167246   4.149   6.062  10.930 -0.4204  0.0444  0.8193
15277TIP3    H267247   4.204   5.997  11.056  0.5640  0.9893  0.8809
15278TIP3   OH267248   6.424   1.471  14.127  0.1295  0.3492 -0.3775
15278TIP3    H167249   6.434   1.399  14.190 -0.8965 -0.8544 -1.5311
15278TIP3    H267250   6.428   1.550  14.181  1.6057 -0.5255  0.8993
15279TIP3   OH267251   2.629   0.849  15.449  0.1705 -0.5285  0.1433
15279TIP3    H167252   2.692   0.791  15.406  0.3445 -0.4747  0.3224
15279TIP3    H267253   2.622   0.815  15.538  0.0162 -0.4791  0.1502
15280TIP3   OH267254   6.139   6.743   4.829 -0.3094 -0.1026 -0.6305
15280TIP3    H167255   6.125   6.688   4.905  2.4863 -4.1730 -2.6997
15280TIP3    H267256   6.068   6.721   4.769 -0.5173  0.4328 -0.5925
15281TIP3   OH267257   3.605   3.462   1.340 -0.6142 -0.5539 -0.6249
15281TIP3    H167258   3.669   3.392   1.330 -1.7050 -1.8668  1.0319
15281TIP3    H267259   3.550   3.456   1.262  0.3041 -0.4317 -1.2945
15282TIP3   OH267260   2.049   4.069   2.127 -0.2859 -1.1528 -0.2862
15282TIP3    H167261   2.030   4.031   2.212 -0.4293  1.3569  0.9048
15282TIP3    H267262   1.964   4.071   2.082 -0.2626 -2.2119 -0.3913
15283TIP3   OH267263   1.683   2.380  15.429 -0.1191 -0.1796 -0.0726
15283TIP3    H167264   1.725   2.439  15.367 -1.5203  1.1651  0.1901
15283TIP3    H267265   1.707   2.414  15.515 -2.4999  1.2856  0.0985
15284TIP3   OH267266   5.144   3.144   6.157 -0.0810  0.0510 -0.3349
15284TIP3    H167267   5.074   3.199   6.194 -0.7641 -0.6673 -0.5448
15284TIP3    H267268   5.200   3.124   6.232 -1.4330 -1.3543  0.3478
15285TIP3   OH267269   0.423   4.658   1.875  0.0521 -0.0431  0.7546
15285TIP3    H167270   0.459   4.648   1.963 -0.8063 -1.1096  1.0059
15285TIP3    H267271   0.359   4.729   1.883  1.1367  0.9812  0.5956
15286TIP3   OH267272   5.688   4.312  14.562  0.2575  0.5023  0.2021
15286TIP3    H167273   5.744   4.384  14.591  1.7027 -0.7902  0.7471
15286TIP3    H267274   5.734   4.274  14.488  0.2482 -0.7355  0.8112
15287TIP3   OH267275   4.749   0.164  12.936  0.2364 -0.3950  0.0585
15287TIP3    H167276   4.810   0.091  12.944  0.9598  0.2028  0.1502
15287TIP3    H267277   4.675   0.128  12.888  0.3491 -1.3228  0.5450
15288TIP3   OH267278   5.159   6.504  12.449  0.1914  0.0040 -0.8997
15288TIP3    H167279   5.181   6.505  12.356  1.8187 -0.0684 -0.5551
15288TIP3    H267280   5.069   6.473  12.452 -0.8009  2.3978 -2.5911
15289TIP3   OH267281   5.105   0.034   3.472 -0.1498 -0.0306 -0.0026
15289TIP3    H167282   5.062  -0.051   3.481  2.3098 -1.3832 -0.2334
15289TIP3    H267283   5.075   0.067   3.387  0.4881 -1.6776 -0.8981
15290TIP3   OH267284   3.009   1.355  11.024  0.0475 -0.7471  0.4240
15290TIP3    H167285   3.054   1.332  11.105 -0.4918 -1.8660  0.4174
15290TIP3    H267286   2.926   1.393  11.052  0.1310 -0.5505  0.4045
15291TIP3   OH267287   4.632   4.080   0.098 -0.0142 -0.3240 -0.5155
15291TIP3    H167288   4.562   4.130   0.142  0.1239 -0.8063  0.2642
15291TIP3    H267289   4.699   4.146   0.079  1.0015 -0.4491  2.1820
15292TIP3   OH267290   1.766   3.839   1.123 -1.0066  0.4734  0.1071
15292TIP3    H167291   1.807   3.754   1.109  0.2303  1.0031  0.4049
15292TIP3    H267292   1.807   3.896   1.059  0.9190  1.6997  2.3109
15293TIP3   OH267293   5.612   3.903  17.141 -0.4829 -0.2351 -0.4646
15293TIP3    H167294   5.566   3.823  17.115  1.7362 -1.9590  0.4865
15293TIP3    H267295   5.627   3.893  17.235 -0.7966  1.7008 -0.1662
15294TIP3   OH267296   2.310   3.968  12.796 -0.1832 -0.1151  0.3566
15294TIP3    H167297   2.317   3.937  12.705 -2.2908  0.1417  0.0647
15294TIP3    H267298   2.291   3.889  12.846  1.0671 -0.2704  0.6170
15295TIP3   OH267299   3.876   5.521  12.103 -0.1068 -0.6791  0.4984
15295TIP3    H167300   3.902   5.545  12.014 -0.1545 -0.5164  0.5288
15295TIP3    H267301   3.946   5.462  12.133  1.4110  1.4247  1.3685
15296TIP3   OH267302   2.484   4.795  11.439 -0.0219 -0.3507 -0.0844
15296TIP3    H167303   2.518   4.706  11.442 -0.5678 -0.6504 -1.7800
15296TIP3    H267304   2.389   4.784  11.440 -0.1044  0.3029  1.0549
15297TIP3   OH267305   5.134   4.220   2.913 -0.1310  0.3746  0.0608
15297TIP3    H167306   5.118   4.309   2.882  0.8638  0.9897  1.2425
15297TIP3    H267307   5.079   4.212   2.990  1.4516  0.7816  1.2731
15298TIP3   OH267308   1.390   3.264  16.485 -0.2354  0.4526  0.1082
15298TIP3    H167309   1.367   3.218  16.404  2.1820  0.4821 -0.6677
15298TIP3    H267310   1.451   3.206  16.529  1.6081  2.1476 -0.0906
15299TIP3   OH267311   2.965   0.136   0.332 -0.1376  0.1817 -0.2624
15299TIP3    H167312   2.935   0.051   0.300 -0.1594  0.0571  0.0807
15299TIP3    H267313   2.897   0.198   0.303 -0.3458  0.0153 -0.1385
15300TIP3   OH267314   2.026   4.760   3.530  0.5124 -0.2943 -0.2680
15300TIP3    H167315   2.031   4.669   3.501  1.9154 -1.3692  2.8739
15300TIP3    H267316   1.967   4.759   3.605 -0.7759  1.7694 -1.1550
15301TIP3   OH267317   1.221   0.911  17.068  0.2148  0.0510 -0.0369
15301TIP3    H167318   1.172   0.828  17.065  0.9742 -0.3682 -1.5974
15301TIP3    H267319   1.311   0.886  17.049  0.4927  1.2034 -0.2659
15302TIP3   OH267320   1.864   3.735  16.061 -0.0296  0.2107 -0.3256
15302TIP3    H167321   1.866   3.766  16.151 -1.4605  0.6536 -0.4283
15302TIP3    H267322   1.772   3.739  16.036  0.4285  0.8318 -2.0661
15303TIP3   OH267323   1.531   3.397   0.930  0.3555 -0.2545 -0.4550
15303TIP3    H167324   1.476   3.440   0.864  0.6071 -1.5042 -1.5221
15303TIP3    H267325   1.586   3.336   0.880  0.5453 -1.2514  0.9048
15304TIP3   OH267326   1.522   4.072   2.584 -0.1931 -0.6319  0.0347
15304TIP3    H167327   1.493   4.036   2.501 -0.9779 -0.7971  0.3773
15304TIP3    H267328   1.472   4.152   2.595  0.4253 -0.2327  0.0175
15305TIP3   OH267329   0.036   2.155  12.837 -0.1965  0.2898 -0.1217
15305TIP3    H167330  -0.011   2.223  12.788  1.2722  0.7000 -1.0673
15305TIP3    H267331   0.093   2.204  12.897  0.3889 -0.1055 -0.3400
15306TIP3   OH267332   0.958   5.861  16.915 -0.0531 -0.2000 -0.1244
15306TIP3    H167333   0.968   5.881  17.008 -0.7586 -2.6588  0.5577
15306TIP3    H267334   0.864   5.860  16.900  0.0145 -0.9835 -0.5678
15307TIP3   OH267335   0.729   2.860  15.037 -0.4403  0.6695 -0.1729
15307TIP3    H167336   0.651   2.892  14.991 -0.3659  2.2173  0.7375
15307TIP3    H267337   0.794   2.848  14.968 -1.0963  0.5310 -0.7856
15308TIP3   OH267338   6.028   5.588   2.695 -0.4987  0.0511  0.2275
15308TIP3    H167339   6.014   5.516   2.634  0.1795  0.7723 -0.8062
15308TIP3    H267340   5.956   5.649   2.678 -0.5117  0.0854  0.4009
15309TIP3   OH267341   4.487   5.983  13.822 -0.5893  0.3466 -0.2200
15309TIP3    H167342   4.404   6.029  13.833  0.5495  2.1214  1.4905
15309TIP3    H267343   4.534   6.035  13.756 -0.3094  0.1134 -0.2054
15310TIP3   OH267344   6.620   2.161   0.451  0.2340 -0.1764  0.5259
15310TIP3    H167345   6.610   2.139   0.358 -0.2800 -0.2163  0.5897
15310TIP3    H267346   6.554   2.108   0.495 -1.2817  1.6972  0.6626
15311TIP3   OH267347   0.900   3.606   2.163 -0.0371  0.2498 -0.0332
15311TIP3    H167348   0.980   3.658   2.152 -0.6972  1.1359 -0.8837
15311TIP3    H267349   0.847   3.657   2.224 -0.9505  0.9430 -1.3517
15312TIP3   OH267350   5.369   5.030  17.180 -0.2243  0.0733  0.4618
15312TIP3    H167351   5.317   5.108  17.160 -0.3677 -0.1434 -0.0178
15312TIP3    H267352   5.450   5.041  17.130  0.4558  0.6902  1.6617
15313TIP3   OH267353   2.725   4.585   2.797  0.5545  0.9515  0.0970
15313TIP3    H167354   2.728   4.516   2.864 -0.3310  0.9634  0.1687
15313TIP3    H267355   2.790   4.559   2.732 -0.2268 -0.3217 -0.2171
15314TIP3   OH267356   5.835   5.904   1.106  0.3125 -0.0593 -0.5854
15314TIP3    H167357   5.829   5.971   1.038 -0.4226  0.0123 -0.4554
15314TIP3    H267358   5.746   5.870   1.114 -0.0327  1.2370  1.6452
15315TIP3   OH267359   4.776   1.213   5.052 -0.0893  0.9029 -0.1389
15315TIP3    H167360   4.778   1.158   4.974 -0.2689  0.3951  0.2072
15315TIP3    H267361   4.859   1.261   5.049  0.7735 -0.4695  0.2988
15316TIP3   OH267362   3.773   3.584  15.576 -0.0829 -0.4132 -0.4731
15316TIP3    H167363   3.748   3.647  15.643 -1.1882 -1.4193  0.1135
15316TIP3    H267364   3.696   3.577  15.520  0.3469 -0.5709 -1.0446
15317TIP3   OH267365   2.189   0.344   0.318  0.8701  0.0174 -0.3017
15317TIP3    H167366   2.120   0.277   0.325  0.2270  0.7701  0.8428
15317TIP3    H267367   2.189   0.387   0.403  0.5384  2.1694 -1.3269
15318TIP3   OH267368   4.189   2.129  15.472 -0.5391  0.1699  0.0185
15318TIP3    H167369   4.178   2.176  15.389 -2.7678 -0.0932  0.0926
15318TIP3    H267370   4.228   2.046  15.447 -2.1912 -0.3582 -0.9797
15319TIP3   OH267371   6.089   6.601  14.504  0.1734 -0.0341  0.6055
15319TIP3    H167372   6.120   6.513  14.525 -1.9040 -0.6328  1.3803
15319TIP3    H267373   6.078   6.601  14.409 -0.0989 -0.7180  0.6348
15320TIP3   OH267374   5.026   3.220  16.552 -0.2998 -0.2482  0.7619
15320TIP3    H167375   5.025   3.314  16.565  2.4089  0.7011 -3.9480
15320TIP3    H267376   4.946   3.201  16.502 -0.3431 -0.3238  0.8583
15321TIP3   OH267377   1.846   6.778  16.002 -0.1798  0.1511 -0.0936
15321TIP3    H167378   1.843   6.835  16.078  0.4879  0.7429 -0.4993
15321TIP3    H267379   1.792   6.822  15.937 -0.6413 -0.2861 -0.0095
15322TIP3   OH267380   6.311   3.184  14.612  0.4663  0.1045  0.0432
15322TIP3    H167381   6.230   3.161  14.656  1.1428 -1.9308  0.3088
15322TIP3    H267382   6.300   3.153  14.522  1.0687 -0.5505  0.1815
15323TIP3   OH267383   3.485   6.667   4.352  0.1372 -0.1283 -0.5803
15323TIP3    H167384   3.524   6.600   4.409  1.8871  0.1248 -1.4055
15323TIP3    H267385   3.408   6.625   4.315 -0.6686 -0.5183  1.4442
15324TIP3   OH267386   4.930   4.954   4.372  0.4728 -0.0744 -0.0315
15324TIP3    H167387   4.875   4.973   4.448 -0.3067 -0.7315 -0.4161
15324TIP3    H267388   4.949   4.861   4.377  0.3872 -0.1328 -0.6551
15325TIP3   OH267389   6.255   3.909   5.465  0.1600  0.8322 -0.8386
15325TIP3    H167390   6.210   3.979   5.419  0.2380  0.1955 -1.9329
15325TIP3    H267391   6.296   3.951   5.540 -2.2741  1.4173  0.2486
15326TIP3   OH267392   0.744   3.985   6.356 -0.0308 -0.5833  0.0704
15326TIP3    H167393   0.814   3.919   6.364 -0.5049 -1.0910  0.0831
15326TIP3    H267394   0.664   3.934   6.353 -0.2925 -0.1477 -2.2919
15327TIP3   OH267395   6.544   1.336   5.951  0.2977  0.1537  0.4007
15327TIP3    H167396   6.482   1.409   5.942 -1.5536 -1.2013  1.3283
15327TIP3    H267397   6.558   1.329   6.046 -1.2832 -1.9708  0.5513
15328TIP3   OH267398   1.872   2.108   3.844  0.3360  0.1185  0.1713
15328TIP3    H167399   1.826   2.036   3.802  0.3785  0.2385 -0.0808
15328TIP3    H267400   1.943   2.067   3.893 -0.3652 -0.1257  1.0190
15329TIP3   OH267401   5.809   4.271   0.730 -0.3532 -0.6039  0.2368
15329TIP3    H167402   5.735   4.319   0.693 -1.0127 -1.1729  0.7855
15329TIP3    H267403   5.794   4.273   0.824  0.3308 -0.7373  0.3540
15330TIP3   OH267404   5.665   5.115   1.962  0.1978 -0.2212 -0.0429
15330TIP3    H167405   5.635   5.060   2.035  2.8753 -0.2070  1.1841
15330TIP3    H267406   5.724   5.058   1.912 -0.3379  0.2880 -1.3102
15331TIP3   OH267407   1.259   2.262   4.388  0.3151 -0.0633  0.2029
15331TIP3    H167408   1.174   2.249   4.430  1.3477  0.3536  2.6528
15331TIP3    H267409   1.313   2.190   4.422  1.1017 -0.0012 -0.8661
15332TIP3   OH267410   2.763   1.350  14.842 -0.4266 -0.5801 -0.5660
15332TIP3    H167411   2.843   1.304  14.866  0.2828  0.3842 -0.9941
15332TIP3    H267412   2.700   1.326  14.910 -0.0930 -2.1523 -0.7855
15333TIP3   OH267413   1.570   1.958   2.190 -0.7458 -0.5177  0.3226
15333TIP3    H167414   1.496   1.907   2.157 -1.7928  0.8964  0.4019
15333TIP3    H267415   1.633   1.959   2.118 -0.9303 -1.4753  0.1412
15334TIP3   OH267416   5.478   3.848   3.613 -0.2677  0.2205  0.0935
15334TIP3    H167417   5.386   3.852   3.586 -0.7083  0.3489  1.5123
15334TIP3    H267418   5.512   3.935   3.593 -0.1191 -0.1688 -1.4785
15335TIP3   OH267419   3.963   6.375  17.025  0.1663 -0.3582  0.0025
15335TIP3    H167420   3.992   6.407  17.110  0.3335 -1.6249  0.4550
15335TIP3    H267421   4.022   6.302  17.005 -0.3774 -0.5976 -0.8129
15336TIP3   OH267422   6.427   0.236   2.672 -0.3223 -0.0116 -0.9410
15336TIP3    H167423   6.377   0.252   2.592  0.0495 -2.0399 -1.6332
15336TIP3    H267424   6.363   0.244   2.743 -0.3812  3.2932 -1.1984
15337TIP3   OH267425   6.407   4.118  12.928  0.1418  0.4408  0.4780
15337TIP3    H167426   6.376   4.199  12.969  1.2153  0.0431  2.1713
15337TIP3    H267427   6.496   4.138  12.899  0.5473 -0.2074  1.2351
15338TIP3   OH267428   5.461   1.000   0.892 -0.0831  0.1726 -0.0046
15338TIP3    H167429   5.538   1.021   0.840  0.8051  0.1904  1.2974
15338TIP3    H267430   5.414   1.084   0.900  0.3630  0.4030  0.1880
15339TIP3   OH267431   3.382   0.035  12.373 -0.7104  0.0662  0.6693
15339TIP3    H167432   3.294   0.004  12.354 -0.1331 -0.5057 -1.3174
15339TIP3    H267433   3.383   0.126  12.341 -0.6549  0.1599  0.9360
15340TIP3   OH267434   3.055   4.602  15.320  0.3107  0.3836  0.6128
15340TIP3    H167435   2.986   4.619  15.256 -0.0578 -0.2023  0.8446
15340TIP3    H267436   3.013   4.618  15.405  0.4872  0.1388  0.7490
15341TIP3   OH267437   5.820   4.109  12.964  0.2101 -0.3616  0.0321
15341TIP3    H167438   5.876   4.186  12.966  0.8989 -0.8597  0.4879
15341TIP3    H267439   5.744   4.133  13.018  0.7709 -0.2583  0.7954
15342TIP3   OH267440   4.087   2.163   3.546 -0.3891 -0.5961  0.4989
15342TIP3    H167441   4.053   2.115   3.471 -0.4821  0.4377 -0.1448
15342TIP3    H267442   4.012   2.209   3.582  0.1756  1.4549 -0.7475
15343TIP3   OH267443   4.220   2.892  13.881 -0.4171 -0.1993 -0.0782
15343TIP3    H167444   4.256   2.850  13.959  0.1824 -0.9609 -0.7464
15343TIP3    H267445   4.288   2.881  13.814 -0.6479  1.0121 -0.5374
15344TIP3   OH267446   0.699   0.534  14.132 -0.2337  0.3419 -0.8319
15344TIP3    H167447   0.771   0.484  14.171  0.0259  2.5877  1.8799
15344TIP3    H267448   0.652   0.470  14.079  1.3489 -2.2213  0.6277
15345TIP3   OH267449   1.307   6.355  14.014  0.5194  0.0749  0.1289
15345TIP3    H167450   1.340   6.399  14.093  3.3061 -2.4834  0.5729
15345TIP3    H267451   1.385   6.318  13.973 -1.2260 -1.3636 -2.1490
15346TIP3   OH267452   4.552   0.033  11.186  0.3594  0.3379 -0.3824
15346TIP3    H167453   4.476  -0.020  11.211  0.5373  0.1272 -0.2884
15346TIP3    H267454   4.530   0.067  11.099  0.1733  0.2477 -0.3719
15347TIP3   OH267455   4.837   1.590  14.216  0.2867  0.8613 -0.1065
15347TIP3    H167456   4.818   1.555  14.303 -1.2600  0.5865 -0.5365
15347TIP3    H267457   4.913   1.539  14.186  1.2065  1.3452  1.2798
15348TIP3   OH267458   2.285   6.587  13.261  0.1106  0.0068 -0.0197
15348TIP3    H167459   2.358   6.529  13.240 -0.8907 -0.8024 -1.5285
15348TIP3    H267460   2.324   6.660  13.307  2.3493  0.9919 -3.1464
15349TIP3   OH267461   6.719   4.208  11.896 -0.1060 -0.4842  0.4672
15349TIP3    H167462   6.766   4.212  11.980  1.1189 -0.9269 -0.1691
15349TIP3    H267463   6.669   4.126  11.901  2.0165 -1.9106 -0.2218
15350TIP3   OH267464   4.647   3.593  11.685  0.2839  0.1967 -0.6926
15350TIP3    H167465   4.684   3.555  11.765  1.8356  1.8848 -0.5475
15350TIP3    H267466   4.558   3.557  11.681  0.2746 -0.2176  1.6077
15351TIP3   OH267467   6.409   3.457  13.577 -0.6765 -0.1818  0.0894
15351TIP3    H167468   6.427   3.522  13.644 -3.8185 -0.5640  1.5027
15351TIP3    H267469   6.350   3.501  13.516  1.6842 -0.0262 -2.2454
15352TIP3   OH267470   0.146   2.183   4.932 -0.0662 -0.0356  0.4979
15352TIP3    H167471   0.231   2.195   4.890  0.5188  2.6396  2.1681
15352TIP3    H267472   0.082   2.212   4.866  0.3215 -1.4142 -0.5221
15353TIP3   OH267473   0.995   6.067   0.663 -0.0747  0.0330 -0.4451
15353TIP3    H167474   0.933   6.098   0.597  0.8737 -0.7070 -1.7277
15353TIP3    H267475   0.940   6.035   0.734 -1.1192  2.7099  0.0773
15354TIP3   OH267476   4.641   4.224  13.491  0.4142  1.2333 -0.8613
15354TIP3    H167477   4.619   4.274  13.570 -0.4176  0.1419 -0.3750
15354TIP3    H267478   4.642   4.133  13.520 -0.1104  0.7930 -2.1530
15355TIP3   OH267479   3.327   6.515   4.911 -0.3796  0.1463  0.6889
15355TIP3    H167480   3.365   6.433   4.942  0.1391  0.3643  0.6441
15355TIP3    H267481   3.342   6.577   4.983 -1.3963  0.0320  1.0115
15356TIP3   OH267482   0.747   5.944   3.525 -0.1899  0.1801  0.2741
15356TIP3    H167483   0.686   5.877   3.558  0.0313 -0.2725 -0.2211
15356TIP3    H267484   0.690   6.015   3.496 -0.5262 -0.4129 -0.5841
15357TIP3   OH267485   6.276   0.348   2.453 -0.8239 -0.4116  0.5969
15357TIP3    H167486   6.184   0.338   2.473 -1.1347  0.8175 -0.0934
15357TIP3    H267487   6.278   0.384   2.364  0.2605  0.9015  1.1121
15358TIP3   OH267488   4.028   5.959  14.222  0.1189  0.0466 -0.4458
15358TIP3    H167489   3.960   5.897  14.247 -0.6323  0.8207 -0.5315
15358TIP3    H267490   3.997   5.995  14.138  1.3858 -0.7116 -1.2753
15359TIP3   OH267491   5.321   5.698   1.213  0.0240  0.7988 -0.2989
15359TIP3    H167492   5.246   5.736   1.259 -0.2889  0.6185 -0.6568
15359TIP3    H267493   5.311   5.604   1.226 -0.8865  0.6282 -1.9544
15360TIP3   OH267494   4.737   0.062  15.585  0.4806 -0.3604  0.4731
15360TIP3    H167495   4.699   0.068  15.497  0.0155  1.0665  0.7469
15360TIP3    H267496   4.663   0.035  15.640  0.3283  0.4916  0.6954
15361TIP3   OH267497   5.254   1.301   1.922 -0.7127  0.3612 -0.2215
15361TIP3    H167498   5.334   1.348   1.898 -0.5598  1.1914  1.7046
15361TIP3    H267499   5.183   1.358   1.892 -0.5285  1.4267  1.2400
15362TIP3   OH267500   1.850   1.718   0.679  0.0038 -0.2866  0.3798
15362TIP3    H167501   1.855   1.757   0.766 -0.0235  0.1949  0.1704
15362TIP3    H267502   1.790   1.644   0.689 -0.0382 -0.2018  0.7587
15363TIP3   OH267503   5.865   4.144  14.099 -0.3410 -0.1299  0.3798
15363TIP3    H167504   5.923   4.068  14.098  0.5286  0.4657  2.1304
15363TIP3    H267505   5.811   4.133  14.021  0.3215 -2.0954  0.1339
15364TIP3   OH267506   0.269   6.631  11.739  0.0900  0.0484 -0.4163
15364TIP3    H167507   0.213   6.707  11.731 -0.2733 -0.1475  0.1757
15364TIP3    H267508   0.324   6.650  11.816 -1.7077 -1.3270  1.3027
15365TIP3   OH267509   2.174   1.571   5.310 -0.4931  0.1199  0.3605
15365TIP3    H167510   2.178   1.612   5.397  1.2376  0.9373 -0.0604
15365TIP3    H267511   2.257   1.524   5.301  0.3861  1.8870 -1.6861
15366TIP3   OH267512   3.457   2.295   0.223  0.3119 -0.3595  0.3413
15366TIP3    H167513   3.504   2.343   0.291 -1.0359  0.2689  0.8728
15366TIP3    H267514   3.495   2.326   0.141  0.3857  0.6183  0.7309
15367TIP3   OH267515   1.262   1.384   2.815  0.1523 -0.2667  0.0512
15367TIP3    H167516   1.304   1.463   2.848 -1.1532  0.8735 -0.9377
15367TIP3    H267517   1.254   1.328   2.893 -0.7576  1.4211  1.2619
15368TIP3   OH267518   1.119   5.894   5.339 -0.1178  0.1365  0.0048
15368TIP3    H167519   1.134   5.949   5.416 -0.4420 -2.0251  1.7052
15368TIP3    H267520   1.031   5.858   5.351  0.8474 -2.4068  0.1115
15369TIP3   OH267521   4.751   1.777   3.665 -0.2338 -0.0116  0.1719
15369TIP3    H167522   4.679   1.762   3.727 -0.5910  0.8067 -0.0220
15369TIP3    H267523   4.719   1.739   3.583 -0.8089  1.0606 -0.1225
15370TIP3   OH267524   4.462   0.893   1.330 -0.0951 -0.0477 -0.5107
15370TIP3    H167525   4.448   0.802   1.354 -0.0508  0.5248  1.9148
15370TIP3    H267526   4.490   0.936   1.411 -1.4487  2.3956 -1.2150
15371TIP3   OH267527   4.593   6.168   5.978 -0.1918  0.7210 -0.2375
15371TIP3    H167528   4.547   6.085   5.992  1.6262 -0.2912 -0.0742
15371TIP3    H267529   4.527   6.224   5.937 -1.1763 -1.1318 -1.3479
15372TIP3   OH267530   1.984   6.731   3.312  0.2176  0.8613 -0.1400
15372TIP3    H167531   1.912   6.792   3.297 -0.7198 -0.2113 -0.1401
15372TIP3    H267532   2.059   6.771   3.267 -0.2114  2.2854  0.3701
15373TIP3   OH267533   5.667   2.181  10.543  0.2220  0.3205 -0.2564
15373TIP3    H167534   5.660   2.271  10.573  1.7895  0.2903  0.3056
15373TIP3    H267535   5.661   2.128  10.623  1.0696  0.0539 -0.3513
15374TIP3   OH267536   0.224   1.062   0.589  0.2943 -0.1644  0.3433
15374TIP3    H167537   0.205   1.131   0.652 -3.8519 -1.5288  0.8608
15374TIP3    H267538   0.190   1.094   0.506  0.3143 -0.7535  0.1027
15375TIP3   OH267539   0.980   5.081   1.524  0.2095  0.4511  0.2050
15375TIP3    H167540   0.914   5.109   1.460  2.7113  2.0011 -1.9028
15375TIP3    H267541   0.990   5.156   1.582 -0.9213 -0.3748  1.5400
15376TIP3   OH267542   0.926   5.618  12.445  0.5726  0.2727  0.0509
15376TIP3    H167543   1.020   5.625  12.460  0.9237  0.3113 -1.8459
15376TIP3    H267544   0.918   5.551  12.377 -0.7753  0.2155  0.2424
15377TIP3   OH267545   1.977   2.129   4.271 -0.2453  0.1472 -0.9933
15377TIP3    H167546   1.988   2.085   4.355 -1.9736  5.0135  2.2858
15377TIP3    H267547   2.064   2.160   4.248  0.2514 -1.2710 -1.1135
15378TIP3   OH267548   2.849   3.543  15.335 -0.3154  0.0085  0.0506
15378TIP3    H167549   2.911   3.554  15.408  0.8084 -0.5835 -0.7886
15378TIP3    H267550   2.896   3.575  15.258 -1.2743  0.0773 -0.5227
15379TIP3   OH267551   4.769   1.955  13.504 -0.1971 -0.0078  0.4143
15379TIP3    H167552   4.759   1.994  13.591  0.4878 -1.3214  1.1064
15379TIP3    H267553   4.682   1.963  13.465 -0.3930  1.0603  1.0003
15380TIP3   OH267554   4.015   1.601   3.616  0.1723 -0.0839 -0.4613
15380TIP3    H167555   3.998   1.536   3.549 -0.8229  0.3613 -0.6533
15380TIP3    H267556   4.010   1.685   3.570 -1.4414  0.2779  0.3282
15381TIP3   OH267557   2.483   2.390   0.281 -0.5391 -0.0869  0.3721
15381TIP3    H167558   2.398   2.408   0.242  1.2193  0.2948 -3.7509
15381TIP3    H267559   2.486   2.295   0.291 -2.1109  0.0099  2.6398
15382TIP3   OH267560   1.185   5.367   3.955 -0.3309  0.6883 -0.5470
15382TIP3    H167561   1.152   5.422   4.026  0.9174 -1.1652  1.6406
15382TIP3    H267562   1.251   5.421   3.912 -1.0255  1.8252 -0.2236
15383TIP3   OH267563   5.499   1.447   1.837  0.0572  0.0972 -0.9413
15383TIP3    H167564   5.497   1.423   1.745  1.0070  0.2986 -1.0194
15383TIP3    H267565   5.517   1.541   1.837 -2.1260  0.5892 -0.6002
15384TIP3   OH267566   2.991   4.374   3.043  0.0653 -0.4962 -0.1931
15384TIP3    H167567   2.968   4.349   3.132  0.8037 -1.7515 -0.3265
15384TIP3    H267568   2.907   4.397   3.002 -0.1038  1.9194  1.3104
15385TIP3   OH267569   2.690   3.537   4.748 -0.8022 -0.2619  0.3703
15385TIP3    H167570   2.739   3.533   4.830 -1.1259 -0.9076  0.5372
15385TIP3    H267571   2.756   3.549   4.681 -0.3212 -1.8650  0.5106
15386TIP3   OH267572   6.670   6.069   4.939  0.2042  0.1550 -0.5266
15386TIP3    H167573   6.575   6.072   4.926  0.1844 -1.4353 -0.8398
15386TIP3    H267574   6.696   6.161   4.943 -1.7698  0.7259  2.7280
15387TIP3   OH267575   6.137   0.488  17.011  0.6590 -0.3579 -0.1936
15387TIP3    H167576   6.211   0.492  17.072  0.4856  1.7072 -0.0444
15387TIP3    H267577   6.063   0.460  17.065  0.4964  1.4970  0.6240
15388TIP3   OH267578   3.359   1.759   5.830 -0.2026  0.0469 -0.1374
15388TIP3    H167579   3.410   1.688   5.868  0.1301  0.1446 -0.3912
15388TIP3    H267580   3.407   1.838   5.855  0.0418  0.1092 -0.7851
15389TIP3   OH267581   3.126   2.540  14.068 -0.1806 -0.2244 -0.7520
15389TIP3    H167582   3.128   2.557  14.162  0.4378 -0.8734 -0.6328
15389TIP3    H267583   3.034   2.545  14.044 -0.5347 -1.5528  0.1914
15390TIP3   OH267584   5.830   1.753  16.867 -0.2785 -0.1226 -0.2618
15390TIP3    H167585   5.835   1.668  16.911  2.0117  0.2733  0.3955
15390TIP3    H267586   5.876   1.740  16.784 -2.1726 -0.1355 -1.3758
15391TIP3   OH267587   5.175   0.919   4.897  0.5103 -0.5741 -0.2308
15391TIP3    H167588   5.144   1.005   4.926 -0.7258 -1.4827  1.2729
15391TIP3    H267589   5.259   0.907   4.942  0.4869 -0.3321 -0.1242
15392TIP3   OH267590   4.110   0.696  16.560 -0.1602 -0.4220 -0.1693
15392TIP3    H167591   4.173   0.735  16.621 -1.8129 -0.5866  1.7559
15392TIP3    H267592   4.163   0.668  16.485  1.6507  1.7616  0.2009
15393TIP3   OH267593   2.384   0.944   2.906 -0.0007  0.3752  0.1324
15393TIP3    H167594   2.329   0.913   2.834 -0.6861 -1.9338  1.5572
15393TIP3    H267595   2.324   0.990   2.964  0.0341 -0.0062  0.4772
15394TIP3   OH267596   4.680   4.432   0.241  0.1183 -0.3394  0.4633
15394TIP3    H167597   4.731   4.360   0.204  0.9596  0.0070  0.9310
15394TIP3    H267598   4.744   4.487   0.286 -0.6504  0.1504  0.9924
15395TIP3   OH267599   6.684   2.628   2.226  0.6097  0.1389 -0.4915
15395TIP3    H167600   6.714   2.551   2.273  1.6674 -0.1938 -1.6487
15395TIP3    H267601   6.739   2.699   2.260 -0.9279  0.5778  1.1727
15396TIP3   OH267602   1.877   4.161  10.580  0.0349  0.0169  0.0438
15396TIP3    H167603   1.938   4.189  10.512  0.4339  0.7115  0.6830
15396TIP3    H267604   1.898   4.215  10.656  0.4145 -1.5702  1.1171
15397TIP3   OH267605   0.324   1.808   0.010  0.3257  0.3875 -0.1679
15397TIP3    H167606   0.242   1.852  -0.011  0.5449  0.8934  0.0168
15397TIP3    H267607   0.379   1.876   0.049  0.8817  0.0849 -0.4078
15398TIP3   OH267608   3.834   6.731  12.457  0.3183  0.3785 -0.1198
15398TIP3    H167609   3.796   6.652  12.495 -1.9602  1.7499  0.6382
15398TIP3    H267610   3.885   6.770  12.529  2.1193 -0.7388 -0.7265
15399TIP3   OH267611   1.377   5.242   0.438  0.4556  0.1338  0.2932
15399TIP3    H167612   1.322   5.203   0.506  0.4791 -0.4396 -0.0071
15399TIP3    H267613   1.466   5.230   0.469  0.4394  0.4710  0.4715
15400TIP3   OH267614   3.395   2.053  16.362 -0.1285 -0.1507  0.2302
15400TIP3    H167615   3.409   1.961  16.340 -0.8546  0.1071 -1.4040
15400TIP3    H267616   3.408   2.057  16.457  2.2331 -1.4961  0.0443
15401TIP3   OH267617   2.036   5.221  10.885  0.0439  0.3179  0.0536
15401TIP3    H167618   2.074   5.309  10.885 -1.0391  0.8024 -0.7270
15401TIP3    H267619   1.967   5.224  10.819 -0.5106 -0.9120  0.5419
15402TIP3   OH267620   5.546   4.486  16.396  0.0066  0.2647  0.4007
15402TIP3    H167621   5.584   4.570  16.424  1.1898  0.0577 -0.5437
15402TIP3    H267622   5.621   4.432  16.373 -0.8404  0.1058 -2.2563
15403TIP3   OH267623   5.022   2.465   3.356 -0.4770  0.4563 -0.3329
15403TIP3    H167624   5.111   2.429   3.356 -0.6155  0.1078  0.1717
15403TIP3    H267625   5.008   2.495   3.446 -0.6844  0.9756 -0.5368
15404TIP3   OH267626   0.324   1.535   1.003 -0.2703  0.5786 -0.4134
15404TIP3    H167627   0.362   1.451   1.026 -0.7064  0.7689  1.1558
15404TIP3    H267628   0.371   1.599   1.057 -0.9663  1.1374 -0.4384
15405TIP3   OH267629   6.247   6.246  14.189 -0.3732  0.0889  0.1596
15405TIP3    H167630   6.221   6.208  14.105  1.4447 -3.5125  1.0189
15405TIP3    H267631   6.185   6.209  14.252 -1.1735  2.0652  0.6223
15406TIP3   OH267632   1.322   0.864   0.434  0.3903 -0.1721 -0.2345
15406TIP3    H167633   1.250   0.920   0.406 -0.9680 -1.6300  0.1590
15406TIP3    H267634   1.371   0.844   0.354  0.3953  0.8678 -0.4982
15407TIP3   OH267635   1.703   2.969  15.559  0.0063  0.0955 -0.0899
15407TIP3    H167636   1.658   2.895  15.599  0.7819 -0.7018 -0.6386
15407TIP3    H267637   1.709   3.034  15.629  1.1492 -1.1711  1.0766
15408TIP3   OH267638   4.393   2.575   6.140 -0.2871 -0.1913  0.0444
15408TIP3    H167639   4.387   2.549   6.048  0.2191 -1.3625  0.3300
15408TIP3    H267640   4.430   2.499   6.184  1.9417  1.2347  0.8093
15409TIP3   OH267641   0.134   5.120   2.477 -0.0434 -0.8553  0.5062
15409TIP3    H167642   0.117   5.033   2.514 -0.4174 -0.7714  0.5434
15409TIP3    H267643   0.069   5.177   2.521 -0.6508 -0.7948 -0.4450
15410TIP3   OH267644   5.288   1.018   2.056 -0.1511  0.4404  0.1643
15410TIP3    H167645   5.289   1.100   2.006  1.4281  0.5021  0.2358
15410TIP3    H267646   5.229   0.961   2.007 -1.1727  1.5658  0.0440
15411TIP3   OH267647   3.034   6.458   4.981  0.0896  0.0201 -0.3368
15411TIP3    H167648   3.077   6.443   5.065 -1.1112  3.6079  1.1141
15411TIP3    H267649   3.104   6.452   4.917  1.2825 -1.6070  1.0189
15412TIP3   OH267650   0.789   0.036  12.897 -0.1176  0.1045 -0.5057
15412TIP3    H167651   0.797   0.130  12.915 -0.2618 -0.0546  0.4795
15412TIP3    H267652   0.777  -0.003  12.984  1.4070 -0.9859 -0.7448
15413TIP3   OH267653   3.271   3.759  13.399  0.8518  0.4383  0.1807
15413TIP3    H167654   3.223   3.799  13.472  0.4310 -2.0391  1.3939
15413TIP3    H267655   3.204   3.741  13.333  0.5763 -0.4110  0.6695
15414TIP3   OH267656   5.200   6.130   5.593  0.1927  0.0588  0.1495
15414TIP3    H167657   5.249   6.168   5.666  0.4364 -0.5290  0.3041
15414TIP3    H267658   5.251   6.155   5.515  0.5385 -0.2277  0.2775
15415TIP3   OH267659   5.722   3.281  10.898 -0.5125 -0.0828 -0.3654
15415TIP3    H167660   5.721   3.187  10.878 -0.3530 -0.2184  0.2574
15415TIP3    H267661   5.633   3.310  10.876 -0.9643 -0.6426  0.6389
15416TIP3   OH267662   0.844   1.456  16.587  0.6418  0.1198 -0.1699
15416TIP3    H167663   0.928   1.451  16.632  1.2071  0.0415 -1.1974
15416TIP3    H267664   0.788   1.507  16.646  0.8151 -1.3884  1.3837
15417TIP3   OH267665   4.820   6.608  15.131 -0.1374 -0.1501 -0.1600
15417TIP3    H167666   4.752   6.542  15.117  0.4622 -0.9237  0.4214
15417TIP3    H267667   4.895   6.575  15.081  0.4385 -0.3756  0.8132
15418TIP3   OH267668   2.477   6.265   1.738 -0.3059  0.7021 -0.3747
15418TIP3    H167669   2.558   6.290   1.695  0.7587  0.1293  1.2284
15418TIP3    H267670   2.503   6.204   1.807 -1.7443  2.6103  2.0050
15419TIP3   OH267671   6.298   0.071  11.625  0.1682 -0.6300  0.4503
15419TIP3    H167672   6.305   0.096  11.717  0.9927 -0.6156  0.3938
15419TIP3    H267673   6.370   0.009  11.611 -1.0616 -2.0624  0.2632
15420TIP3   OH267674   5.819   3.751  15.797 -0.0329 -0.0301 -0.4083
15420TIP3    H167675   5.763   3.765  15.874  0.4568 -1.7999  0.3285
15420TIP3    H267676   5.757   3.740  15.725 -0.6522 -1.5024  0.3103
15421TIP3   OH267677   4.468   4.195  14.884  0.1017 -0.0814  0.2926
15421TIP3    H167678   4.522   4.259  14.931  1.5609 -0.7834 -0.3755
15421TIP3    H267679   4.454   4.124  14.947  0.3718 -0.1261  0.2999
15422TIP3   OH267680   0.665   3.370   6.092 -0.3965 -0.1934 -0.5983
15422TIP3    H167681   0.589   3.344   6.143 -0.1098 -0.8835 -0.5163
15422TIP3    H267682   0.671   3.465   6.105 -1.3962 -0.0824 -0.8293
15423TIP3   OH267683   5.450   4.286  10.815  0.1893 -0.5357  0.4886
15423TIP3    H167684   5.452   4.192  10.796 -1.2836 -0.9929  2.2907
15423TIP3    H267685   5.396   4.323  10.745 -0.1898 -1.2170  0.4081
15424TIP3   OH267686   3.334   0.407  15.878  0.2966 -0.3215  0.3843
15424TIP3    H167687   3.284   0.327  15.894  0.4677  0.0986  3.8824
15424TIP3    H267688   3.407   0.403  15.940  1.3855  1.6903 -0.6493
15425TIP3   OH267689   2.585   6.122   5.535  0.1151 -0.0637 -0.1951
15425TIP3    H167690   2.515   6.062   5.564  2.9985 -3.7485 -0.0745
15425TIP3    H267691   2.632   6.144   5.616  0.9372 -0.2415 -0.6174
15426TIP3   OH267692   4.946   5.651  10.467  0.1688  0.2367 -0.4437
15426TIP3    H167693   4.985   5.566  10.483 -0.3357 -0.3387 -2.1171
15426TIP3    H267694   4.865   5.650  10.518  0.0395 -0.3888 -0.6528
15427TIP3   OH267695   2.227   5.839   2.625  0.1055  0.0970  0.1355
15427TIP3    H167696   2.270   5.753   2.622  0.2734  0.2012 -0.4449
15427TIP3    H267697   2.133   5.818   2.631  0.1598 -0.1244  0.2286
15428TIP3   OH267698   5.854   2.756   5.382  0.1251 -0.0354 -0.3586
15428TIP3    H167699   5.900   2.839   5.395 -0.9401  0.3011  1.6611
15428TIP3    H267700   5.922   2.689   5.390  0.4794  0.4950  1.6020
15429TIP3   OH267701   3.346   2.327  11.872 -0.5937  0.8014 -0.5298
15429TIP3    H167702   3.293   2.340  11.793 -1.7949 -0.2291  0.0672
15429TIP3    H267703   3.423   2.280  11.841 -0.1932  1.9585 -1.3504
15430TIP3   OH267704   2.360   1.055   4.943 -0.5784  0.3497  0.0306
15430TIP3    H167705   2.304   0.995   4.992 -0.2276 -0.4467 -0.5163
15430TIP3    H267706   2.447   1.042   4.981 -0.5343  0.6582  0.0398
15431TIP3   OH267707   2.169   3.078   2.967 -0.1487 -0.7214 -0.4936
15431TIP3    H167708   2.178   3.088   3.062 -1.0940 -0.4607 -0.4159
15431TIP3    H267709   2.182   2.985   2.951 -1.5976 -1.0574  0.1172
15432TIP3   OH267710   2.354   5.390  15.257  0.0286  0.1446  0.1947
15432TIP3    H167711   2.266   5.402  15.221 -0.2985  1.0403  1.2122
15432TIP3    H267712   2.371   5.472  15.304  0.4592 -0.9156  1.9620
15433TIP3   OH267713   0.090   0.715   4.898 -0.2860  0.3755  0.0297
15433TIP3    H167714   0.100   0.771   4.821 -0.1855 -0.9063 -0.9221
15433TIP3    H267715   0.056   0.633   4.864 -0.1688 -0.2504  1.3513
15434TIP3   OH267716   5.433   2.885  15.449  0.1862  0.2292  0.2293
15434TIP3    H167717   5.521   2.848  15.453 -0.3543 -1.3010 -0.9856
15434TIP3    H267718   5.393   2.861  15.533  0.2397 -0.9753 -0.0685
15435TIP3   OH267719   1.490   2.057   3.416  0.4318  0.2086  0.1429
15435TIP3    H167720   1.472   1.963   3.424  0.7105  0.2171  0.9782
15435TIP3    H267721   1.438   2.097   3.486  0.5463  0.6494 -0.0219
15436TIP3   OH267722   4.677   2.412   0.621 -0.4662 -0.1399 -0.0291
15436TIP3    H167723   4.711   2.484   0.673 -1.9637  1.6785 -1.4410
15436TIP3    H267724   4.727   2.335   0.651 -0.1243  1.0850  2.8203
15437TIP3   OH267725   3.679   5.048   1.063 -0.3259 -0.2631  0.2602
15437TIP3    H167726   3.742   5.073   1.130  1.1647  4.3216 -2.3778
15437TIP3    H267727   3.732   5.036   0.984 -2.3764 -1.2037 -1.0682
15438TIP3   OH267728   0.037   5.111  16.112  0.0477 -0.1078 -0.7940
15438TIP3    H167729   0.130   5.098  16.134  0.5832  0.1906 -2.6892
15438TIP3    H267730  -0.007   5.116  16.197  1.2513 -3.4902  0.1928
15439TIP3   OH267731   0.121   4.609  11.168 -0.3954 -0.1894 -0.1432
15439TIP3    H167732   0.155   4.608  11.258 -0.6614 -2.1314 -0.0200
15439TIP3    H267733   0.182   4.665  11.120  0.4262 -0.0605  1.0049
15440TIP3   OH267734   1.014   3.312  16.577  0.2049  0.1840 -0.6582
15440TIP3    H167735   1.089   3.323  16.635  2.1045 -2.3286 -2.4508
15440TIP3    H267736   1.032   3.370  16.503  0.0774  0.0181 -0.8212
15441TIP3   OH267737   0.880   6.053  14.328  0.3778 -0.3803  0.1757
15441TIP3    H167738   0.799   6.104  14.334 -0.4329 -1.7663  1.9622
15441TIP3    H267739   0.851   5.964  14.308  1.3502 -1.1272  1.8943
15442TIP3   OH267740   0.719   5.234  11.861 -0.3252 -0.3099 -0.8408
15442TIP3    H167741   0.697   5.253  11.952  1.2574  0.0863 -0.5141
15442TIP3    H267742   0.640   5.257  11.812 -1.6698 -1.7375  0.5272
15443TIP3   OH267743   0.084   2.339  10.734 -0.4984  0.7069  0.1312
15443TIP3    H167744   0.124   2.265  10.689 -1.7056  0.3780 -0.4543
15443TIP3    H267745   0.036   2.385  10.665 -2.4892  0.1337  1.0480
15444TIP3   OH267746   2.288   2.270   3.307 -0.2541  0.2112  0.1375
15444TIP3    H167747   2.351   2.217   3.257 -0.5797 -1.7480  1.6636
15444TIP3    H267748   2.203   2.236   3.282 -0.5308  0.6749  0.4363
15445TIP3   OH267749   4.530   2.039   3.706 -0.0094  0.0622  0.0486
15445TIP3    H167750   4.622   2.062   3.689  0.4134 -2.7123 -1.9998
15445TIP3    H267751   4.484   2.067   3.627 -0.2071 -1.9324 -0.5920
15446TIP3   OH267752   0.562   2.375  14.057  0.2319 -0.4614 -0.4628
15446TIP3    H167753   0.582   2.339  14.143 -0.7146 -0.5884 -0.2888
15446TIP3    H267754   0.482   2.330  14.029 -0.9414  1.3914 -0.2678
15447TIP3   OH267755   5.056   2.988  15.029 -0.7738 -0.0348 -0.1427
15447TIP3    H167756   5.115   2.931  15.080 -0.6694  0.4275  0.2572
15447TIP3    H267757   5.038   3.061  15.087  1.5646  1.9432 -1.7160
15448TIP3   OH267758   1.401   3.180  10.519  0.6162  0.5485  0.5548
15448TIP3    H167759   1.423   3.194  10.612  0.4894 -0.8178  0.8223
15448TIP3    H267760   1.307   3.195  10.514  0.4052 -0.5296  0.9240
15449TIP3   OH267761   0.367   1.004   5.662 -0.3398  0.0923  1.0146
15449TIP3    H167762   0.401   1.002   5.572  0.5376  1.1758  1.2913
15449TIP3    H267763   0.379   0.915   5.694 -0.2724 -0.2065  0.1895
15450TIP3   OH267764   2.175   2.873   2.003 -0.5212 -0.0472  0.2328
15450TIP3    H167765   2.094   2.823   2.015 -0.8004 -0.0043 -1.2679
15450TIP3    H267766   2.146   2.957   1.966  0.0369  0.8449  1.7267
15451TIP3   OH267767   6.585   5.200  15.214  0.3737 -0.2368  0.5629
15451TIP3    H167768   6.652   5.259  15.248  0.7600 -1.3586  1.8179
15451TIP3    H267769   6.514   5.206  15.277 -0.6124  0.6802 -0.5822
15452TIP3   OH267770   0.818   2.556   2.094  0.6016  0.3388  0.3448
15452TIP3    H167771   0.871   2.533   2.170  0.7075 -0.3270  0.0761
15452TIP3    H267772   0.738   2.505   2.104  0.9057 -0.2910 -0.3403
15453TIP3   OH267773   5.685   0.925  14.645 -0.5348  0.0189 -0.6493
15453TIP3    H167774   5.763   0.896  14.597  1.2947  1.8682  0.9478
15453TIP3    H267775   5.689   1.021  14.640 -0.6053  0.2760  2.5099
15454TIP3   OH267776   1.356   6.148  16.748 -0.2273  0.2800 -0.4288
15454TIP3    H167777   1.290   6.213  16.725  0.5871  1.2891  0.0029
15454TIP3    H267778   1.325   6.067  16.707 -1.5840  0.7824 -0.4471
15455TIP3   OH267779   2.003   3.550   3.416 -0.3941  0.4494  0.6488
15455TIP3    H167780   1.992   3.548   3.511 -1.5066 -1.9193  0.5372
15455TIP3    H267781   1.956   3.473   3.385  2.5196 -0.6153 -1.5371
15456TIP3   OH267782   1.911   3.632  14.572 -0.0419  0.1403 -0.0019
15456TIP3    H167783   1.857   3.610  14.496 -0.4910  0.7783  0.1290
15456TIP3    H267784   1.979   3.689  14.538 -1.0212  1.5320  0.2842
15457TIP3   OH267785   4.014   6.491   3.131 -0.5103  0.3409 -0.1961
15457TIP3    H167786   3.968   6.473   3.049 -0.5411  1.3333 -0.4079
15457TIP3    H267787   4.107   6.487   3.109 -0.4076 -2.0801  0.3183
15458TIP3   OH267788   2.827   2.135   1.920  0.5717  0.6322 -0.5912
15458TIP3    H167789   2.862   2.223   1.903  0.3194  0.8888  0.1921
15458TIP3    H267790   2.849   2.117   2.011 -0.5179  0.4211 -0.3562
15459TIP3   OH267791   6.143   4.439   4.005 -0.2072 -1.0359  0.7946
15459TIP3    H167792   6.197   4.400   3.937  0.8948  0.3991  0.7851
15459TIP3    H267793   6.159   4.533   3.997 -1.2507 -0.7252  2.0361
15460TIP3   OH267794   6.445   4.060   2.730  0.0397 -0.0923  0.3910
15460TIP3    H167795   6.494   4.107   2.798 -0.9402 -0.2932  1.2499
15460TIP3    H267796   6.435   3.971   2.764  0.6095 -0.5525 -0.5759
15461TIP3   OH267797   4.077   3.909   2.472 -0.4455  0.2324 -0.2050
15461TIP3    H167798   4.106   3.999   2.463  0.5878  0.0795  1.2815
15461TIP3    H267799   4.158   3.858   2.476 -0.9436 -0.5129  1.1558
15462TIP3   OH267800   5.053   1.452  16.755  0.5314  0.0743 -0.3848
15462TIP3    H167801   5.113   1.525  16.758  0.1576  0.3596  1.1517
15462TIP3    H267802   5.043   1.425  16.847  0.8349 -2.0492 -0.9017
15463TIP3   OH267803   6.725   1.157   4.397 -0.0666 -0.0787 -0.3910
15463TIP3    H167804   6.805   1.208   4.387 -0.3472  0.4784  0.1467
15463TIP3    H267805   6.755   1.066   4.403  0.5480  0.1445  0.0228
15464TIP3   OH267806   5.988   5.124   3.059  0.1127 -0.6470 -0.4058
15464TIP3    H167807   5.892   5.129   3.068  0.0570  0.6761 -1.4038
15464TIP3    H267808   6.016   5.216   3.054  1.4558 -1.0135 -0.0433
15465TIP3   OH267809   1.654   3.964   0.022  0.2324  0.2645  0.5386
15465TIP3    H167810   1.696   3.978  -0.063  0.1156 -1.8803  0.0807
15465TIP3    H267811   1.570   4.009   0.014  0.4040  0.4484 -0.3176
15466TIP3   OH267812   1.199   4.568  12.752 -0.2030  0.1903  0.4698
15466TIP3    H167813   1.270   4.630  12.738  0.5466 -0.7117  0.2059
15466TIP3    H267814   1.169   4.586  12.842 -1.3027  2.2109 -0.2151
15467TIP3   OH267815   5.372   6.347  13.926  0.1456  0.6690  0.5054
15467TIP3    H167816   5.367   6.277  13.992 -1.7287  0.7329  0.4709
15467TIP3    H267817   5.396   6.301  13.846 -1.3527 -0.0264  0.4192
15468TIP3   OH267818   0.088   1.211  13.361 -0.3270  0.0492 -0.1739
15468TIP3    H167819   0.044   1.267  13.297 -1.1792 -0.2765  0.1212
15468TIP3    H267820   0.094   1.265  13.440 -1.9426 -0.5506  0.3908
15469TIP3   OH267821   3.600   5.175   6.360  0.1414 -0.0105  0.7141
15469TIP3    H167822   3.652   5.116   6.305  0.0819  0.2877  0.3342
15469TIP3    H267823   3.624   5.263   6.330  0.9614  0.2057  1.9286
15470TIP3   OH267824   0.399   1.413  17.027  0.5372 -0.0259  0.2237
15470TIP3    H167825   0.385   1.396  16.934 -2.4107 -1.2978  0.7794
15470TIP3    H267826   0.478   1.365  17.050  0.4764 -0.9098 -1.3250
15471TIP3   OH267827   0.772   5.255  14.800 -0.3135  0.2575  0.3905
15471TIP3    H167828   0.695   5.311  14.787 -1.0467 -0.3608  1.7760
15471TIP3    H267829   0.823   5.300  14.868 -0.2212 -0.0807  0.5494
15472TIP3   OH267830   3.967   5.667  13.542  0.1064 -0.5927 -0.1735
15472TIP3    H167831   4.037   5.635  13.599  0.1020  0.0099  0.1827
15472TIP3    H267832   3.890   5.614  13.566  0.0601 -0.2220  0.5112
15473TIP3   OH267833   5.744   3.694   6.173  0.4546 -0.2508 -0.0841
15473TIP3    H167834   5.684   3.733   6.109 -0.4770 -0.8679  0.4010
15473TIP3    H267835   5.819   3.754   6.175 -0.0780  0.4555 -0.8045
15474TIP3   OH267836   6.412   1.553   0.495 -0.9758  0.3571  0.5789
15474TIP3    H167837   6.480   1.542   0.561  0.9257  1.0644 -1.1521
15474TIP3    H267838   6.444   1.624   0.439 -4.3436  2.4793  1.0793
15475TIP3   OH267839   0.049   4.010   0.066 -0.3192  0.1466  0.5932
15475TIP3    H167840   0.131   3.982   0.024 -1.4025 -0.5640 -1.1988
15475TIP3    H267841   0.025   4.091   0.021 -1.6055 -0.7301 -0.4049
15476TIP3   OH267842   4.855   4.049  16.898 -0.3986 -0.0198  0.4663
15476TIP3    H167843   4.775   4.003  16.923  0.2850 -1.2934  0.3675
15476TIP3    H267844   4.916   4.034  16.971  0.2858 -0.4360 -0.1770
15477TIP3   OH267845   2.526   5.150   4.083  0.3864 -0.2391  0.0131
15477TIP3    H167846   2.464   5.113   4.147 -1.8671 -0.5267 -2.1955
15477TIP3    H267847   2.518   5.245   4.094  0.6013 -0.2940  0.6774
15478TIP3   OH267848   2.444   1.241   1.984  0.1584 -0.4622 -0.4539
15478TIP3    H167849   2.528   1.229   2.029  0.4546 -0.7000 -1.0448
15478TIP3    H267850   2.388   1.172   2.019 -0.3808  0.7684  1.2438
15479TIP3   OH267851   3.105   5.511   4.095 -0.1709 -0.6644  0.7779
15479TIP3    H167852   3.080   5.575   4.029 -0.7513 -1.7333 -0.0663
15479TIP3    H267853   3.027   5.502   4.150 -0.2709 -1.0146  0.5830
15480TIP3   OH267854   4.560   3.275  16.229 -0.2567  0.1718 -0.2744
15480TIP3    H167855   4.481   3.222  16.227 -0.0588 -0.0902 -1.5460
15480TIP3    H267856   4.587   3.273  16.321 -0.4443 -1.6295 -0.2276
15481TIP3   OH267857   1.988   2.736  12.779 -0.1588  0.6187 -0.5234
15481TIP3    H167858   1.992   2.677  12.854 -1.5016 -0.6010 -1.3586
15481TIP3    H267859   2.073   2.727  12.736 -1.1944 -3.0032 -2.2251
15482TIP3   OH267860   4.074   4.964  12.166 -0.0131 -0.2239 -0.0288
15482TIP3    H167861   4.002   4.999  12.114 -0.0848 -0.6867 -0.2441
15482TIP3    H267862   4.032   4.899  12.224  0.3132 -0.9178 -0.5620
15483TIP3   OH267863   3.643   4.605  12.779  0.5734 -0.6362 -0.6942
15483TIP3    H167864   3.665   4.595  12.687  0.8832  1.1795 -0.8600
15483TIP3    H267865   3.727   4.615  12.824  0.4537 -1.9722 -0.1261
15484TIP3   OH267866   3.168   3.273  11.060  0.1894 -0.1518  0.1239
15484TIP3    H167867   3.205   3.346  11.109  2.9237  0.1157 -2.0675
15484TIP3    H267868   3.230   3.201  11.073  0.2796 -0.4728 -1.7816
15485TIP3   OH267869   1.757   0.782  16.931  0.0247  0.1854  0.2008
15485TIP3    H167870   1.826   0.748  16.988  2.2431  0.0458 -2.3664
15485TIP3    H267871   1.714   0.704  16.896  0.0900  0.2116  0.0609
15486TIP3   OH267872   6.133   5.240   6.069  0.2229  0.0461 -0.5933
15486TIP3    H167873   6.163   5.266   6.156 -0.5196 -1.7324  0.2472
15486TIP3    H267874   6.052   5.290   6.056 -0.4991 -0.8035  0.4363
15487TIP3   OH267875   5.103   0.198  14.302  0.1630  0.4156 -0.0022
15487TIP3    H167876   5.193   0.174  14.325  0.2418 -0.5429 -1.2053
15487TIP3    H267877   5.091   0.284  14.340  1.9454  1.0007 -0.6529
15488TIP3   OH267878   6.480   4.408   5.678  0.0260 -0.5207 -0.4912
15488TIP3    H167879   6.406   4.414   5.617 -0.0607  0.8725 -0.2804
15488TIP3    H267880   6.532   4.335   5.644 -0.3934 -0.2473 -1.8149
15489TIP3   OH267881   4.821   3.534  11.149  0.2284  0.4787  0.0827
15489TIP3    H167882   4.735   3.567  11.123 -0.7125 -0.7055  1.5252
15489TIP3    H267883   4.881   3.571  11.084 -1.2806  1.7421 -0.6749
15490TIP3   OH267884   3.592   0.118   2.213  0.0391 -0.2252  0.3871
15490TIP3    H167885   3.604   0.090   2.304 -1.6932  0.0324  0.7294
15490TIP3    H267886   3.520   0.181   2.216  0.5374  0.4735 -1.0580
15491TIP3   OH267887   1.688   1.137   0.868 -0.6070 -0.9717 -0.1779
15491TIP3    H167888   1.605   1.091   0.872 -0.9106 -0.5284 -1.1226
15491TIP3    H267889   1.725   1.128   0.956 -1.3004 -1.8108  0.0339
15492TIP3   OH267890   0.579   4.711   0.508 -0.0714  0.3056 -0.4791
15492TIP3    H167891   0.580   4.696   0.602  0.4892  0.7621 -0.4143
15492TIP3    H267892   0.593   4.805   0.497  1.1006  0.0794 -1.0536
15493TIP3   OH267893   0.152   5.909  15.910 -0.3344 -0.0394  0.3492
15493TIP3    H167894   0.117   5.865  15.833 -0.6810 -0.7704  0.9104
15493TIP3    H267895   0.247   5.897  15.904 -0.2550  0.9159 -0.5551
15494TIP3   OH267896   3.945   1.221   0.546 -0.8691  0.5214 -0.3877
15494TIP3    H167897   4.000   1.256   0.476  1.0393 -1.3377  0.0757
15494TIP3    H267898   3.879   1.288   0.560 -0.6566  1.4592 -3.1833
15495TIP3   OH267899   5.102   1.979  10.889 -0.3093 -0.0149  0.0855
15495TIP3    H167900   5.181   1.932  10.863 -0.1938  0.3102 -0.1615
15495TIP3    H267901   5.042   1.911  10.919 -0.0934 -0.3046 -0.1351
15496TIP3   OH267902   3.294   1.301   3.637 -0.0440  0.2341 -0.3889
15496TIP3    H167903   3.284   1.343   3.722  1.3854 -0.1646 -0.0085
15496TIP3    H267904   3.256   1.214   3.648 -1.0110  0.6229 -0.5459
15497TIP3   OH267905   0.754   0.866  16.957  0.2056 -0.3007  0.6453
15497TIP3    H167906   0.712   0.948  16.981 -0.4798 -0.4750  0.0467
15497TIP3    H267907   0.705   0.834  16.882  1.9046 -0.1002 -0.6178
15498TIP3   OH267908   5.042   3.313  15.550 -0.5446 -0.0067 -0.2187
15498TIP3    H167909   4.950   3.337  15.547 -0.3175  1.1907  1.0787
15498TIP3    H267910   5.089   3.396  15.541  0.4126 -0.5469 -0.4383
15499TIP3   OH267911   6.504   5.202  12.605 -0.0499  0.4151 -0.0195
15499TIP3    H167912   6.454   5.129  12.643  0.0817 -0.2315 -1.0574
15499TIP3    H267913   6.510   5.181  12.512  0.1050  1.6954 -0.3201
15500TIP3   OH267914   6.049   3.749   5.647  0.8545  0.6855  0.1647
15500TIP3    H167915   6.101   3.717   5.573  0.7474 -0.0582  0.4079
15500TIP3    H267916   6.113   3.767   5.716  0.8138 -0.1075  0.4200
15501TIP3   OH267917   2.899   6.327  12.471 -0.1181  0.2391  0.1053
15501TIP3    H167918   2.890   6.232  12.460  1.9559  0.1670 -1.6088
15501TIP3    H267919   2.845   6.364  12.401 -0.6457  0.3349  0.5553
15502TIP3   OH267920   3.830   0.413   3.985 -0.2479  0.0549 -0.2908
15502TIP3    H167921   3.881   0.478   4.035 -0.7334 -0.2576  0.6355
15502TIP3    H267922   3.832   0.335   4.039 -1.5153 -0.0353 -0.3451
15503TIP3   OH267923   2.853   0.449  11.892  0.3709 -0.1475  0.2708
15503TIP3    H167924   2.762   0.481  11.894 -0.1320 -1.4673 -0.4908
15503TIP3    H267925   2.898   0.511  11.834 -0.7444 -1.0745 -1.7038
15504TIP3   OH267926   6.430   3.480  11.251 -0.1903  0.4647 -0.8211
15504TIP3    H167927   6.399   3.546  11.190  0.0066  0.3425 -1.0603
15504TIP3    H267928   6.518   3.458  11.219  0.6385  1.6649  0.5288
15505TIP3   OH267929   0.813   5.995  13.818 -0.5585  0.3360 -0.5202
15505TIP3    H167930   0.733   5.965  13.860 -0.1316  0.0079  0.0754
15505TIP3    H267931   0.786   6.020  13.729 -1.8231  2.6614  0.4073
15506TIP3   OH267932   3.939   5.371   4.910 -0.0755 -0.2602 -0.1545
15506TIP3    H167933   3.954   5.277   4.907  1.8676  0.0002  0.1735
15506TIP3    H267934   3.976   5.404   4.827  2.4562  0.5486  1.1843
15507TIP3   OH267935   4.287   6.618   4.199  0.2298  0.1587 -0.5178
15507TIP3    H167936   4.210   6.572   4.232  0.0444  0.4236 -0.5788
15507TIP3    H267937   4.359   6.587   4.253  0.5956 -2.1851 -2.2045
15508TIP3   OH267938   3.561   3.340  12.578  0.0932  0.4399  0.1135
15508TIP3    H167939   3.585   3.342  12.485  0.3853 -0.4603  0.1603
15508TIP3    H267940   3.541   3.248  12.595 -1.5855  0.8462  0.5399
15509TIP3   OH267941   3.828   6.296  11.929 -0.1331 -0.3908 -0.5391
15509TIP3    H167942   3.845   6.373  11.983  0.8213  0.1908 -1.6032
15509TIP3    H267943   3.735   6.302  11.908  0.0849  0.9441 -1.2609
15510TIP3   OH267944   0.576   4.686  12.956 -0.0024  0.4919 -0.2671
15510TIP3    H167945   0.658   4.639  12.942 -0.5303 -0.2651 -0.8719
15510TIP3    H267946   0.508   4.622  12.937 -0.7590  0.6505  1.6712
15511TIP3   OH267947   6.119   1.396  16.299 -0.1794 -0.0118  0.0648
15511TIP3    H167948   6.195   1.338  16.294  1.0710  1.6324 -1.7701
15511TIP3    H267949   6.077   1.389  16.213  1.3796  3.3546 -1.1751
15512TIP3   OH267950   0.067   4.328  13.567  0.6965  0.2195  0.2312
15512TIP3    H167951  -0.027   4.309  13.564  0.9312 -0.9048 -0.4587
15512TIP3    H267952   0.089   4.326  13.660  0.4903 -1.9190  0.2709
15513TIP3   OH267953   0.732   1.318  14.257 -0.1612  0.9179  0.1507
15513TIP3    H167954   0.823   1.298  14.276  0.2285  0.3128 -2.0530
15513TIP3    H267955   0.735   1.396  14.201 -0.7450 -0.5600 -2.0698
15514TIP3   OH267956   4.522   4.118   4.291 -0.1001  0.8360  0.2333
15514TIP3    H167957   4.601   4.094   4.339  1.3231  2.9953 -0.8344
15514TIP3    H267958   4.460   4.147   4.358  0.1180 -0.5717  1.0597
15515TIP3   OH267959   0.530   5.682  11.437  0.1022 -0.3086  0.0154
15515TIP3    H167960   0.586   5.715  11.367 -1.4171 -0.6636 -1.4414
15515TIP3    H267961   0.526   5.753  11.501  0.4435  0.5729 -0.9229
15516TIP3   OH267962   1.923   1.499  15.282 -0.2801 -0.3802 -0.1488
15516TIP3    H167963   1.993   1.458  15.332 -0.2922  0.4680  0.5912
15516TIP3    H267964   1.844   1.454  15.310 -0.1766 -0.5309 -0.0971
15517TIP3   OH267965   5.723   3.294   3.346 -0.0716  0.1169 -0.3796
15517TIP3    H167966   5.752   3.206   3.323 -1.5349 -0.3361 -0.6231
15517TIP3    H267967   5.676   3.284   3.428  3.2705  1.3891  1.9116
15518TIP3   OH267968   3.055   1.026   1.594  0.1968 -0.6153 -0.5796
15518TIP3    H167969   3.005   1.032   1.512  0.1885  0.7320 -0.5040
15518TIP3    H267970   3.048   1.114   1.632  1.8101 -0.6665 -0.0906
15519TIP3   OH267971   3.556   6.780   3.407 -0.5974  0.0381  0.6620
15519TIP3    H167972   3.531   6.856   3.355 -0.8353  0.0148  0.7410
15519TIP3    H267973   3.550   6.810   3.498 -2.0642 -0.4710  0.7594
15520TIP3   OH267974   0.692   3.159  16.041  0.2085 -0.5870  0.1005
15520TIP3    H167975   0.650   3.158  15.955  0.7663  1.6352 -0.2595
15520TIP3    H267976   0.785   3.147  16.022  0.3190 -0.2334  0.4190
15521TIP3   OH267977   2.993   2.351  13.726  0.6659  0.2011  0.1872
15521TIP3    H167978   2.912   2.389  13.691  1.2072  0.9832 -0.2343
15521TIP3    H267979   3.012   2.278  13.668 -0.7327 -1.1968  1.3746
15522TIP3   OH267980   3.845   2.957  15.190 -0.0694 -0.1760 -0.2356
15522TIP3    H167981   3.755   2.962  15.222 -0.4135 -1.1066 -1.0069
15522TIP3    H267982   3.892   2.909  15.258 -0.5563 -1.2173 -0.6132
15523TIP3   OH267983   0.095   3.874  15.836 -0.2004 -0.1853 -0.0054
15523TIP3    H167984   0.013   3.896  15.792  0.8756 -0.5791 -2.3704
15523TIP3    H267985   0.160   3.930  15.795  0.7913 -0.1519  1.5596
15524TIP3   OH267986   1.106   4.819   2.802  0.0101 -0.3075  0.5518
15524TIP3    H167987   1.107   4.781   2.715 -1.4318  1.6385 -0.3869
15524TIP3    H267988   1.156   4.901   2.794 -0.1526 -0.0932  1.5347
15525TIP3   OH267989   5.025   6.210  11.590  0.1119 -0.1997  0.2055
15525TIP3    H167990   5.035   6.203  11.495  1.2108 -1.2930  0.3685
15525TIP3    H267991   5.037   6.120  11.621  1.7056  0.4283  1.5252
15526TIP3   OH267992   0.796   2.731   3.734 -0.7070  0.1394 -0.1197
15526TIP3    H167993   0.872   2.787   3.750  1.4423 -1.2634 -4.1239
15526TIP3    H267994   0.737   2.785   3.681 -1.4066  0.4326  0.9329
15527TIP3   OH267995   3.540   0.224  14.447  0.4560  0.2351  0.2699
15527TIP3    H167996   3.612   0.183  14.495  0.2308 -0.6258 -0.0992
15527TIP3    H267997   3.467   0.162  14.456  0.7126 -0.5365 -2.0777
15528TIP3   OH267998   6.561   4.636  14.810  0.1591  0.3491 -0.7889
15528TIP3    H167999   6.623   4.650  14.882 -0.0715  0.0908 -0.5355
15528TIP3    H268000   6.487   4.693  14.832  0.6417  1.2912 -1.5177
15529TIP3   OH268001   2.985   0.412   2.652 -0.4549 -0.2567  0.1772
15529TIP3    H168002   3.035   0.390   2.574 -0.0042 -1.2135  0.7280
15529TIP3    H268003   3.051   0.427   2.719 -0.6808  3.0301 -0.1642
15530TIP3   OH268004   1.244   6.535  16.156 -0.2847  0.4126  0.2234
15530TIP3    H168005   1.195   6.617  16.169  3.0954  2.3725  2.0841
15530TIP3    H268006   1.239   6.519  16.062 -2.6207  1.6390  0.0610
15531TIP3   OH268007   3.363   6.361   3.546  0.0539 -0.0464 -0.0484
15531TIP3    H168008   3.339   6.271   3.524 -4.1622  1.2205 -1.6020
15531TIP3    H268009   3.401   6.396   3.466  2.4932 -0.5374  0.8062
15532TIP3   OH268010   3.889   1.823   5.326 -0.1831  0.3314 -0.5179
15532TIP3    H168011   3.963   1.776   5.366 -0.3499 -0.3799 -1.0267
15532TIP3    H268012   3.832   1.754   5.294 -1.4200  0.8588  0.4693
15533TIP3   OH268013   3.261   3.459  15.157 -0.2803  0.1628 -0.3304
15533TIP3    H168014   3.264   3.551  15.181 -0.4375 -0.2347  1.3227
15533TIP3    H268015   3.341   3.445  15.106  0.3297  0.9578  0.3749
15534TIP3   OH268016   0.678   6.376   4.126 -0.0610 -0.6826 -0.4387
15534TIP3    H168017   0.710   6.460   4.093  0.3598 -0.1798  1.1956
15534TIP3    H268018   0.673   6.321   4.048  2.2953  0.0058 -1.1521
15535TIP3   OH268019   6.454   1.705  16.669  0.3993 -0.6285 -0.6624
15535TIP3    H168020   6.493   1.754  16.742  0.6489 -1.4032 -0.2652
15535TIP3    H268021   6.529   1.664  16.626  0.1536 -1.0206 -0.7204
15536TIP3   OH268022   3.233   6.179  11.291  0.1634 -0.8514 -0.0435
15536TIP3    H168023   3.301   6.241  11.318  0.6929 -1.5710  0.3477
15536TIP3    H268024   3.279   6.117  11.234 -0.4507 -0.6404 -0.7806
15537TIP3   OH268025   2.101   2.510   0.585 -0.0387  0.2535  0.8729
15537TIP3    H168026   2.132   2.589   0.541  0.5320 -0.3775  0.1264
15537TIP3    H268027   2.039   2.471   0.524  2.7400 -2.0767 -0.7156
15538TIP3   OH268028   2.485   5.883  17.181  0.4800  0.1137  0.1220
15538TIP3    H168029   2.413   5.929  17.137  1.8157  2.1603 -0.0596
15538TIP3    H268030   2.458   5.791  17.180 -2.5217  0.8631  0.8654
15539TIP3   OH268031   6.151   4.113   2.054 -0.6273  0.5643  0.0521
15539TIP3    H168032   6.063   4.080   2.072 -1.0298  0.5993 -1.7565
15539TIP3    H268033   6.208   4.038   2.069 -1.1699  0.0070 -0.6575
15540TIP3   OH268034   4.700   4.234   1.034 -0.2488  0.0799 -0.1388
15540TIP3    H168035   4.634   4.301   1.051 -0.1637  0.3434 -0.7989
15540TIP3    H268036   4.673   4.195   0.951 -0.2596 -0.6650  0.2065
15541TIP3   OH268037   2.076   5.414  15.197 -0.2546  0.4843 -0.0954
15541TIP3    H168038   2.030   5.332  15.178  0.7790 -0.3372  0.8660
15541TIP3    H268039   2.034   5.447  15.277 -0.5630  0.8378 -0.3937
15542TIP3   OH268040   2.357   1.164   4.049 -0.4300 -0.2911 -0.1668
15542TIP3    H168041   2.270   1.200   4.029 -1.3725 -1.1844  2.0023
15542TIP3    H268042   2.380   1.203   4.133  1.3601 -0.0261 -0.7327
15543TIP3   OH268043   4.292   5.944   3.011 -0.7631  0.1170  0.4594
15543TIP3    H168044   4.314   6.005   2.940 -1.7137  0.6919  0.6429
15543TIP3    H268045   4.198   5.933   3.004 -1.0857  1.2097  2.4195
15544TIP3   OH268046   1.304   4.997   0.996 -0.7479 -0.4349  0.2754
15544TIP3    H168047   1.228   5.042   0.959 -1.7139 -2.7824 -0.8111
15544TIP3    H268048   1.269   4.949   1.070  0.1852  0.2581  1.1892
15545TIP3   OH268049   2.381   6.193   0.081 -0.1797  0.0146 -0.2207
15545TIP3    H168050   2.381   6.112   0.030 -0.0632 -0.8735  1.1387
15545TIP3    H268051   2.468   6.196   0.121  0.7103  2.0460 -2.0873
15546TIP3   OH268052   5.268   1.185  11.064 -0.0206 -0.1100  0.1689
15546TIP3    H168053   5.228   1.255  11.013 -2.3047 -1.3432  0.1330
15546TIP3    H268054   5.353   1.170  11.022 -0.1444  1.5398 -0.7795
15547TIP3   OH268055   3.904   2.236  13.501  0.3548  0.3719 -0.1247
15547TIP3    H168056   3.975   2.270  13.446  0.6692  1.2495  0.8061
15547TIP3    H268057   3.884   2.307  13.561 -1.4966  0.2335 -0.5167
15548TIP3   OH268058   0.325   6.507  14.468  0.2201  0.4495 -0.3352
15548TIP3    H168059   0.280   6.487  14.550 -0.5757 -2.0032 -1.2974
15548TIP3    H268060   0.256   6.542  14.412  0.5283  1.0436 -0.3527
15549TIP3   OH268061   2.509   3.479   0.719  0.5920 -0.3401 -0.6509
15549TIP3    H168062   2.442   3.541   0.745  1.1052 -0.4494  1.0675
15549TIP3    H268063   2.515   3.488   0.624 -1.2606  0.2398 -0.7493
15550TIP3   OH268064   5.968   6.149  14.123 -0.2838  0.5334  0.2073
15550TIP3    H168065   5.948   6.103  14.205  0.9640  1.1654  0.8954
15550TIP3    H268066   5.979   6.079  14.059 -3.9603  0.0918 -0.1563
15551TIP3   OH268067   4.068   0.335  12.126 -0.1580 -0.3958 -0.4067
15551TIP3    H168068   4.137   0.316  12.062  0.2359  0.8260 -0.3803
15551TIP3    H268069   4.060   0.256  12.178  0.2859 -1.0253 -1.2758
15552TIP3   OH268070   3.147   2.542   5.671 -0.2577 -0.0819 -0.6491
15552TIP3    H168071   3.098   2.611   5.715 -1.6772 -0.6142 -1.3370
15552TIP3    H268072   3.219   2.522   5.730 -1.1856  0.3339  0.6602
15553TIP3   OH268073   3.833   2.954   1.382  0.1830 -0.2699 -0.5543
15553TIP3    H168074   3.769   2.882   1.380  1.4248 -1.4242 -2.0215
15553TIP3    H268075   3.896   2.929   1.450  0.3740 -0.3586 -0.7613
15554TIP3   OH268076   6.202   5.362  11.843  0.3882 -0.1564  0.3430
15554TIP3    H168077   6.233   5.351  11.933 -1.8751 -0.4781  1.1426
15554TIP3    H268078   6.118   5.407  11.852  0.5232  0.5980 -1.6986
15555TIP3   OH268079   3.995   4.627   5.379  0.2821 -0.2309  0.1176
15555TIP3    H168080   3.916   4.675   5.404  1.3209  1.4996  0.2722
15555TIP3    H268081   4.062   4.657   5.442  1.3714 -0.6233 -0.8169
15556TIP3   OH268082   2.630   4.821   0.987 -0.0957  0.0495  0.1827
15556TIP3    H168083   2.719   4.798   0.962 -0.0941 -2.8093  2.2897
15556TIP3    H268084   2.575   4.760   0.938 -0.6694 -0.0190  0.8880
15557TIP3   OH268085   2.255   3.198  16.859  0.2317  0.1160  0.5807
15557TIP3    H168086   2.329   3.255  16.880  0.5879 -0.8304  2.0334
15557TIP3    H268087   2.292   3.130  16.803 -0.4750  1.9715 -2.3748
15558TIP3   OH268088   3.335   3.593   0.945  0.4816 -0.5458  0.6358
15558TIP3    H168089   3.300   3.674   0.983  1.3488 -0.3988  1.1403
15558TIP3    H268090   3.412   3.622   0.895 -1.3214 -0.5148 -2.4132
15559TIP3   OH268091   2.292   2.360  13.562 -0.2921 -0.4003  0.2643
15559TIP3    H168092   2.249   2.335  13.480  0.3832 -0.4535 -0.0791
15559TIP3    H268093   2.254   2.445  13.583  0.2381  0.0745 -0.6318
15560TIP3   OH268094   1.302   3.098  12.733  0.1697 -0.0362  0.1846
15560TIP3    H168095   1.285   3.143  12.650 -0.4403 -0.0967  0.2695
15560TIP3    H268096   1.372   3.148  12.774  0.4082  0.0569 -0.3211
15561TIP3   OH268097   4.973   3.790  14.310  0.1120  0.3415 -1.0165
15561TIP3    H168098   4.960   3.811  14.218  1.1752 -0.8428 -1.4708
15561TIP3    H268099   5.022   3.865  14.345 -0.6027  0.9566 -1.3219
15562TIP3   OH268100   5.799   3.878  10.979 -0.2475 -0.3154  0.4517
15562TIP3    H168101   5.779   3.905  10.889  0.9293 -2.2180 -0.4527
15562TIP3    H268102   5.843   3.793  10.969 -1.5436 -1.3799  2.9423
15563TIP3   OH268103   5.844   1.031  10.386  0.2420  0.3865  0.1459
15563TIP3    H168104   5.843   0.955  10.444  1.6455  1.6269  1.9155
15563TIP3    H268105   5.927   1.023  10.338  0.0816  0.4582 -0.1426
15564TIP3   OH268106   5.021   4.198  15.925 -0.3311 -0.0219  0.1061
15564TIP3    H168107   4.971   4.151  15.993  1.2153 -0.5495  0.9296
15564TIP3    H268108   5.008   4.290  15.946 -0.9169 -0.1548  0.3511
15565TIP3   OH268109   4.626   4.920  14.729  0.1758 -0.2578 -0.0585
15565TIP3    H168110   4.666   4.867  14.660  1.4794  0.9747 -0.2979
15565TIP3    H268111   4.700   4.961  14.774 -0.7130  0.0425  1.2097
15566TIP3   OH268112   2.738   5.175   4.514 -0.7390 -0.2365  0.4582
15566TIP3    H168113   2.785   5.251   4.549  0.2425 -0.4408 -0.3555
15566TIP3    H268114   2.694   5.137   4.590  0.9059 -0.3753  1.4092
15567TIP3   OH268115   1.275   2.008   6.152 -0.4679  0.7285  0.4019
15567TIP3    H168116   1.250   2.063   6.226 -0.7022  1.7032 -0.3732
15567TIP3    H268117   1.330   2.064   6.098  0.2140 -0.1648  0.1347
15568TIP3   OH268118   3.186   5.372   5.766 -0.2690  0.0542  0.1341
15568TIP3    H168119   3.257   5.308   5.773  0.0024  0.3587  0.1981
15568TIP3    H268120   3.131   5.354   5.843 -0.6948 -0.6881 -0.3237
15569TIP3   OH268121   4.232   4.707  16.686 -0.3209  0.3070 -0.1649
15569TIP3    H168122   4.263   4.727  16.598 -0.0150 -1.5189 -0.5072
15569TIP3    H268123   4.180   4.627  16.676 -2.4456  1.4565  0.9262
15570TIP3   OH268124   5.818   1.801   5.204  0.2656 -0.1154 -0.4213
15570TIP3    H168125   5.825   1.754   5.287 -0.1365  1.0205  0.2806
15570TIP3    H268126   5.762   1.876   5.224 -0.8102 -0.4456 -2.0027
15571TIP3   OH268127   6.640   1.820  16.834 -0.1024 -0.0234 -0.1798
15571TIP3    H168128   6.670   1.889  16.893  2.1313 -0.8722 -0.2487
15571TIP3    H268129   6.640   1.741  16.888 -1.3682 -0.2451 -0.4550
15572TIP3   OH268130   0.262   0.749  12.899  0.3378  0.6030  0.0834
15572TIP3    H168131   0.340   0.700  12.922  2.0604  2.7333 -0.8722
15572TIP3    H268132   0.249   0.809  12.973  0.4617  1.2127 -0.3812
15573TIP3   OH268133   2.724   0.889  13.990 -0.8292  0.0729  0.0580
15573TIP3    H168134   2.698   0.969  14.035  0.6823 -0.4810  2.0476
15573TIP3    H268135   2.778   0.842  14.053  0.5881 -1.2524 -1.9989
15574TIP3   OH268136   1.617   3.246  12.457  0.7233 -0.3362  0.4881
15574TIP3    H168137   1.572   3.203  12.385  0.4927  2.0354 -0.9064
15574TIP3    H268138   1.702   3.203  12.462  1.1080  0.0270 -1.8657
15575TIP3   OH268139   5.742   3.013  14.461 -0.2931  0.4374  0.2124
15575TIP3    H168140   5.700   3.076  14.520  0.6479 -1.9117  3.7021
15575TIP3    H268141   5.681   2.940  14.457  1.2559 -1.0080  1.4692
15576TIP3   OH268142   6.170   1.628  16.914  0.3346 -0.5995 -0.3612
15576TIP3    H168143   6.137   1.570  16.845 -1.4287 -2.1090  1.6366
15576TIP3    H268144   6.209   1.569  16.978 -0.6587  0.4580  1.2992
15577TIP3   OH268145   5.641   5.704   1.340  0.3155 -0.1978 -0.2066
15577TIP3    H168146   5.617   5.716   1.248  0.0451  0.9081 -0.0028
15577TIP3    H268147   5.724   5.751   1.349  0.3160 -0.2623  0.1327
15578TIP3   OH268148   3.503   5.170   0.407 -0.9322  0.0252 -0.2047
15578TIP3    H168149   3.452   5.235   0.455 -2.4261  0.6532 -2.4639
15578TIP3    H268150   3.557   5.128   0.473 -2.0023  1.6067  1.7922
15579TIP3   OH268151   1.505   0.421  15.504  0.0749  0.0778 -0.4409
15579TIP3    H168152   1.570   0.437  15.573  0.4338 -0.2459 -0.7013
15579TIP3    H268153   1.477   0.508  15.477 -0.3755  0.2119  0.3982
15580TIP3   OH268154   2.619   2.001  12.450  0.0372 -0.2745 -0.3731
15580TIP3    H168155   2.632   2.086  12.408 -0.3183 -0.0422 -0.0261
15580TIP3    H268156   2.622   1.938  12.379  1.2380 -0.0665 -0.5153
15581TIP3   OH268157   1.738   0.822   4.791 -0.5688 -0.3633 -0.7699
15581TIP3    H168158   1.645   0.840   4.775 -0.1174  2.2953 -0.9622
15581TIP3    H268159   1.783   0.866   4.719  0.8766 -1.1373 -0.3699
15582TIP3   OH268160   6.262   3.161   5.612  0.1953  0.5721  0.2128
15582TIP3    H168161   6.233   3.077   5.577 -0.9557  0.7897  0.5981
15582TIP3    H268162   6.291   3.142   5.701  3.5581 -0.0663 -0.8670
15583TIP3   OH268163   3.671   6.756   3.845  0.1952  0.5495  0.2308
15583TIP3    H168164   3.737   6.699   3.804 -0.2246 -0.2896  0.6944
15583TIP3    H268165   3.596   6.751   3.786  1.0704  2.8825 -1.2397
15584TIP3   OH268166   3.951   6.786   2.414  0.0832 -0.2023  0.3370
15584TIP3    H168167   3.872   6.783   2.469  0.8072  1.0700  1.5239
15584TIP3    H268168   3.917   6.791   2.324 -1.2311  0.8148  0.8417
15585TIP3   OH268169   5.747   1.989  13.566 -0.1892  0.7545 -0.9343
15585TIP3    H168170   5.800   2.054  13.612 -0.4187  0.0826  0.3029
15585TIP3    H268171   5.677   2.040  13.524 -0.2144  1.3367 -0.1917
15586TIP3   OH268172   1.900   0.778   0.957 -0.2170 -0.2070  0.2218
15586TIP3    H168173   1.904   0.835   0.881 -2.8034 -0.0354  0.1149
15586TIP3    H268174   1.830   0.716   0.937  0.4405 -1.4864  1.6227
15587TIP3   OH268175   2.827   5.026  15.952  0.2447  0.0313 -0.5616
15587TIP3    H168176   2.892   5.058  16.014 -0.1926 -0.2383  0.0620
15587TIP3    H268177   2.845   5.072  15.871  2.2023 -1.1812 -0.8740
15588TIP3   OH268178   2.748   0.719   3.073  0.5067  0.3531  0.3034
15588TIP3    H168179   2.837   0.722   3.106  0.6491  0.7130 -0.1025
15588TIP3    H268180   2.732   0.807   3.038  1.6689 -0.8487 -3.8743
15589TIP3   OH268181   5.197   5.694  15.718 -0.2350  0.2171  0.0362
15589TIP3    H168182   5.208   5.622  15.781 -1.4584 -0.6817 -0.7474
15589TIP3    H268183   5.276   5.748  15.730  1.1732 -1.7396 -0.0000
15590TIP3   OH268184   4.687   0.016  13.664 -0.2101 -0.4529 -0.1648
15590TIP3    H168185   4.770   0.048  13.699 -0.5020 -0.2765  0.3671
15590TIP3    H268186   4.696   0.026  13.569 -0.4536  1.5883 -0.0072
15591TIP3   OH268187   4.980   3.396   0.761 -0.2742  0.7530 -0.0136
15591TIP3    H168188   5.032   3.463   0.716 -1.6067  0.1553 -2.6636
15591TIP3    H268189   4.937   3.443   0.832  1.0477  2.0478 -0.0303
15592TIP3   OH268190   3.512   4.387   5.483 -0.3267  0.0627 -0.6730
15592TIP3    H168191   3.436   4.394   5.541 -1.0038 -1.6058 -1.2802
15592TIP3    H268192   3.477   4.405   5.396  0.3220  0.8342 -0.7863
15593TIP3   OH268193   3.651   5.180   5.532  0.2321 -0.1666 -0.1863
15593TIP3    H168194   3.692   5.099   5.503  1.7417  0.0883  1.0910
15593TIP3    H268195   3.575   5.191   5.475  0.4477 -2.0534 -0.8972
15594TIP3   OH268196   3.636   4.734  11.396 -0.2079  0.1546 -0.1762
15594TIP3    H168197   3.586   4.808  11.363 -0.6364 -0.6304 -1.3704
15594TIP3    H268198   3.570   4.675  11.434  0.1972  0.6745  1.4395
15595TIP3   OH268199   2.746   4.768   3.044  0.1342  0.1426  0.1934
15595TIP3    H168200   2.725   4.712   2.968  1.7796 -1.3913  0.7840
15595TIP3    H268201   2.776   4.850   3.005  0.4190 -0.4188 -0.8246
15596TIP3   OH268202   3.784   3.780   3.776 -0.1470 -0.1107 -0.5399
15596TIP3    H168203   3.850   3.726   3.819  0.2498 -1.1250 -2.3276
15596TIP3    H268204   3.812   3.870   3.792  0.1509 -0.4593  1.0164
15597TIP3   OH268205   0.670   2.886  17.141  0.1615 -0.3536  0.3415
15597TIP3    H168206   0.668   2.793  17.118  0.5272 -0.1978 -0.3526
15597TIP3    H268207   0.616   2.892  17.220 -0.4639 -1.0426 -0.0150
15598TIP3   OH268208   1.668   2.649   2.718  0.5582 -0.1537 -0.0469
15598TIP3    H168209   1.609   2.698   2.776  0.4404  0.1375 -0.4050
15598TIP3    H268210   1.633   2.560   2.717  0.5916 -0.1745  0.3674
15599TIP3   OH268211   0.852   4.835  15.198 -0.1791 -0.1714 -0.8897
15599TIP3    H168212   0.831   4.848  15.106  0.1804  0.6179 -0.8654
15599TIP3    H268213   0.820   4.746  15.218 -1.3268  0.0931 -1.4674
15600TIP3   OH268214   0.005   0.761  13.524  0.2807 -0.8664  0.3188
15600TIP3    H168215  -0.081   0.719  13.516  0.2716 -1.2596  2.0115
15600TIP3    H268216   0.037   0.770  13.434 -1.0444 -1.7277 -0.2600
15601TIP3   OH268217   5.174   3.584   4.343 -0.7033 -0.1961  0.6022
15601TIP3    H168218   5.130   3.574   4.427 -2.1304 -0.0216 -0.0767
15601TIP3    H268219   5.103   3.611   4.283  0.4505  0.6392 -0.4350
15602TIP3   OH268220   0.327   6.725   1.844 -0.4093 -0.0229  0.6670
15602TIP3    H168221   0.355   6.634   1.849  2.0057  0.7059  1.7974
15602TIP3    H268222   0.249   6.729   1.899 -1.2273 -1.5755 -0.2879
15603TIP3   OH268223   5.277   2.790  16.784  0.2559  0.0183 -1.1398
15603TIP3    H168224   5.251   2.856  16.720 -1.2305 -1.4022 -2.0641
15603TIP3    H268225   5.317   2.721  16.732  0.4230 -0.4878 -0.3551
15604TIP3   OH268226   6.448   3.286   6.247 -0.1346 -0.0288  0.3034
15604TIP3    H168227   6.455   3.381   6.253 -0.2912  0.0380 -0.5034
15604TIP3    H268228   6.539   3.256   6.242 -0.0775  0.0605  0.7987
15605TIP3   OH268229   1.586   1.802  11.682 -0.7724  0.5014 -0.5171
15605TIP3    H168230   1.549   1.872  11.628 -0.9769  1.5086  0.8560
15605TIP3    H268231   1.678   1.826  11.694 -1.1289  1.2670  0.9852
15606TIP3   OH268232   0.130   2.963  13.203  0.7955 -0.1232  0.0102
15606TIP3    H168233   0.095   2.908  13.273 -2.3461  0.2452 -1.1062
15606TIP3    H268234   0.188   3.025  13.247  0.4245 -1.0971  1.9752
15607TIP3   OH268235   4.376   2.911   5.391  0.2924  0.6038  0.3084
15607TIP3    H168236   4.423   2.975   5.445  0.3516 -0.0998  1.1113
15607TIP3    H268237   4.287   2.947   5.384  0.3351  0.7991  0.7166
15608TIP3   OH268238   2.585   5.325  13.471  0.1350  0.2901 -0.1810
15608TIP3    H168239   2.556   5.357  13.386  1.2574 -1.2696 -1.2247
15608TIP3    H268240   2.664   5.374  13.490 -0.4220  1.0398  0.2683
15609TIP3   OH268241   4.137   6.768  10.552  0.6333  0.1695  0.3511
15609TIP3    H168242   4.148   6.749  10.459 -1.6958  0.4790 -0.0399
15609TIP3    H268243   4.085   6.848  10.555 -0.3184 -0.4570  1.8913
15610TIP3   OH268244   1.733   5.846   1.202 -0.2438 -0.5673 -0.4175
15610TIP3    H168245   1.816   5.895   1.207 -0.3383 -0.4062 -0.4161
15610TIP3    H268246   1.751   5.764   1.247 -0.0449 -0.5872 -0.5300
15611TIP3   OH268247   2.644   5.419   4.305 -0.0482  0.1874  0.2200
15611TIP3    H168248   2.579   5.406   4.235  0.1876  1.3387 -0.2293
15611TIP3    H268249   2.593   5.442   4.382 -0.4543 -2.6676  0.9320
15612TIP3   OH268250   3.175   3.641   5.996 -0.3047  0.1166 -0.0324
15612TIP3    H168251   3.144   3.637   6.087 -2.5560  1.2481 -0.6612
15612TIP3    H268252   3.258   3.688   6.001 -1.2025  1.6961  1.3244
15613TIP3   OH268253   0.283   0.095   0.380  0.2273 -0.2428  0.4347
15613TIP3    H168254   0.344   0.169   0.387 -2.1166  1.7878  1.2529
15613TIP3    H268255   0.268   0.085   0.286 -0.3509  1.2500  0.3313
15614TIP3   OH268256   1.697   6.005  14.601 -0.0057  0.5064  0.2682
15614TIP3    H168257   1.609   5.995  14.638 -1.0473 -0.5523 -2.2855
15614TIP3    H268258   1.733   5.916  14.602  0.2384  0.5952 -0.4992
15615TIP3   OH268259   4.665   0.655  12.376 -0.5137 -0.7794 -0.4691
15615TIP3    H168260   4.706   0.582  12.330  3.2138  0.5719  0.3154
15615TIP3    H268261   4.700   0.733  12.332 -2.8682  0.5964 -0.0863
15616TIP3   OH268262   3.796   2.986   1.809 -0.3334 -0.1600  0.1880
15616TIP3    H168263   3.771   3.028   1.891  0.5969  3.3876 -1.1338
15616TIP3    H268264   3.737   3.025   1.744  1.4296  0.1286 -1.3301
15617TIP3   OH268265   3.610   5.339   3.625 -0.5116  0.0183  0.1005
15617TIP3    H168266   3.529   5.323   3.577  0.0503 -0.4539 -0.7215
15617TIP3    H268267   3.637   5.252   3.655  1.0828 -0.2780 -1.9608
15618TIP3   OH268268   4.039   4.916  14.627 -0.1682  0.6428 -0.1846
15618TIP3    H168269   4.120   4.921  14.575  0.1458  0.6581  0.3021
15618TIP3    H268270   3.970   4.907  14.562  0.5137 -3.9787 -0.6244
15619TIP3   OH268271   5.743   2.435  13.777 -0.0261  0.0093  0.4685
15619TIP3    H168272   5.729   2.480  13.860 -0.2605 -1.2732  1.1541
15619TIP3    H268273   5.714   2.497  13.711 -0.2469  0.8888  1.3632
15620TIP3   OH268274   4.322   2.666   5.542  0.2508 -0.2188 -0.2079
15620TIP3    H168275   4.346   2.754   5.512  1.9098 -0.7720 -0.6160
15620TIP3    H268276   4.318   2.614   5.462  2.5976 -1.2233  0.2405
15621TIP3   OH268277   3.716   0.085  15.445  0.1657  0.4935 -0.2776
15621TIP3    H168278   3.727   0.085  15.540 -1.8250  2.5780  0.0402
15621TIP3    H268279   3.757   0.166  15.416 -1.7478  1.3600 -0.7586
15622TIP3   OH268280   3.449   4.283  15.012  0.1190 -0.4415 -0.0164
15622TIP3    H168281   3.513   4.297  15.082 -0.7605  0.7449  0.5914
15622TIP3    H268282   3.456   4.190  14.992 -0.2002 -1.0345  2.2869
15623TIP3   OH268283   4.347   2.311   5.655  0.2641 -0.1347  0.2092
15623TIP3    H168284   4.253   2.303   5.670 -0.1827  1.6348 -1.2557
15623TIP3    H268285   4.359   2.294   5.562  0.8407  2.8629 -0.3749
15624TIP3   OH268286   0.561   4.209  16.998  0.5169 -0.0469  0.1869
15624TIP3    H168287   0.629   4.149  16.968  1.3427  0.6783  0.5491
15624TIP3    H268288   0.590   4.295  16.968 -0.4801  0.2224 -0.0376
15625TIP3   OH268289   0.697   5.397  15.978  0.5544 -0.0958 -0.1127
15625TIP3    H168290   0.765   5.438  16.032  0.8948 -0.9203  0.1102
15625TIP3    H268291   0.744   5.331  15.927  0.0151 -0.2715 -0.3887
15626TIP3   OH268292   6.727   3.866   3.062  0.3615  0.0603  0.8090
15626TIP3    H168293   6.816   3.854   3.096  1.7470  0.1472 -2.3864
15626TIP3    H268294   6.705   3.956   3.085  1.6544  0.4539  0.6305
15627TIP3   OH268295   5.795   5.911   2.336 -0.0390  0.2458 -0.4317
15627TIP3    H168296   5.811   5.967   2.412  0.3954 -0.6606  0.1616
15627TIP3    H268297   5.838   5.957   2.263  0.2352  0.7308  0.0266
15628TIP3   OH268298   0.268   1.100   5.090 -0.7676  0.5268  0.0074
15628TIP3    H168299   0.258   1.143   5.175  1.7373 -0.2734  0.7847
15628TIP3    H268300   0.210   1.024   5.094  2.0657 -1.7721  2.7088
15629TIP3   OH268301   4.058   1.245  12.293 -0.5909  0.2503 -0.1904
15629TIP3    H168302   3.975   1.259  12.339 -1.3439 -1.7198 -0.8451
15629TIP3    H268303   4.121   1.228  12.363 -0.6154  2.0490  0.3340
15630TIP3   OH268304   2.618   2.733   2.821 -0.2615 -0.7555  0.5901
15630TIP3    H168305   2.589   2.642   2.810 -0.9474 -0.4746 -0.0026
15630TIP3    H268306   2.563   2.768   2.891 -1.4888 -0.1868 -0.6167
15631TIP3   OH268307   5.375   4.080  17.012 -0.3929  0.2397 -0.5424
15631TIP3    H168308   5.425   4.020  17.068 -1.1436 -0.9503 -1.1229
15631TIP3    H268309   5.312   4.121  17.071 -0.1995  0.0872 -0.2274
15632TIP3   OH268310   3.142   1.202  12.762  0.4126  0.3402  0.0201
15632TIP3    H168311   3.203   1.152  12.817  2.2070  3.0059  0.6624
15632TIP3    H268312   3.128   1.284  12.810 -3.4708  0.0523 -0.3068
15633TIP3   OH268313   4.349   1.803  12.534  0.2898 -0.0538 -0.3915
15633TIP3    H168314   4.391   1.870  12.588  0.3752 -0.4483  0.0382
15633TIP3    H268315   4.318   1.851  12.457  2.1005  0.1449 -1.0455
15634TIP3   OH268316   1.753   5.740  14.559  0.0059  0.2991  0.3574
15634TIP3    H168317   1.683   5.708  14.616  1.0269  0.5676  1.8266
15634TIP3    H268318   1.821   5.672  14.564 -0.0549  0.1319 -0.8820
15635TIP3   OH268319   4.588   1.727   2.570  0.7368 -0.2585 -0.4811
15635TIP3    H168320   4.495   1.715   2.587  0.0131  1.3332 -2.7498
15635TIP3    H268321   4.605   1.819   2.591  0.5318  0.8758 -4.3689
15636TIP3   OH268322   5.758   2.031   5.405  0.0608  0.6769 -0.0010
15636TIP3    H168323   5.720   1.977   5.474  0.5143 -0.8491 -0.9111
15636TIP3    H268324   5.687   2.039   5.340  0.3692  0.1776 -0.4055
15637TIP3   OH268325   6.516   3.872   2.510  0.0291 -0.4273  0.2985
15637TIP3    H168326   6.433   3.871   2.557 -0.6192 -2.1540 -0.7706
15637TIP3    H268327   6.551   3.960   2.523 -2.1122  0.4333  0.5198
15638TIP3   OH268328   4.723   1.310   1.398 -0.3065 -0.0223  0.5324
15638TIP3    H168329   4.781   1.315   1.322  0.2568 -2.0610  0.7776
15638TIP3    H268330   4.639   1.283   1.362  0.6531 -3.8789  0.8071
15639TIP3   OH268331   0.746   2.973  15.529 -0.5060  0.1511 -0.1623
15639TIP3    H168332   0.774   2.887  15.498  1.6932  0.2885  1.2189
15639TIP3    H268333   0.679   2.955  15.596 -1.5658 -0.3422 -1.3209
15640TIP3   OH268334   4.626   2.693   3.632 -1.0899  0.0649 -0.5125
15640TIP3    H168335   4.563   2.745   3.681 -0.0472  1.0875 -0.2104
15640TIP3    H268336   4.612   2.716   3.541 -2.5731 -1.3313 -0.6839
15641TIP3   OH268337   2.676   0.629   1.603  0.2728 -0.1742  0.0860
15641TIP3    H168338   2.718   0.700   1.652 -0.1176 -0.0019  0.1707
15641TIP3    H268339   2.704   0.642   1.513  0.1687  0.1126  0.0949
15642TIP3   OH268340   2.623   0.518  17.008  0.0796  0.0835 -0.0366
15642TIP3    H168341   2.595   0.508  16.917  0.6709  1.4769 -0.4122
15642TIP3    H268342   2.544   0.547  17.054 -0.1245 -0.2224 -0.1902
15643TIP3   OH268343   3.587   1.228   1.136  0.0192 -0.0129 -0.4388
15643TIP3    H168344   3.558   1.316   1.160  0.3160 -0.0991  0.2727
15643TIP3    H268345   3.522   1.198   1.072  0.7936  1.3107 -1.9224
15644TIP3   OH268346   5.384   3.299  16.050 -0.3331 -0.0505  0.1986
15644TIP3    H168347   5.460   3.356  16.062 -0.1719 -0.1789 -0.2077
15644TIP3    H268348   5.379   3.284  15.956  0.0829 -1.3213  0.3528
15645TIP3   OH268349   1.471   0.039  12.424  0.5760 -0.0639  0.3077
15645TIP3    H168350   1.547  -0.020  12.429  0.4658 -0.2125  0.2429
15645TIP3    H268351   1.413  -0.002  12.359 -0.2418 -0.7463  1.4309
15646TIP3   OH268352   4.036   6.205   0.680  0.2786 -0.5298  0.5912
15646TIP3    H168353   3.949   6.244   0.689  1.3615  2.5791 -1.0379
15646TIP3    H268354   4.020   6.120   0.640 -2.0561 -0.5601  1.4422
15647TIP3   OH268355   5.658   0.203  11.549 -0.6158  0.4638 -0.3500
15647TIP3    H168356   5.564   0.218  11.551 -0.6382  0.5458 -1.3655
15647TIP3    H268357   5.697   0.290  11.556 -0.6195  0.4599 -0.2781
15648TIP3   OH268358   2.989   6.721  12.133  0.6964  0.5180 -1.0773
15648TIP3    H168359   3.076   6.703  12.097 -0.0339 -3.0121 -1.3593
15648TIP3    H268360   2.930   6.717  12.058  0.0259  0.6761 -0.5709
15649TIP3   OH268361   3.151   6.474  14.903 -0.1675 -0.3233 -0.0438
15649TIP3    H168362   3.107   6.544  14.855 -0.2107 -1.1818 -1.3115
15649TIP3    H268363   3.153   6.504  14.994  0.5445  1.6859 -0.6643
15650TIP3   OH268364   6.481   5.068   2.129 -0.4167 -0.0322 -0.0603
15650TIP3    H168365   6.499   5.161   2.140 -2.0201  0.3109 -0.0820
15650TIP3    H268366   6.450   5.039   2.215 -0.3656 -0.4363 -0.1737
15651TIP3   OH268367   4.890   6.677   2.063  0.2247  0.4406 -0.5358
15651TIP3    H168368   4.902   6.766   2.030  0.7370  1.5808  2.4541
15651TIP3    H268369   4.977   6.650   2.092  0.2744 -1.4749 -2.2412
15652TIP3   OH268370   6.060   6.145  13.153 -0.5754  0.0399 -0.2940
15652TIP3    H168371   5.977   6.100  13.169 -0.9123  1.0094  0.8248
15652TIP3    H268372   6.119   6.111  13.221 -1.0092  1.6676  0.9593
15653TIP3   OH268373   5.588   1.025   1.995 -0.1965  0.3487  0.5645
15653TIP3    H168374   5.659   0.966   2.018 -1.1708 -1.3250 -0.5255
15653TIP3    H268375   5.535   1.032   2.074  0.7535  1.0455  1.1636
15654TIP3   OH268376   1.477   5.226   1.840  0.2561 -0.8717  0.2547
15654TIP3    H168377   1.461   5.302   1.785 -0.6551 -1.1993  0.0521
15654TIP3    H268378   1.420   5.238   1.916 -0.8006 -1.9094 -0.3309
15655TIP3   OH268379   4.611   4.789  15.033 -0.1903  0.9975  0.1870
15655TIP3    H168380   4.548   4.861  15.029 -1.1182  0.2233  0.4017
15655TIP3    H268381   4.638   4.786  15.125 -0.5472  0.7556  0.2879
15656TIP3   OH268382   1.476   0.648  11.812 -0.2390 -0.1394 -0.4569
15656TIP3    H168383   1.457   0.578  11.875 -0.3420  0.4052  0.1271
15656TIP3    H268384   1.571   0.656  11.812 -0.3088  1.6266  1.6382
15657TIP3   OH268385   2.984   0.828  14.399 -0.0591  0.0444  0.0522
15657TIP3    H168386   2.947   0.783  14.323 -0.8693  1.4940 -0.4541
15657TIP3    H268387   3.063   0.779  14.420  1.3847  0.7874 -3.0756
15658TIP3   OH268388   0.258   5.145  13.194  0.2600 -0.1665  0.3961
15658TIP3    H168389   0.334   5.135  13.137 -1.0657 -2.0840 -1.1276
15658TIP3    H268390   0.272   5.081  13.264 -0.6794 -1.6900 -0.7680
15659TIP3   OH268391   1.294   3.414   5.012  0.0990 -0.2441 -0.2195
15659TIP3    H168392   1.284   3.507   4.995  1.1326 -0.0542  0.1143
15659TIP3    H268393   1.268   3.371   4.931  2.0124  0.4724 -1.2744
15660TIP3   OH268394   6.650   5.202   3.300  0.4533  0.2120 -0.1470
15660TIP3    H168395   6.672   5.281   3.249 -1.5228  2.0264  1.6309
15660TIP3    H268396   6.579   5.161   3.251 -1.0887  1.6682  0.7653
15661TIP3   OH268397   0.013   0.710   0.033  0.0756  0.2122 -0.5207
15661TIP3    H168398  -0.024   0.711   0.121 -0.2498 -0.3618 -0.6464
15661TIP3    H268399   0.100   0.672   0.044 -0.8983 -2.2924 -0.7716
15662TIP3   OH268400   0.674   2.122  15.937  0.2717  0.2286 -0.1142
15662TIP3    H168401   0.682   2.043  15.991 -0.8577  0.8122  0.9724
15662TIP3    H268402   0.630   2.093  15.857 -2.8263  0.1693  1.4748
15663TIP3   OH268403   2.415   5.866  14.760  0.0816 -0.9792  0.3738
15663TIP3    H168404   2.455   5.932  14.816 -0.2014  0.1307 -0.7106
15663TIP3    H268405   2.479   5.850  14.691 -0.4363 -0.7884 -0.1592
15664TIP3   OH268406   5.392   2.747  15.677  0.5977 -0.1911  0.0304
15664TIP3    H168407   5.406   2.769  15.769  0.5774 -1.8524  0.4575
15664TIP3    H268408   5.298   2.734  15.669  0.6822 -0.8114 -0.0313
15665TIP3   OH268409   0.638   1.346   2.383 -0.2430  0.2473 -0.1371
15665TIP3    H168410   0.612   1.262   2.420 -1.1788  0.8211  0.5749
15665TIP3    H268411   0.665   1.398   2.459 -0.8387  0.9821 -0.4133
15666TIP3   OH268412   4.276   1.087  12.062  0.0607  0.5350  0.3602
15666TIP3    H168413   4.180   1.080  12.068  0.1655 -1.5050  0.2569
15666TIP3    H268414   4.309   1.032  12.133  1.1691  0.9231  0.1670
15667TIP3   OH268415   2.801   5.406  10.567  0.5485 -0.3427  0.0779
15667TIP3    H168416   2.727   5.350  10.590  1.0080 -0.6027  0.9400
15667TIP3    H268417   2.773   5.495  10.591 -0.4061 -0.0585 -1.8108
15668TIP3   OH268418   3.136   6.320  14.029 -0.1336  0.1810 -0.4925
15668TIP3    H168419   3.130   6.382  13.956 -0.5268  0.4959 -0.1988
15668TIP3    H268420   3.219   6.275  14.016  0.9902  1.9359  0.2051
15669TIP3   OH268421   3.824   1.291  12.439 -0.6145 -0.4012 -0.0734
15669TIP3    H168422   3.732   1.306  12.421 -0.7006  0.1956  0.8410
15669TIP3    H268423   3.849   1.360  12.500 -0.0287 -1.6667  1.1593
15670TIP3   OH268424   2.157   1.433  15.407  0.1711  0.9264 -0.3522
15670TIP3    H168425   2.146   1.510  15.464  0.7707  0.7939 -0.0570
15670TIP3    H268426   2.243   1.398  15.429 -0.4482 -0.3391  0.1228
15671TIP3   OH268427   3.897   2.381  11.438  0.0420 -0.5100  0.1306
15671TIP3    H168428   3.993   2.383  11.437  0.0744  0.7093  1.9497
15671TIP3    H268429   3.875   2.322  11.510 -0.5639 -0.0483  0.3351
15672TIP3   OH268430   4.009   3.852  11.729  0.1428 -0.2472 -0.4988
15672TIP3    H168431   3.914   3.845  11.715 -0.2218  2.4239 -0.0189
15672TIP3    H268432   4.019   3.851  11.825  0.2647  1.7857 -0.4404
15673TIP3   OH268433   2.109   0.480  16.003  0.2817 -0.1720  0.2771
15673TIP3    H168434   2.183   0.473  15.942 -1.0323 -0.6261 -1.3496
15673TIP3    H268435   2.046   0.414  15.972 -1.7999  1.7695  0.1312
15674TIP3   OH268436   0.096   5.635   1.498 -0.0677  0.1479 -0.5048
15674TIP3    H168437   0.144   5.707   1.539 -0.1066 -0.0365 -0.1299
15674TIP3    H268438   0.060   5.673   1.418  0.5276  0.3441 -0.6857
15675TIP3   OH268439   0.173   4.306  11.771 -0.1610 -0.3296 -0.5790
15675TIP3    H168440   0.095   4.254  11.790  0.8347 -0.9292  2.3806
15675TIP3    H268441   0.143   4.397  11.775 -0.9398 -0.5665 -0.7802
15676TIP3   OH268442   5.950   1.037   5.886  0.3960 -0.0817 -0.3998
15676TIP3    H168443   5.942   1.019   5.980 -0.0430  0.0531 -0.4125
15676TIP3    H268444   5.986   0.956   5.849  0.0506 -0.3254 -0.2006
15677TIP3   OH268445   3.840   0.491   3.685  0.9171  0.2955  0.1522
15677TIP3    H168446   3.860   0.578   3.650  0.9374  0.4302  0.4985
15677TIP3    H268447   3.849   0.500   3.780  0.4825  0.0276  0.2229
15678TIP3   OH268448   1.218   2.267   3.995  0.3811  0.7018  0.2038
15678TIP3    H168449   1.293   2.291   4.049  0.8532  0.6175 -0.3919
15678TIP3    H268450   1.216   2.172   3.997  0.5251  0.6915 -0.0873
15679TIP3   OH268451   0.550   5.228   2.040 -0.0726 -0.4567 -0.4557
15679TIP3    H168452   0.519   5.308   2.082 -1.1197 -1.0337 -0.1083
15679TIP3    H268453   0.471   5.178   2.022  0.5762 -1.4562 -0.5981
15680TIP3   OH268454   3.212   0.848  17.051 -0.0113  0.0291  0.0448
15680TIP3    H168455   3.224   0.761  17.088  2.0058  0.7879  1.3130
15680TIP3    H268456   3.216   0.834  16.956  1.4796 -1.1456  0.2420
15681TIP3   OH268457   3.607   4.768   3.412  0.0138  0.4072 -0.4410
15681TIP3    H168458   3.521   4.809   3.415  0.2996  1.1010 -1.3384
15681TIP3    H268459   3.647   4.802   3.332  0.4911 -1.1639 -0.9064
15682TIP3   OH268460   5.550   2.287   3.333 -0.2870 -0.5090 -0.9462
15682TIP3    H168461   5.635   2.310   3.294 -0.2802  0.6835 -0.2719
15682TIP3    H268462   5.573   2.252   3.419 -0.5029  0.8605 -0.2990
15683TIP3   OH268463   3.785   4.083  11.536  0.0404  0.3795  0.5666
15683TIP3    H168464   3.766   3.993  11.563 -0.0182 -0.1901 -1.2246
15683TIP3    H268465   3.871   4.078  11.495 -1.1869  0.4236 -2.2992
15684TIP3   OH268466   3.614   2.426  16.468  0.2212  0.3912  0.2127
15684TIP3    H168467   3.645   2.483  16.539  1.0698  2.0186 -1.3891
15684TIP3    H268468   3.691   2.411  16.414 -0.7112  0.4670 -1.2004
15685TIP3   OH268469   3.289   6.057  12.583  0.5591  0.3440 -0.2088
15685TIP3    H168470   3.340   5.996  12.530  0.4863 -0.2376  0.3819
15685TIP3    H268471   3.205   6.013  12.598  0.8033  0.2135  0.9059
15686TIP3   OH268472   6.127   0.770   2.574  0.6609 -0.5542 -0.3549
15686TIP3    H168473   6.180   0.824   2.515  0.9784 -1.8543 -1.3033
15686TIP3    H268474   6.181   0.694   2.592 -0.3685 -1.2816 -0.2617
15687TIP3   OH268475   3.731   4.679   5.935  0.1839  0.2761  0.1906
15687TIP3    H168476   3.717   4.640   5.849  0.4847  0.7172 -0.0649
15687TIP3    H268477   3.649   4.725   5.954 -0.7842 -1.7143  1.1913
15688TIP3   OH268478   1.282   0.207  10.422  0.3553 -0.0116  0.0653
15688TIP3    H168479   1.196   0.213  10.382  1.4501  1.6416 -2.2547
15688TIP3    H268480   1.266   0.224  10.515 -1.8366 -0.1354 -0.2445
15689TIP3   OH268481   1.626   0.031   0.915 -0.0757 -0.2020 -0.4031
15689TIP3    H168482   1.579  -0.051   0.929 -0.4705 -0.0695 -0.9162
15689TIP3    H268483   1.716   0.013   0.944 -0.3430 -0.5787  0.2068
15690TIP3   OH268484   1.757   0.585   1.596  0.7278 -0.2561  0.2538
15690TIP3    H168485   1.773   0.627   1.680  0.6012 -0.1373  0.2176
15690TIP3    H268486   1.805   0.502   1.601  0.7377 -0.2386  0.4337
15691TIP3   OH268487   1.118   5.970   5.914  0.7592 -0.2207 -0.3231
15691TIP3    H168488   1.156   5.937   5.995  1.7667  0.2947 -0.5831
15691TIP3    H268489   1.100   6.062   5.931 -1.7987 -0.7422  0.3029
15692TIP3   OH268490   4.546   1.018  14.519  0.2422 -0.2473 -0.0364
15692TIP3    H168491   4.536   0.988  14.429 -1.3036 -1.0607  0.3836
15692TIP3    H268492   4.488   0.962  14.570  0.0558  1.0997  1.2899
15693TIP3   OH268493   5.721   1.726  11.385  0.1608  0.4363 -0.1348
15693TIP3    H168494   5.787   1.779  11.341  0.6182 -0.7072 -0.8680
15693TIP3    H268495   5.738   1.739  11.479 -0.5442  2.5379 -0.2665
15694TIP3   OH268496   4.764   4.448  11.438 -0.4828  0.0734  0.5197
15694TIP3    H168497   4.721   4.427  11.521 -1.7618 -1.1975 -0.4326
15694TIP3    H268498   4.809   4.368  11.412  0.9340  0.8173  0.5368
15695TIP3   OH268499   5.336   3.153  16.527  0.1336 -0.0105 -0.2906
15695TIP3    H168500   5.244   3.150  16.556  0.3677  3.4644  1.3851
15695TIP3    H268501   5.376   3.076  16.566 -1.3316  0.3476  2.1166
15696TIP3   OH268502   6.494   6.217   1.247  0.6639 -0.1812 -0.2704
15696TIP3    H168503   6.496   6.189   1.338  0.4218 -1.9414 -0.7678
15696TIP3    H268504   6.493   6.313   1.251  1.0322 -0.2209  1.5489
15697TIP3   OH268505   2.260   0.013   0.488 -0.4929 -0.4890  0.6100
15697TIP3    H168506   2.314   0.047   0.559  1.1669  0.3580 -0.9964
15697TIP3    H268507   2.274  -0.082   0.490  1.6794 -0.2146 -0.2497
15698TIP3   OH268508   5.697   6.555   6.079  0.2207 -0.1302 -0.1606
15698TIP3    H168509   5.618   6.550   6.026  0.9735  0.2545 -1.3488
15698TIP3    H268510   5.706   6.647   6.101  0.3596 -0.1661 -0.0660
15699TIP3   OH268511   6.201   6.127   5.596 -0.2532 -0.4919 -0.1268
15699TIP3    H168512   6.241   6.145   5.681 -1.1855 -0.5109  0.3344
15699TIP3    H268513   6.171   6.036   5.602 -1.4975 -0.0992  0.0395
15700TIP3   OH268514   1.465   3.414   5.621 -0.1798 -0.0252  0.0568
15700TIP3    H168515   1.444   3.375   5.537 -0.9377  0.8944 -0.1983
15700TIP3    H268516   1.510   3.345   5.669  1.2094 -0.2442 -1.4627
15701TIP3   OH268517   1.090   1.245   4.750 -0.2429  0.1524  0.8075
15701TIP3    H168518   1.118   1.310   4.686 -0.0478 -2.8902 -2.5105
15701TIP3    H268519   1.171   1.201   4.777 -0.6416 -0.7517  0.5671
15702TIP3   OH268520   1.003   6.177   5.205  0.4565  0.2715  0.1548
15702TIP3    H168521   1.022   6.083   5.207 -0.0553  0.1632  0.2058
15702TIP3    H268522   1.089   6.219   5.201  0.7331 -0.1787  0.9871
15703TIP3   OH268523   5.444   5.912  15.602  0.1825 -0.0817  0.1079
15703TIP3    H168524   5.532   5.948  15.597  1.4145 -2.8213 -0.1733
15703TIP3    H268525   5.442   5.866  15.686 -1.4802  1.0359  0.7140
15704TIP3   OH268526   3.113   2.340   1.476 -0.0398 -0.5351 -0.2547
15704TIP3    H168527   3.059   2.284   1.533  0.4537 -0.4175  0.3425
15704TIP3    H268528   3.165   2.393   1.537 -0.8113  0.9046 -0.7789
15705TIP3   OH268529   4.206   1.546  12.597 -0.1097 -0.9663  0.4567
15705TIP3    H168530   4.279   1.568  12.539 -0.5951 -0.3368  0.0683
15705TIP3    H268531   4.190   1.627  12.646 -1.0510 -0.8545 -0.0195
15706TIP3   OH268532   1.685   3.759  12.923  0.1078  0.3864 -0.0529
15706TIP3    H168533   1.655   3.672  12.949 -1.0885  1.4888  2.6606
15706TIP3    H268534   1.779   3.749  12.907 -0.1434 -1.5135 -0.5331
15707TIP3   OH268535   2.472   0.534  15.478 -0.4403  0.2995 -0.2433
15707TIP3    H168536   2.380   0.515  15.461 -0.7307  0.8598  0.6637
15707TIP3    H268537   2.499   0.468  15.541  0.8172 -2.1860 -3.1134
15708TIP3   OH268538   1.956   2.271   2.184  0.5072 -0.5441  0.1733
15708TIP3    H168539   2.036   2.310   2.150  0.0782  0.7848  0.6187
15708TIP3    H268540   1.967   2.273   2.279 -0.3792  0.4354  0.2749
15709TIP3   OH268541   0.989   5.681  15.485 -0.5968 -0.5072 -0.3514
15709TIP3    H168542   1.039   5.748  15.439 -0.3797 -1.3950 -1.4587
15709TIP3    H268543   1.035   5.668  15.567 -0.9540  1.0687  0.1161
15710TIP3   OH268544   0.273   0.796  15.255  0.4549  0.1192 -0.0414
15710TIP3    H168545   0.287   0.881  15.213 -0.1234 -0.5063 -1.5685
15710TIP3    H268546   0.200   0.810  15.314 -0.2217  0.4870 -0.9467
15711TIP3   OH268547   5.414   1.104  12.023  0.1465  0.0635 -0.5253
15711TIP3    H168548   5.323   1.126  12.044 -0.1686 -2.0419  0.5661
15711TIP3    H268549   5.451   1.074  12.107  2.4700  2.6525 -0.4703
15712TIP3   OH268550   6.559   3.375   3.811  0.3351 -0.1889 -0.2748
15712TIP3    H168551   6.464   3.387   3.816  0.0670 -2.1721  0.0828
15712TIP3    H268552   6.582   3.406   3.724 -0.3784  1.7230  0.1656
15713TIP3   OH268553   1.220   3.265   4.785  0.3546 -0.3847 -0.0078
15713TIP3    H168554   1.292   3.244   4.725  0.4379  0.4102 -0.1947
15713TIP3    H268555   1.183   3.180   4.808  1.1033 -0.7833 -0.2210
15714TIP3   OH268556   2.707   1.204   3.829  0.0597 -0.2286  0.0444
15714TIP3    H168557   2.661   1.287   3.837  1.7910  0.7950  0.0588
15714TIP3    H268558   2.787   1.216   3.881  1.8505 -0.7228 -2.4095
15715TIP3   OH268559   4.846   3.970   1.879  0.3674  0.2768 -0.6068
15715TIP3    H168560   4.767   3.959   1.931  0.7841 -0.3880 -0.1024
15715TIP3    H268561   4.872   4.061   1.893 -0.9818  0.8745 -1.7586
15716TIP3   OH268562   0.018   2.970  17.158  0.0888  0.1868 -0.1125
15716TIP3    H168563  -0.070   3.005  17.147  0.0607  0.0206 -0.4436
15716TIP3    H268564   0.017   2.886  17.111 -0.0246 -0.5608  1.1776
15717TIP3   OH268565   5.997   0.574  12.473  0.1335 -0.5347 -0.5195
15717TIP3    H168566   6.041   0.516  12.535  1.5987  0.9096 -0.1513
15717TIP3    H268567   6.060   0.643  12.456 -0.5424 -0.4672 -3.0571
15718TIP3   OH268568   1.102   0.647   4.922 -0.2329  0.1217  0.0016
15718TIP3    H168569   1.170   0.685   4.978  0.2266  1.9167 -1.6537
15718TIP3    H268570   1.021   0.687   4.951  0.2188  2.4143 -1.5819
15719TIP3   OH268571   5.855   6.207  15.237 -0.2701 -0.2975  0.1294
15719TIP3    H168572   5.945   6.236  15.223  0.3009 -1.2676  1.5750
15719TIP3    H268573   5.821   6.267  15.304 -0.8724  0.3653 -0.7531
15720TIP3   OH268574   3.332   3.550  12.414 -0.5766  0.0161  0.2640
15720TIP3    H168575   3.422   3.580  12.423 -0.4615 -0.2753  0.1115
15720TIP3    H268576   3.279   3.618  12.455 -0.0750 -1.6142  3.9534
15721TIP3   OH268577   5.199   4.681  15.003  0.4127  0.6296 -0.7755
15721TIP3    H168578   5.279   4.717  15.043  0.7268 -0.0249 -0.8034
15721TIP3    H268579   5.131   4.695  15.069  1.0599 -1.0469  0.3080
15722TIP3   OH268580   5.279   2.914   4.906 -0.6726  0.6042  0.1007
15722TIP3    H168581   5.202   2.970   4.893 -0.3966  0.8092 -0.6733
15722TIP3    H268582   5.320   2.908   4.820 -0.1638 -0.0173  0.3757
15723TIP3   OH268583   3.390   1.479  15.607  0.5228  0.6227  0.4147
15723TIP3    H168584   3.375   1.401  15.553 -0.8705 -0.0715  1.7029
15723TIP3    H268585   3.454   1.531  15.558 -0.0409 -0.3569 -1.4640
15724TIP3   OH268586   0.481   1.041   2.042  0.3186 -0.4264 -0.1687
15724TIP3    H168587   0.554   1.070   2.096  0.7927  0.0346 -1.0271
15724TIP3    H268588   0.475   1.107   1.973 -1.3939 -0.0583  0.2898
15725TIP3   OH268589   5.575   2.440  11.493  0.1676 -0.1964  0.7428
15725TIP3    H168590   5.503   2.384  11.522  0.4580 -1.4463 -0.7938
15725TIP3    H268591   5.654   2.397  11.527  0.3446 -0.3370  0.1649
15726TIP3   OH268592   0.060   2.855   3.582 -0.2324  1.1475 -0.2146
15726TIP3    H168593   0.128   2.828   3.643 -1.6794 -1.0931  0.5546
15726TIP3    H268594   0.073   2.949   3.571  0.9681  1.3793  2.4503
15727TIP3   OH268595   4.910   0.454   4.515 -0.2281 -0.1774 -0.7238
15727TIP3    H168596   4.903   0.500   4.599 -0.7822  0.4325 -1.0935
15727TIP3    H268597   4.893   0.362   4.537  0.3716 -0.1454 -0.0583
15728TIP3   OH268598   4.807   3.230  13.948 -0.1089 -0.3627 -0.1923
15728TIP3    H168599   4.793   3.137  13.930  0.0885 -0.7292  1.3980
15728TIP3    H268600   4.902   3.238  13.962 -0.3545 -0.3888  1.8463
15729TIP3   OH268601   1.980   6.746  13.045 -0.3346 -0.0221 -0.4789
15729TIP3    H168602   2.038   6.800  12.991  0.4308 -0.3621 -0.0095
15729TIP3    H268603   1.969   6.796  13.126 -1.0379  0.2287 -0.7158
15730TIP3   OH268604   3.746   4.290   1.457 -0.4993  0.1937  0.2079
15730TIP3    H168605   3.747   4.365   1.397  0.5174 -0.1148 -0.1848
15730TIP3    H268606   3.701   4.323   1.535  1.0721  1.6469  0.5643
15731TIP3   OH268607   4.668   5.947   5.020 -0.1681  0.3650  0.2276
15731TIP3    H168608   4.662   5.854   4.998 -0.8902  0.8754 -2.0611
15731TIP3    H268609   4.604   5.960   5.090 -0.6089 -0.7429  0.0418
15732TIP3   OH268610   5.936   5.533  15.692 -0.7904 -0.5403 -0.4684
15732TIP3    H168611   5.980   5.618  15.690  0.9532 -1.3124  1.5026
15732TIP3    H268612   5.960   5.491  15.609  0.8975 -0.2881 -0.1364
15733TIP3   OH268613   2.319   0.017  10.726  0.2684 -0.2233  0.2513
15733TIP3    H168614   2.264  -0.000  10.802  1.2428 -0.8673  0.8408
15733TIP3    H268615   2.354  -0.068  10.701 -0.0656 -0.0271 -0.9565
15734TIP3   OH268616   2.915   3.205  16.057 -0.4713  0.1590 -0.5980
15734TIP3    H168617   2.912   3.163  15.971  0.6760  0.8407 -0.9922
15734TIP3    H268618   2.885   3.137  16.118  0.1491 -0.8185 -1.3570
15735TIP3   OH268619   0.784   5.797  13.174  0.1419  0.3723  0.0895
15735TIP3    H168620   0.794   5.873  13.117 -0.7149  0.8550  0.5525
15735TIP3    H268621   0.802   5.722  13.118  2.7965  0.9598  0.0420
15736TIP3   OH268622   0.770   4.932  16.738 -0.0815  0.5185 -0.2866
15736TIP3    H168623   0.830   4.972  16.675 -0.2783  0.9116 -0.2270
15736TIP3    H268624   0.780   4.984  16.817 -0.4901  0.5796 -0.2722
15737TIP3   OH268625   4.918   2.834   0.742  0.3448 -0.3758  0.6556
15737TIP3    H168626   5.004   2.802   0.713 -0.2265 -1.1022 -0.3294
15737TIP3    H268627   4.872   2.854   0.661 -0.4267 -0.0242  1.1705
15738TIP3   OH268628   2.447   1.493   5.265 -0.0913 -0.5963  0.2523
15738TIP3    H168629   2.500   1.513   5.188  0.3011 -0.3380  0.5834
15738TIP3    H268630   2.493   1.419   5.307  2.1653  1.8777  2.5415
15739TIP3   OH268631   6.310   2.485   4.791 -0.0721 -0.2639 -0.1120
15739TIP3    H168632   6.280   2.523   4.874  1.4581 -0.2952  0.4778
15739TIP3    H268633   6.394   2.527   4.774 -0.3762 -0.2326 -1.6873
15740TIP3   OH268634   6.721   5.288   2.650 -0.5926  0.0119 -0.0508
15740TIP3    H168635   6.738   5.374   2.688  0.2650 -0.2202  0.1116
15740TIP3    H268636   6.722   5.228   2.725  0.5714 -0.3722 -0.3574
15741TIP3   OH268637   2.254   4.623   4.271  0.1123  0.0806  0.6638
15741TIP3    H168638   2.348   4.616   4.253  0.0596 -0.1095  0.4630
15741TIP3    H268639   2.222   4.533   4.267  0.0196  0.0829  1.2717
15742TIP3   OH268640   1.825   3.193   0.941  0.1005 -0.4822 -0.8042
15742TIP3    H168641   1.853   3.285   0.936 -1.3937  0.1420  1.0703
15742TIP3    H268642   1.902   3.147   0.973  0.4745  0.3537 -0.4509
15743TIP3   OH268643   0.967   2.959   6.011 -0.3783  0.0062 -1.3357
15743TIP3    H168644   0.882   3.003   6.018 -1.3332 -1.6789 -1.7208
15743TIP3    H268645   0.982   2.923   6.099  0.0281  0.4418 -1.2235
15744TIP3   OH268646   0.256   3.920  12.225  0.3788 -0.1825 -0.6467
15744TIP3    H168647   0.317   3.907  12.152  1.3344 -0.1303  0.1304
15744TIP3    H268648   0.275   3.849  12.286  1.5671  1.3588  0.8708
15745TIP3   OH268649   2.244   6.204  16.834 -0.0891 -0.1516  0.1115
15745TIP3    H168650   2.224   6.228  16.744  0.9291 -0.9656 -0.3521
15745TIP3    H268651   2.249   6.287  16.881 -2.3868  0.2132 -0.1739
15746TIP3   OH268652   0.680   2.496  15.487 -0.2624 -0.0729  0.2574
15746TIP3    H168653   0.670   2.528  15.397 -1.2713 -0.0993  0.3506
15746TIP3    H268654   0.617   2.546  15.538 -0.0495 -0.4074  0.8615
15747TIP3   OH268655   2.208   3.473  13.943  0.3633 -0.1000 -0.3585
15747TIP3    H168656   2.123   3.518  13.946 -0.1162 -0.9743 -0.3760
15747TIP3    H268657   2.187   3.382  13.964  1.3170 -0.3060 -0.2775
15748TIP3   OH268658   1.454   6.299   4.760 -0.0911  0.1073  0.0592
15748TIP3    H168659   1.460   6.224   4.818  1.7545 -0.9567 -1.4050
15748TIP3    H268660   1.531   6.352   4.779  0.0453  0.2225 -0.7424
15749TIP3   OH268661   0.113   3.757   1.165 -0.2346 -0.5565 -0.1429
15749TIP3    H168662   0.196   3.724   1.199 -0.3190 -1.6546 -0.9569
15749TIP3    H268663   0.048   3.736   1.232  0.0739 -0.0704  0.3089
15750TIP3   OH268664   0.156   4.368  15.012 -0.0216  0.0008  0.3502
15750TIP3    H168665   0.204   4.286  15.025 -3.6596 -2.4792 -0.4903
15750TIP3    H268666   0.159   4.382  14.917  0.9950  1.1896  0.5344
15751TIP3   OH268667   3.319   3.735  16.160 -0.2791 -0.2220  0.2558
15751TIP3    H168668   3.409   3.728  16.193 -0.3873 -0.5218  0.4890
15751TIP3    H268669   3.310   3.661  16.099 -0.9605 -1.3375  1.6425
15752TIP3   OH268670   6.405   6.508  13.176  0.1008  0.1546 -0.2526
15752TIP3    H168671   6.420   6.514  13.271  0.4814 -0.1003 -0.2948
15752TIP3    H268672   6.467   6.571  13.138 -1.2080  1.4897 -0.2399
15753TIP3   OH268673   4.415   4.555   3.506 -0.1192 -0.8322  0.3270
15753TIP3    H168674   4.402   4.465   3.535  2.4133 -0.7095  2.1718
15753TIP3    H268675   4.481   4.549   3.437  0.5021 -0.3628  0.8707
15754TIP3   OH268676   5.961   3.603  14.089  0.5337 -0.3680 -0.3590
15754TIP3    H168677   5.897   3.568  14.026 -0.4538  1.3219 -0.3684
15754TIP3    H268678   5.907   3.633  14.162  1.3869  0.5115 -0.0839
15755TIP3   OH268679   5.677   5.437   5.768 -0.1987  0.2067 -0.5605
15755TIP3    H168680   5.663   5.531   5.781 -1.2122  0.1915 -1.3189
15755TIP3    H268681   5.746   5.432   5.702  0.0581  0.4082 -0.3097
15756TIP3   OH268682   5.317   1.140   1.178  0.1473  0.0368  0.5384
15756TIP3    H168683   5.394   1.103   1.222  0.4484 -1.6456 -1.2897
15756TIP3    H268684   5.349   1.167   1.092 -1.4396 -1.4175 -0.5540
15757TIP3   OH268685   1.584   5.054  14.189 -0.8831  0.2226  0.2750
15757TIP3    H168686   1.674   5.075  14.216 -0.4971  1.3776 -1.7271
15757TIP3    H268687   1.555   5.130  14.139 -2.2044 -1.0037 -0.9063
15758TIP3   OH268688   5.732   3.796   2.631 -0.7520 -0.1323  0.0787
15758TIP3    H168689   5.667   3.792   2.702 -1.3734  0.5315 -0.4322
15758TIP3    H268690   5.806   3.843   2.669 -0.9459 -0.0737  0.3931
15759TIP3   OH268691   0.151   6.715  16.820  0.1155 -0.2388 -0.2711
15759TIP3    H168692   0.159   6.676  16.733 -2.2263  1.3128 -1.2784
15759TIP3    H268693   0.074   6.673  16.858  0.0661  0.3727  0.3166
15760TIP3   OH268694   3.580   3.599  16.230  0.6288  0.1602 -0.1286
15760TIP3    H168695   3.563   3.513  16.192 -0.6659  1.2297 -2.1647
15760TIP3    H268696   3.636   3.643  16.165  0.8371  1.0360  0.6244
15761TIP3   OH268697   3.377   3.814  13.096 -0.4550  0.1708 -0.4664
15761TIP3    H168698   3.422   3.729  13.097  0.7302  0.7000  2.4384
15761TIP3    H268699   3.431   3.870  13.040 -0.6727 -0.6794 -1.5574
15762TIP3   OH268700   0.392   2.371   2.048 -0.7116 -0.0703  0.3162
15762TIP3    H168701   0.438   2.379   1.964 -4.0975  2.4135 -1.5752
15762TIP3    H268702   0.363   2.280   2.050 -0.1276 -0.3104 -0.9554
15763TIP3   OH268703   0.005   2.234   4.694  0.0955 -0.0215 -0.0034
15763TIP3    H168704  -0.011   2.319   4.654  1.6591 -0.1031 -0.8797
15763TIP3    H268705   0.040   2.180   4.623 -0.0677 -1.1458  0.7393
15764TIP3   OH268706   5.413   0.715   4.145  0.2705 -0.1075 -0.1939
15764TIP3    H168707   5.330   0.760   4.131  1.0150  1.2457 -0.3779
15764TIP3    H268708   5.480   0.782   4.134  1.4387 -1.2934 -0.6463
15765TIP3   OH268709   3.855   1.866   5.773  0.2343 -0.0987 -0.4302
15765TIP3    H168710   3.763   1.869   5.746 -0.2424  2.0065  1.1374
15765TIP3    H268711   3.853   1.827   5.860  0.9157 -0.5450 -0.6082
15766TIP3   OH268712   4.558   2.359   1.529 -0.2314 -0.1872 -0.1691
15766TIP3    H168713   4.504   2.281   1.543  1.0784 -1.4777 -1.8687
15766TIP3    H268714   4.512   2.408   1.461 -0.0829 -0.4565 -0.4643
15767TIP3   OH268715   2.522   1.531   5.012 -0.0752  0.0646 -0.3943
15767TIP3    H168716   2.465   1.603   5.038  0.4790 -0.1688  1.6445
15767TIP3    H268717   2.461   1.461   4.986 -0.8046 -0.1686  1.7081
15768TIP3   OH268718   0.225   0.950   2.161  0.2440 -0.1342 -0.1502
15768TIP3    H168719   0.195   0.882   2.101  0.4579  0.3493 -0.8136
15768TIP3    H268720   0.306   0.983   2.122 -0.4477  1.2919 -0.4550
15769TIP3   OH268721   6.654   0.811  12.206  0.8162 -0.5589 -0.0800
15769TIP3    H168722   6.705   0.890  12.190 -1.4330  0.6270 -2.2313
15769TIP3    H268723   6.580   0.840  12.259  0.6574 -1.5340  0.2581
15770TIP3   OH268724   1.286   5.466  11.672 -0.3970 -0.5643 -0.0757
15770TIP3    H168725   1.348   5.398  11.699  0.1110  0.1952  0.7463
15770TIP3    H268726   1.202   5.421  11.668 -0.0931 -1.2225  0.5951
15771TIP3   OH268727   3.705   2.234  12.518  0.5835 -0.0817  0.2018
15771TIP3    H168728   3.669   2.153  12.553 -0.0682  0.4880  0.8794
15771TIP3    H268729   3.687   2.300  12.585 -0.5633  1.0110 -1.1029
15772TIP3   OH268730   0.115   6.136  16.829 -0.1907 -0.3360 -0.5686
15772TIP3    H168731   0.042   6.112  16.886  0.9547  0.8167  1.4663
15772TIP3    H268732   0.116   6.067  16.762 -3.1064 -0.3718 -0.6691
15773TIP3   OH268733   4.075   3.408  11.087 -0.3574  0.5223 -0.0108
15773TIP3    H168734   4.166   3.437  11.082 -0.2095  0.2583  1.0679
15773TIP3    H268735   4.038   3.433  11.002  0.5819  1.0722 -0.2741
15774TIP3   OH268736   5.029   1.125   1.234  0.3986 -0.4275 -0.0839
15774TIP3    H168737   4.989   1.049   1.277  0.8199 -0.7966 -0.3403
15774TIP3    H268738   5.115   1.095   1.206  0.7252  0.2608  0.1551
15775TIP3   OH268739   2.397   1.507  14.678  0.3651 -0.2144 -0.5578
15775TIP3    H168740   2.415   1.600  14.669 -0.6833 -0.0983 -1.6106
15775TIP3    H268741   2.363   1.480  14.593 -2.6639 -0.7831  0.6984
15776TIP3   OH268742   2.942   4.010  13.410  0.0478 -0.5118 -0.2985
15776TIP3    H168743   2.940   4.067  13.487 -0.6347 -0.6901 -0.1784
15776TIP3    H268744   3.032   3.976  13.408  0.8808  1.5279 -1.0904
15777TIP3   OH268745   0.628   2.188  14.257 -0.4549 -0.3291  0.3445
15777TIP3    H168746   0.611   2.111  14.203 -0.7395  0.1738 -0.3003
15777TIP3    H268747   0.691   2.158  14.323  0.2179 -0.8633 -0.5163
15778TIP3   OH268748   1.318   2.501  14.700 -0.1413  0.0889 -0.0618
15778TIP3    H168749   1.282   2.589  14.685  0.8808  0.4287 -0.6140
15778TIP3    H268750   1.296   2.453  14.620  0.4532  0.2385 -0.3163
15779TIP3   OH268751   2.634   0.649   0.125  0.4832  0.1592 -0.3486
15779TIP3    H168752   2.718   0.628   0.164 -1.3336 -3.2616  2.2791
15779TIP3    H268753   2.600   0.721   0.179  0.3884 -0.7161  0.8001
15780TIP3   OH268754   0.774   5.098  13.566  0.8757 -0.0756  0.3477
15780TIP3    H168755   0.859   5.077  13.527  0.7424 -0.4094  0.2309
15780TIP3    H268756   0.735   5.012  13.584  0.1430  0.0620 -0.5225
15781TIP3   OH268757   4.470   4.166  12.305 -0.3492  0.3711  0.3295
15781TIP3    H168758   4.382   4.130  12.293 -0.6972  1.0434  0.8044
15781TIP3    H268759   4.475   4.239  12.243 -0.4632  0.9065  0.9364
15782TIP3   OH268760   2.380   4.290   1.803  0.2454  0.0426 -0.5250
15782TIP3    H168761   2.354   4.371   1.759  0.5682 -0.2199 -1.2059
15782TIP3    H268762   2.328   4.289   1.884 -1.6373 -0.2988 -1.6923
15783TIP3   OH268763   6.433   4.817  12.420 -0.1509  0.6076 -0.6662
15783TIP3    H168764   6.356   4.821  12.477  0.2744  2.1480 -0.1554
15783TIP3    H268765   6.448   4.908  12.394  0.4357  0.1002 -2.2182
15784TIP3   OH268766   3.721   0.746   4.396 -0.3586 -0.4439 -0.4786
15784TIP3    H168767   3.737   0.697   4.316 -0.2810 -1.6886  0.2701
15784TIP3    H268768   3.808   0.768   4.429 -0.3553 -0.8431 -0.2080
15785TIP3   OH268769   6.375   3.342  14.088  0.2487  0.1358 -0.5485
15785TIP3    H168770   6.397   3.249  14.097 -1.3560 -0.2321 -0.0094
15785TIP3    H268771   6.421   3.385  14.160 -0.1612 -0.4856  0.1003
15786TIP3   OH268772   2.302   4.871   5.004  0.4517  0.3934 -0.0731
15786TIP3    H168773   2.314   4.962   4.978  0.0220  0.0041 -1.7988
15786TIP3    H268774   2.221   4.870   5.054  1.0676  1.1141  0.9828
15787TIP3   OH268775   3.440   1.542   2.029 -0.0042 -0.8272  0.4975
15787TIP3    H168776   3.387   1.605   1.979  0.1448 -1.4070 -0.4187
15787TIP3    H268777   3.387   1.462   2.031  0.3940 -1.0935  0.4655
15788TIP3   OH268778   1.885   3.120  11.308 -0.8398  0.1707  0.1763
15788TIP3    H168779   1.877   3.049  11.371 -1.8332  1.9207  2.1572
15788TIP3    H268780   1.944   3.183  11.350 -0.7617  0.9592 -1.0706
15789TIP3   OH268781   3.524   5.488  15.321 -0.0532 -0.0702 -0.1623
15789TIP3    H168782   3.585   5.472  15.249 -0.1683 -1.3980  0.0031
15789TIP3    H268783   3.571   5.544  15.382  0.6288 -0.2641 -0.5088
15790TIP3   OH268784   6.530   0.197  14.702 -0.6751 -1.2454  0.4113
15790TIP3    H168785   6.577   0.246  14.636  0.8544  0.8267  2.8376
15790TIP3    H268786   6.438   0.223  14.691 -0.1382  0.8907  0.5093
15791TIP3   OH268787   0.101   3.756  12.769 -0.2563 -0.3564 -0.6449
15791TIP3    H168788   0.177   3.700  12.751 -0.6951 -0.6455 -1.7060
15791TIP3    H268789   0.106   3.774  12.863  1.1641 -0.2994 -0.7075
15792TIP3   OH268790   2.611   0.098   2.546 -0.1179  0.3584 -0.4230
15792TIP3    H168791   2.628   0.149   2.625  0.0483  1.8977 -1.4107
15792TIP3    H268792   2.693   0.051   2.529  0.0997  0.6253 -0.1097
15793TIP3   OH268793   3.271   6.116  13.608  0.2414  0.3825  0.4938
15793TIP3    H168794   3.291   6.035  13.654 -1.9661  0.3221  1.5133
15793TIP3    H268795   3.305   6.185  13.665 -0.3855  0.2266  1.0739
15794TIP3   OH268796   1.998   4.275  15.056 -0.7686  0.1126 -0.5782
15794TIP3    H168797   1.957   4.336  14.995 -0.9876  0.7522  0.1902
15794TIP3    H268798   2.066   4.326  15.099 -1.0820 -0.1190  0.2153
15795TIP3   OH268799   3.070   2.187  14.303 -0.3615  0.0154 -0.0991
15795TIP3    H168800   3.137   2.189  14.236  1.7526  0.9425  1.9143
15795TIP3    H268801   3.012   2.260  14.282 -1.0691 -1.0500 -2.0976
15796TIP3   OH268802   5.501   5.716  10.954 -0.1198 -0.2483  0.4568
15796TIP3    H168803   5.434   5.709  10.887  0.7323 -1.9400 -0.2655
15796TIP3    H268804   5.584   5.711  10.907  0.5039 -0.4511  1.5343
15797TIP3   OH268805   4.097   2.434   5.591 -0.2705  0.3401  0.1127
15797TIP3    H168806   4.155   2.505   5.619  1.0213  0.6133 -2.8574
15797TIP3    H268807   4.024   2.479   5.549  0.5451 -0.0014 -1.7672
15798TIP3   OH268808   6.048   3.604   0.749 -0.5967 -0.1447  0.0710
15798TIP3    H168809   5.969   3.654   0.772 -0.3922  1.0450 -1.5946
15798TIP3    H268810   6.045   3.527   0.805 -1.7436  0.9831  1.6762
15799TIP3   OH268811   3.701   0.963  12.946  0.6578 -0.3827  0.5718
15799TIP3    H168812   3.737   0.874  12.938  0.2347 -0.4789 -0.4943
15799TIP3    H268813   3.770   1.020  12.912  0.9142 -0.2946  1.2201
15800TIP3   OH268814   4.052   1.363  16.448 -0.7308 -0.4953  0.3273
15800TIP3    H168815   4.031   1.397  16.535 -2.4632  0.7384 -0.5208
15800TIP3    H268816   4.083   1.439  16.400 -1.0325 -0.9067 -0.5275
15801TIP3   OH268817   3.167   5.822  15.536  0.1199 -0.1384  0.1759
15801TIP3    H168818   3.219   5.851  15.461  1.0214 -1.3536  0.2998
15801TIP3    H268819   3.201   5.872  15.610 -1.1359  1.4613 -0.2764
15802TIP3   OH268820   0.807   0.301  13.333 -0.0385 -0.4675 -0.5575
15802TIP3    H168821   0.892   0.342  13.346  1.1044 -2.9785  0.6591
15802TIP3    H268822   0.748   0.349  13.391  1.1381 -0.2895  0.5426
15803TIP3   OH268823   6.412   3.213   6.517 -0.4688  0.0895 -0.1386
15803TIP3    H168824   6.445   3.127   6.544  0.1463  0.1600 -0.6527
15803TIP3    H268825   6.414   3.212   6.422  0.4212  1.0037 -0.1455
15804TIP3   OH268826   1.173   4.237  13.632 -0.0751  0.0337  0.4676
15804TIP3    H168827   1.267   4.224  13.628 -0.2065 -0.9131  0.0272
15804TIP3    H268828   1.153   4.295  13.558  0.0698 -0.4413  0.0475
15805TIP3   OH268829   1.555   4.641   0.740  0.1653 -0.2078  0.4054
15805TIP3    H168830   1.582   4.617   0.828  0.6830 -1.3496 -0.0556
15805TIP3    H268831   1.556   4.737   0.740  0.6064 -0.2047  1.4947
15806TIP3   OH268832   5.646   4.706  13.703  0.0376  0.3980 -0.4900
15806TIP3    H168833   5.725   4.684  13.752  0.9347  0.8458 -1.7102
15806TIP3    H268834   5.661   4.794  13.671 -0.7239  0.2776 -1.2050
15807TIP3   OH268835   6.168   1.130  13.715 -0.7034 -0.1491  0.3678
15807TIP3    H168836   6.121   1.203  13.675 -4.1033 -1.9125  0.7672
15807TIP3    H268837   6.247   1.122  13.663 -1.7215  1.8480 -1.6768
15808TIP3   OH268838   3.908   2.011  16.282 -0.2546  0.7334  0.1199
15808TIP3    H168839   3.831   2.068  16.285 -1.1852 -0.4947  0.0969
15808TIP3    H268840   3.888   1.946  16.215  1.4673  1.2780 -0.9886
15809TIP3   OH268841   1.847   4.234  16.814  0.1137 -0.1006 -0.3299
15809TIP3    H168842   1.813   4.145  16.822 -0.9440  0.2783 -0.3651
15809TIP3    H268843   1.768   4.289  16.816  0.8580  0.9822  1.7103
15810TIP3   OH268844   1.037   6.023   4.847 -0.2295  0.3185 -0.6975
15810TIP3    H168845   1.019   5.948   4.790 -1.3937 -1.6661  2.0498
15810TIP3    H268846   1.132   6.034   4.844 -0.1110 -0.8335 -1.6722
15811TIP3   OH268847   3.941   5.203  11.523  0.1056  0.2180 -0.6524
15811TIP3    H168848   4.019   5.191  11.469 -0.7028 -0.5738 -1.6579
15811TIP3    H268849   3.872   5.154  11.479 -1.5681  2.7232 -1.0448
15812TIP3   OH268850   2.597   3.478   0.477 -0.2003 -0.3462 -0.0017
15812TIP3    H168851   2.587   3.391   0.439  0.3097 -0.1211 -0.6692
15812TIP3    H268852   2.634   3.531   0.407 -0.4578  0.4003  0.4118
15813TIP3   OH268853   1.850   2.195  11.589  0.3562 -0.0612 -0.4290
15813TIP3    H168854   1.797   2.154  11.658  0.0069  0.2123 -0.5343
15813TIP3    H268855   1.941   2.181  11.618  0.2071  0.4719  0.3342
15814TIP3   OH268856   1.688   1.029  15.462  0.2397  0.8785 -0.2456
15814TIP3    H168857   1.672   1.013  15.369  0.6067  1.1601 -0.3622
15814TIP3    H268858   1.763   0.973  15.483  0.5809  1.3148 -0.2888
15815TIP3   OH268859   2.215   4.418  12.409  0.6303 -0.2297  0.1811
15815TIP3    H168860   2.255   4.480  12.348  0.0010  1.0541  1.0291
15815TIP3    H268861   2.121   4.431  12.396  0.4589  0.8414  2.1223
15816TIP3   OH268862   4.935   6.745   5.650  0.0637  0.0516  0.3656
15816TIP3    H168863   4.968   6.688   5.719  2.2395  1.2713  0.4180
15816TIP3    H268864   4.843   6.760   5.673 -0.2938 -2.5239  0.8984
15817TIP3   OH268865   0.014   3.528  12.430  0.4531  0.1137  0.4747
15817TIP3    H168866   0.097   3.500  12.468  1.5242  1.9778 -0.3673
15817TIP3    H268867  -0.036   3.562  12.504  1.3526  1.0273  0.6857
15818TIP3   OH268868   6.496   0.151  16.446  0.3543  0.2121  0.3586
15818TIP3    H168869   6.462   0.129  16.532  0.1579  2.0546  0.7873
15818TIP3    H268870   6.527   0.241  16.454 -1.5220  1.1910 -1.9963
15819TIP3   OH268871   3.435   0.930   6.100 -0.3388 -0.5208  0.2550
15819TIP3    H168872   3.516   0.889   6.132  1.0249  1.5133 -0.3979
15819TIP3    H268873   3.400   0.867   6.037  1.0887 -1.1664  0.0711
15820TIP3   OH268874   0.855   0.253  16.168 -0.6432  0.3019  0.1406
15820TIP3    H168875   0.921   0.265  16.100 -1.9379 -1.6616 -1.5814
15820TIP3    H268876   0.903   0.267  16.250  1.6849 -0.1837 -1.0477
15821TIP3   OH268877   6.121   1.244   5.857  0.6591 -0.6642  0.1362
15821TIP3    H168878   6.064   1.179   5.898  0.4510 -0.4780  0.1420
15821TIP3    H268879   6.204   1.198   5.844  0.5285 -0.9156  0.1861
15822TIP3   OH268880   1.102   6.120  11.246  0.3264  0.3338 -0.1972
15822TIP3    H168881   1.072   6.167  11.169 -0.2792  0.9273  0.3862
15822TIP3    H268882   1.102   6.185  11.316 -1.4719 -0.7036  0.8497
15823TIP3   OH268883   4.395   5.021  15.422 -0.5998 -0.2334 -0.1216
15823TIP3    H168884   4.468   5.004  15.481 -2.5693  0.6451  2.7383
15823TIP3    H268885   4.435   5.068  15.348  1.5837  1.4099  1.9325
15824TIP3   OH268886   1.372   1.468  15.527  0.2030  0.2605 -0.2846
15824TIP3    H168887   1.314   1.543  15.537  1.1294  0.9520  0.0077
15824TIP3    H268888   1.313   1.392  15.523 -0.7266  0.9737 -0.3682
15825TIP3   OH268889   2.689   6.138  13.674  0.1104  0.1933 -0.2912
15825TIP3    H168890   2.647   6.190  13.606  2.0675  0.3407 -1.4720
15825TIP3    H268891   2.695   6.197  13.749 -1.1171  0.3711 -0.3056
15826TIP3   OH268892   5.298   4.719   0.023 -0.2974 -0.0731 -0.1035
15826TIP3    H168893   5.254   4.642  -0.015 -0.3044 -1.4270  2.4256
15826TIP3    H268894   5.231   4.787   0.024 -1.4729 -1.1891  0.9182
15827TIP3   OH268895   0.645   2.455   0.623  0.3496  0.7052 -0.1274
15827TIP3    H168896   0.683   2.402   0.693 -1.9628  0.0701  0.7230
15827TIP3    H268897   0.571   2.404   0.591  1.9036  0.4295 -3.8838
15828TIP3   OH268898   3.797   2.583   0.566  0.0016 -0.2024  0.0403
15828TIP3    H168899   3.734   2.652   0.545 -0.5194 -0.2316  1.3917
15828TIP3    H268900   3.762   2.541   0.645  1.7904 -0.1039  0.9497
15829TIP3   OH268901   1.300   5.546   3.323  0.4516 -0.2122  0.1085
15829TIP3    H168902   1.317   5.606   3.396  0.6236 -0.1096 -0.0138
15829TIP3    H268903   1.241   5.595   3.266  0.0558 -0.4205  0.3436
15830TIP3   OH268904   6.323   5.394   0.774 -0.2145  0.7074 -0.7142
15830TIP3    H168905   6.243   5.343   0.756 -0.5594  1.4178 -1.2882
15830TIP3    H268906   6.317   5.416   0.867  2.3365 -4.3056  0.9924
15831TIP3   OH268907   6.114   4.528   2.060  0.2740  0.4035 -0.1620
15831TIP3    H168908   6.063   4.589   2.113 -0.1939 -1.2291  1.3617
15831TIP3    H268909   6.200   4.569   2.053 -0.1000  1.3558  0.5950
15832TIP3   OH268910   1.263   1.982   3.956 -0.0088  0.4949  0.2402
15832TIP3    H168911   1.354   1.980   3.926  0.4175 -1.8113  1.4234
15832TIP3    H268912   1.223   1.907   3.912 -1.5906  1.8757 -0.8030
15833TIP3   OH268913   2.125   1.764   3.763 -0.2560 -0.1264 -0.5249
15833TIP3    H168914   2.092   1.773   3.674 -1.1897  0.4404 -0.1342
15833TIP3    H268915   2.047   1.764   3.818  0.4060  2.3720  0.5332
15834TIP3   OH268916   5.811   4.730  11.460  0.0450 -0.1713 -0.0989
15834TIP3    H168917   5.807   4.731  11.555 -1.9091 -0.6904 -0.1264
15834TIP3    H268918   5.806   4.637  11.437  0.2136 -0.0348 -0.7055
15835TIP3   OH268919   2.779   1.329  12.747 -0.1499  0.3639 -0.1711
15835TIP3    H168920   2.767   1.423  12.759  0.1849  0.2469  1.2514
15835TIP3    H268921   2.800   1.319  12.654  0.6703  1.7714 -0.1564
15836TIP3   OH268922   1.961   2.843  15.587 -0.1868  0.6921  0.3113
15836TIP3    H168923   1.881   2.882  15.553  0.1963  0.8567 -0.4179
15836TIP3    H268924   2.031   2.901  15.558  0.3622 -0.3600 -0.5206
15837TIP3   OH268925   2.660   4.558  16.519  0.0594  0.0502  0.4546
15837TIP3    H168926   2.600   4.629  16.542 -2.6498 -1.7247 -0.6473
15837TIP3    H268927   2.686   4.576  16.428 -0.7041 -0.3860  0.1430
15838TIP3   OH268928   2.851   1.921   0.910 -0.3571  0.1616 -0.4509
15838TIP3    H168929   2.823   1.930   0.819 -1.5103  0.6733 -0.0633
15838TIP3    H268930   2.913   1.847   0.909 -0.7111 -0.1369 -1.5642
15839TIP3   OH268931   6.567   1.617   0.963  0.1376 -0.4054  0.0543
15839TIP3    H168932   6.606   1.577   0.886 -2.2857 -2.0261 -0.4470
15839TIP3    H268933   6.487   1.658   0.931 -0.6278 -0.6260  1.5928
15840TIP3   OH268934   1.423   3.912  12.207 -0.0160  0.3718 -0.0426
15840TIP3    H168935   1.351   3.967  12.239  0.0681  0.3524  0.1817
15840TIP3    H268936   1.501   3.964  12.223  0.1058 -0.0054  0.5912
15841TIP3   OH268937   1.022   2.218  12.123  0.4137 -0.1015  0.1535
15841TIP3    H168938   0.953   2.166  12.165  0.8241 -0.4938  0.3478
15841TIP3    H268939   1.008   2.204  12.029 -1.6032  2.1702  0.0167
15842TIP3   OH268940   6.549   3.148   5.687 -0.1172 -0.5357 -0.6479
15842TIP3    H168941   6.519   3.238   5.679 -0.8632 -0.6297  0.7751
15842TIP3    H268942   6.583   3.141   5.776  0.3811 -1.5356 -0.8927
15843TIP3   OH268943   2.601   6.594  12.632 -0.3032 -0.7010  0.2327
15843TIP3    H168944   2.624   6.686  12.643 -1.7043 -0.4107  0.8732
15843TIP3    H268945   2.662   6.547  12.690  1.3814 -0.3432 -1.1636
15844TIP3   OH268946   1.332   5.532  16.717  0.0989 -0.8904  0.1951
15844TIP3    H168947   1.378   5.614  16.698  2.0115 -1.8231  0.5286
15844TIP3    H268948   1.250   5.538  16.668  0.0541  1.3175  0.4272
15845TIP3   OH268949   4.954   2.165   2.903  0.2429  0.5426 -0.2772
15845TIP3    H168950   5.018   2.148   2.834 -2.1870 -1.7739 -2.1759
15845TIP3    H268951   4.900   2.236   2.869  0.3950  0.9460  0.3004
15846TIP3   OH268952   1.261   3.384  16.679  0.1251  0.4234  0.2631
15846TIP3    H168953   1.296   3.316  16.621  0.2077  0.4644  0.2648
15846TIP3    H268954   1.304   3.464  16.651  1.4083  0.1727  1.4519
15847TIP3   OH268955   6.323   4.611  15.991 -0.3773 -0.8411  0.4576
15847TIP3    H168956   6.347   4.695  16.029 -0.2764 -0.9725  0.6895
15847TIP3    H268957   6.402   4.557  15.999  0.2415 -0.3307 -1.5543
15848TIP3   OH268958   6.393   1.678   1.211  0.3644  0.2382  0.0740
15848TIP3    H168959   6.455   1.608   1.235  1.6216  2.0137  2.4119
15848TIP3    H268960   6.421   1.705   1.123  3.0630  1.0118  1.0574
15849TIP3   OH268961   6.024   6.292   3.624 -0.5228  0.3103 -0.1821
15849TIP3    H168962   5.929   6.291   3.641 -0.3309  1.2380  1.0765
15849TIP3    H268963   6.060   6.230   3.688 -0.3085 -0.5083 -1.0600
15850TIP3   OH268964   0.835   4.651  16.190  0.1707 -0.4777  0.1838
15850TIP3    H168965   0.756   4.663  16.243  0.0845 -0.4658  0.0519
15850TIP3    H268966   0.832   4.723  16.126  0.0925 -0.6985 -0.0637
15851TIP3   OH268967   4.285   6.788  10.783  0.5739  0.1158 -0.0452
15851TIP3    H168968   4.247   6.766  10.698 -0.4217 -1.7118  0.8150
15851TIP3    H268969   4.373   6.751  10.780  0.6437  0.2978 -0.3563
15852TIP3   OH268970   2.853   4.584   5.453  0.1326 -0.2779  1.0825
15852TIP3    H168971   2.877   4.598   5.361  2.2363 -0.2274  1.5871
15852TIP3    H268972   2.789   4.513   5.450  1.1741 -1.2211 -0.3455
15853TIP3   OH268973   2.122   5.929   1.403 -0.3658  0.1679 -0.5225
15853TIP3    H168974   2.027   5.919   1.410 -0.1247 -1.6406  0.9784
15853TIP3    H268975   2.151   5.941   1.494  0.8073  1.1745 -1.0092
15854TIP3   OH268976   5.951   5.583  16.430  0.5096  0.8333  0.1341
15854TIP3    H168977   5.903   5.661  16.459  0.0978  1.7135 -2.5880
15854TIP3    H268978   6.043   5.609  16.433  0.4164  1.2033 -0.0903
15855TIP3   OH268979   1.529   3.329  15.908  0.1072 -0.4762 -0.2834
15855TIP3    H168980   1.617   3.352  15.940  0.0066 -1.3298  0.6601
15855TIP3    H268981   1.523   3.235  15.919 -0.8717 -0.4501 -0.5024
15856TIP3   OH268982   4.393   1.547   3.133 -0.2936  0.2663 -0.2068
15856TIP3    H168983   4.298   1.558   3.135 -0.3910 -0.5586  0.4651
15856TIP3    H268984   4.428   1.634   3.152 -0.8926  0.7634 -1.3205
15857TIP3   OH268985   6.787   2.163  14.118  0.3386  0.1240 -0.6910
15857TIP3    H168986   6.784   2.203  14.205 -2.5627 -2.6850  0.7501
15857TIP3    H268987   6.758   2.232  14.058  2.5613  2.1846  0.4341
15858TIP3   OH268988   5.699   1.939   0.957  0.3028 -0.5195 -0.0355
15858TIP3    H168989   5.727   1.995   0.885 -2.7254  2.7855  1.0466
15858TIP3    H268990   5.641   1.874   0.916 -1.1703  1.1531 -0.7027
15859TIP3   OH268991   0.523   1.056  11.259 -0.0480  0.3207 -0.3604
15859TIP3    H168992   0.605   1.012  11.240  0.6240  1.4904 -0.2287
15859TIP3    H268993   0.542   1.150  11.248 -1.0054  0.6995  0.9105
15860TIP3   OH268994   4.620   5.184  11.778 -0.0184 -0.0502 -0.0408
15860TIP3    H168995   4.599   5.159  11.868 -1.5262  1.2473  0.0088
15860TIP3    H268996   4.582   5.115  11.724  2.7206 -2.0137  0.2845
15861TIP3   OH268997   5.470   0.992  16.206 -0.1898 -0.0731  0.1961
15861TIP3    H168998   5.516   1.038  16.136 -0.8837 -1.1988 -1.0388
15861TIP3    H268999   5.520   0.911  16.218 -0.6177 -0.3218  0.3325
15862TIP3   OH269000   4.839   2.690   1.028  0.0594 -0.1298  0.5737
15862TIP3    H169001   4.904   2.646   1.083  0.6389 -2.1537 -1.5832
15862TIP3    H269002   4.881   2.696   0.942 -2.1590 -0.4212 -0.5899
15863TIP3   OH269003   2.822   5.883  14.725  0.5101  0.4739 -0.3050
15863TIP3    H169004   2.763   5.847  14.792  1.9365  0.0642  0.7765
15863TIP3    H269005   2.763   5.912  14.655 -0.9255 -0.6290  0.3799
15864TIP3   OH269006   0.781   6.771   4.819  0.1468  0.7229  0.5836
15864TIP3    H169007   0.772   6.811   4.732 -3.2928  0.4932  0.6956
15864TIP3    H269008   0.782   6.846   4.879 -0.8429  0.8248  0.4918
15865TIP3   OH269009   6.181   3.372  15.471 -0.2376  0.0181 -0.3272
15865TIP3    H169010   6.106   3.406  15.520  0.1139  1.2127 -0.5910
15865TIP3    H269011   6.154   3.284  15.444 -2.2853  1.0303 -1.9235
15866TIP3   OH269012   2.018   4.678  11.094  0.3126  0.0066 -0.1849
15866TIP3    H169013   1.927   4.708  11.084  0.1019 -0.0390  1.3170
15866TIP3    H269014   2.011   4.584  11.107  0.6246 -0.0850 -0.6889
15867TIP3   OH269015   3.041   3.989  12.677 -0.3412 -0.0536 -0.3371
15867TIP3    H169016   2.952   3.971  12.708 -0.4281  0.7166 -0.1122
15867TIP3    H269017   3.042   3.958  12.587 -0.8970  0.0849 -0.3962
15868TIP3   OH269018   3.448   0.506   2.001 -0.4996  0.4867 -0.1077
15868TIP3    H169019   3.404   0.589   2.017 -2.0713 -0.4501  0.6183
15868TIP3    H269020   3.424   0.451   2.076 -0.2316 -0.9217 -1.0208
15869TIP3   OH269021   0.667   1.568   1.237  0.2900  0.0678  0.3913
15869TIP3    H169022   0.707   1.618   1.308  0.3425 -1.9953  1.9080
15869TIP3    H269023   0.595   1.520   1.278  1.3899 -2.5485 -0.4684
15870TIP3   OH269024   3.402   2.243  16.956 -0.2980 -0.0687 -0.4178
15870TIP3    H169025   3.314   2.205  16.958 -0.1370 -0.5210 -1.3467
15870TIP3    H269026   3.401   2.302  16.881  0.4790 -0.8328 -1.0467
15871TIP3   OH269027   5.723   6.660   1.715  0.5427 -0.5318 -0.7123
15871TIP3    H169028   5.761   6.747   1.714  0.6505 -0.4417  2.0413
15871TIP3    H269029   5.789   6.604   1.674  0.5638  0.5946 -2.3076
15872TIP3   OH269030   4.290   4.258   1.727 -0.0276  0.1527  0.2347
15872TIP3    H169031   4.196   4.274   1.723  0.0262  0.4149 -0.0231
15872TIP3    H269032   4.325   4.302   1.650  0.1559 -1.0156 -0.3755
15873TIP3   OH269033   0.369   3.443  15.703 -0.0633 -0.4316  0.2859
15873TIP3    H169034   0.335   3.354  15.691  0.2762 -0.4978 -0.2040
15873TIP3    H269035   0.406   3.467  15.618 -1.4103  0.7299 -0.0165
15874TIP3   OH269036   4.038   1.855  15.247 -0.6161 -0.4668 -0.1489
15874TIP3    H169037   3.967   1.880  15.307  0.7067  0.3434  1.1573
15874TIP3    H269038   4.003   1.873  15.160 -1.4014  1.6888  0.5248
15875TIP3   OH269039   1.794   3.606  11.596 -0.1349  0.3488 -0.4100
15875TIP3    H169040   1.711   3.610  11.549 -1.5788 -1.2569  1.7667
15875TIP3    H269041   1.831   3.520  11.573  0.2234  0.4652 -0.2836
15876TIP3   OH269042   0.990   6.379  16.565  0.3904 -0.1181 -0.6564
15876TIP3    H169043   0.914   6.378  16.624  1.2180  0.2790  0.4433
15876TIP3    H269044   1.040   6.456  16.592  1.4684 -0.6860 -0.9914
15877TIP3   OH269045   1.151   2.566   3.228  0.5128 -0.7110 -0.4585
15877TIP3    H169046   1.192   2.640   3.182 -1.7157 -1.0344 -3.2427
15877TIP3    H269047   1.206   2.491   3.206  1.0602 -0.4005 -0.1732
15878TIP3   OH269048   5.678   0.402  15.216  0.2394  0.1357  0.8387
15878TIP3    H169049   5.618   0.433  15.283 -0.1756 -3.2543  2.2606
15878TIP3    H269050   5.622   0.374  15.143  0.5672  2.0124 -0.2021
15879TIP3   OH269051   6.255   0.664  15.647  0.0109  0.1625 -0.0383
15879TIP3    H169052   6.318   0.595  15.626 -1.7592 -1.6240  0.1287
15879TIP3    H269053   6.198   0.668  15.571 -0.3316  0.9602  0.2558
15880TIP3   OH269054   4.034   2.973   3.809 -0.4114  0.7788  0.0532
15880TIP3    H169055   4.027   2.934   3.896 -0.8184 -1.3625 -0.8605
15880TIP3    H269056   3.945   2.999   3.786 -0.5330  0.1821 -0.1863
15881TIP3   OH269057   4.072   5.449  11.348  0.0312 -0.4639  0.1470
15881TIP3    H169058   3.979   5.437  11.329  0.5391 -2.5976 -1.3254
15881TIP3    H269059   4.095   5.530  11.303 -1.1885  0.3230  0.8905
15882TIP3   OH269060   4.340   5.828  14.492  0.1455 -0.2580 -0.2597
15882TIP3    H169061   4.409   5.881  14.452  1.5783 -0.4346  1.7678
15882TIP3    H269062   4.267   5.888  14.505  1.1153  0.8187  0.4339
15883TIP3   OH269063   3.375   1.299   5.318  0.2185 -0.3689  0.7393
15883TIP3    H169064   3.283   1.287   5.339  0.4296 -1.1882  1.2707
15883TIP3    H269065   3.411   1.348   5.391  0.4358 -1.0690  1.1166
15884TIP3   OH269066   3.501   2.001  10.736 -0.0001 -0.3559  0.2389
15884TIP3    H169067   3.553   1.929  10.699 -0.6988 -0.2239 -1.0532
15884TIP3    H269068   3.524   2.001  10.829  1.6041 -0.8914 -0.1158
15885TIP3   OH269069   0.625   1.659  10.718  0.0254  0.1381  0.0917
15885TIP3    H169070   0.685   1.603  10.668 -1.6757 -2.9440  1.1977
15885TIP3    H269071   0.680   1.728  10.754  2.7668 -2.0366  0.3686
15886TIP3   OH269072   0.080   5.609   6.298 -0.2715 -0.5368 -0.2233
15886TIP3    H169073   0.125   5.683   6.338  1.4920 -1.3187 -0.6646
15886TIP3    H269074   0.030   5.569   6.371 -2.4293  1.8198 -0.2650
15887TIP3   OH269075   1.618   2.956   3.844  0.0988  0.0901 -0.0948
15887TIP3    H169076   1.571   2.872   3.841  0.0202  0.1539 -1.2381
15887TIP3    H269077   1.564   3.011   3.901 -1.2207  0.1406 -1.3232
15888TIP3   OH269078   6.061   6.346  10.792  0.1119 -0.2174  0.5348
15888TIP3    H169079   6.119   6.421  10.779  0.4179 -0.6491 -0.7807
15888TIP3    H269080   5.982   6.368  10.741  0.7491 -1.3357 -1.0253
15889TIP3   OH269081   4.137   2.854  13.270 -0.1821  0.3284 -0.8077
15889TIP3    H169082   4.095   2.860  13.356 -1.1945  0.1557 -1.2792
15889TIP3    H269083   4.231   2.846  13.290 -0.4685 -0.5674  0.2993
15890TIP3   OH269084   0.152   4.174  12.753  0.2649 -0.0463 -0.0999
15890TIP3    H169085   0.238   4.216  12.763 -0.7970  1.9256  1.5602
15890TIP3    H269086   0.169   4.081  12.761  2.0784  0.3839  2.0197
15891TIP3   OH269087   6.635   4.885   6.813 -0.0044  0.6828 -0.1205
15891TIP3    H169088   6.621   4.799   6.775 -1.2697  0.5317  0.6189
15891TIP3    H269089   6.682   4.868   6.895  0.9301  0.8313 -0.6106
15892TIP3   OH269090   2.010   2.322  14.865 -0.0271  0.3085 -0.0683
15892TIP3    H169091   1.920   2.350  14.847 -0.4098 -1.4722 -1.1233
15892TIP3    H269092   2.064   2.379  14.810 -0.1068  3.7250  3.0197
15893TIP3   OH269093   1.159   0.752  11.560  0.1571 -0.0777  0.4253
15893TIP3    H169094   1.109   0.773  11.481  1.3295  1.6497  0.0839
15893TIP3    H269095   1.171   0.836  11.604 -1.1035 -1.0825  2.8906
15894TIP3   OH269096   4.781   5.708   4.688  0.2650 -0.3689 -0.4338
15894TIP3    H169097   4.818   5.669   4.767  0.2220 -0.6159 -0.5347
15894TIP3    H269098   4.802   5.801   4.695  0.9132 -0.5084 -0.4988
15895TIP3   OH269099   0.477   6.085   3.634  0.4378 -0.4096  0.3563
15895TIP3    H169100   0.395   6.126   3.608  1.0014  0.3610 -0.2762
15895TIP3    H269101   0.498   6.124   3.718  1.7400  1.8638 -0.9118
15896TIP3   OH269102   4.691   0.559  14.012  0.3170  0.1210  0.1260
15896TIP3    H169103   4.774   0.544  14.058 -0.4440 -0.1648  1.4555
15896TIP3    H269104   4.627   0.509  14.062 -0.4916 -0.5819 -1.5365
15897TIP3   OH269105   1.976   3.429   0.865 -0.2955 -0.7638 -0.1469
15897TIP3    H169106   2.044   3.361   0.867  1.1728  0.6075 -0.7932
15897TIP3    H269107   2.018   3.505   0.905 -1.8059 -0.1530  0.3276
15898TIP3   OH269108   2.052   0.886  11.054 -0.0861 -0.3301  0.2475
15898TIP3    H169109   2.125   0.840  11.097  0.7705 -1.0253 -1.8231
15898TIP3    H269110   2.043   0.842  10.969 -0.5782  2.0275 -0.9884
15899TIP3   OH269111   0.573   2.420  12.317 -0.0035  0.3809  0.8697
15899TIP3    H169112   0.569   2.358  12.390 -3.4132 -1.7398 -0.7988
15899TIP3    H269113   0.508   2.487  12.338  0.4947  0.9275  0.6932
15900TIP3   OH269114   5.030   3.958   5.141  0.4187 -0.1623 -0.1414
15900TIP3    H169115   4.936   3.951   5.124  0.4364  1.6210 -1.1394
15900TIP3    H269116   5.071   3.911   5.069  0.3181 -1.4407  0.6008
15901TIP3   OH269117   5.858   0.361  14.480 -0.8414  0.2745 -0.5680
15901TIP3    H169118   5.824   0.359  14.390 -0.7432 -1.1622 -0.5932
15901TIP3    H269119   5.840   0.273  14.514  3.0669 -0.7415 -0.6997
15902TIP3   OH269120   4.754   3.083   4.750  0.2675  0.0265 -0.6431
15902TIP3    H169121   4.802   3.166   4.741  3.2223 -1.4705  0.0882
15902TIP3    H269122   4.748   3.049   4.661  1.9338 -0.4159 -0.6189
15903TIP3   OH269123   4.908   2.077  11.813 -0.3939  0.2964 -0.0405
15903TIP3    H169124   4.920   1.989  11.848 -0.1746  0.6066  0.6767
15903TIP3    H269125   4.829   2.109  11.856 -0.4546  0.4640 -0.2756
15904TIP3   OH269126   5.748   0.234   4.694 -0.3250 -0.1918 -0.6897
15904TIP3    H169127   5.745   0.289   4.772 -1.3245  2.0728 -2.2102
15904TIP3    H269128   5.718   0.148   4.724  0.0935  0.3876  1.5540
15905TIP3   OH269129   3.636   4.109   5.220  0.1512 -0.6319 -0.1405
15905TIP3    H169130   3.699   4.040   5.245 -0.0033 -0.7318 -0.0267
15905TIP3    H269131   3.573   4.111   5.291  0.3810 -0.0889  0.0514
15906TIP3   OH269132   1.103   2.966  12.854  0.0649  0.3974 -0.1216
15906TIP3    H169133   1.129   3.018  12.930 -1.9618  0.7920  0.3651
15906TIP3    H269134   1.175   2.977  12.792  2.1872 -0.5758  1.9749
15907TIP3   OH269135   1.426   2.611  11.885 -0.4237  0.0701  0.1063
15907TIP3    H169136   1.375   2.552  11.831 -1.3496  1.1455 -0.2444
15907TIP3    H269137   1.464   2.555  11.953 -2.0889 -0.7779  0.3883
15908TIP3   OH269138   4.772   1.078   2.764  0.0160  0.4143  0.1170
15908TIP3    H169139   4.775   1.004   2.703  1.2695  0.2545  0.3617
15908TIP3    H269140   4.747   1.153   2.709  0.8920  0.2266 -0.5494
15909TIP3   OH269141   5.378   2.247  16.849 -0.0884  0.2558 -0.2910
15909TIP3    H169142   5.399   2.199  16.929  3.9511  0.5612 -0.9679
15909TIP3    H269143   5.357   2.336  16.879 -0.2721 -0.0575  0.5313
15910TIP3   OH269144   6.372   0.502  13.211  0.0131  0.0095  0.5177
15910TIP3    H169145   6.364   0.573  13.147  0.2413 -0.3824  0.0496
15910TIP3    H269146   6.327   0.428  13.172  0.4722 -0.3442  0.6445
15911TIP3   OH269147   0.027   2.980  11.734 -0.0498 -0.3745  0.1886
15911TIP3    H169148  -0.049   2.925  11.713 -0.2968 -0.1253  0.4153
15911TIP3    H269149   0.086   2.969  11.660 -0.0438 -1.0375  0.2847
15912TIP3   OH269150   3.563   2.153   2.083 -0.3212 -0.1305  0.1852
15912TIP3    H169151   3.639   2.201   2.053 -0.7720  0.0219 -0.7263
15912TIP3    H269152   3.577   2.143   2.177  0.7707 -0.0236  0.0421
15913TIP3   OH269153   3.241   1.066   0.704 -0.7749 -0.2265 -0.2228
15913TIP3    H169154   3.243   0.971   0.708 -0.3051 -0.3341 -1.9821
15913TIP3    H269155   3.148   1.088   0.694 -1.2069 -0.2793  2.8787
15914TIP3   OH269156   0.092   3.470  12.777  0.0017  0.5920 -0.0029
15914TIP3    H169157  -0.000   3.480  12.753  0.1021 -1.1946 -1.3436
15914TIP3    H269158   0.089   3.430  12.864 -0.4294  2.1301  0.7271
15915TIP3   OH269159   6.007   6.745  11.527 -0.0273 -0.2809  0.1407
15915TIP3    H169160   5.930   6.749  11.584  0.3564 -0.3141  0.6559
15915TIP3    H269161   6.082   6.753  11.585  0.4200 -1.7386 -0.1971
15916TIP3   OH269162   3.964   2.160  14.763 -0.7105  0.0164 -0.2320
15916TIP3    H169163   3.923   2.243  14.789  3.3077  1.7188  1.5560
15916TIP3    H269164   3.941   2.150  14.671 -1.8227  2.8440 -0.3823
15917TIP3   OH269165   2.643   6.375   0.790 -0.1277  0.5335 -0.1978
15917TIP3    H169166   2.655   6.336   0.704 -1.6333 -0.5769  0.0401
15917TIP3    H269167   2.579   6.318   0.833 -0.0610  1.5512  1.3358
15918TIP3   OH269168   3.117   6.310  12.231  0.6668 -0.1866 -0.5504
15918TIP3    H169169   3.021   6.308  12.238  0.6472  1.4829  0.1959
15918TIP3    H269170   3.135   6.307  12.137 -0.0353 -1.8604 -0.6708
15919TIP3   OH269171   4.182   1.728   2.941  0.2240 -0.7651  0.3637
15919TIP3    H169172   4.115   1.728   2.872 -0.4009  1.9442  0.8775
15919TIP3    H269173   4.237   1.804   2.922 -0.2131  0.3267  3.0417
15920TIP3   OH269174   2.265   1.648   4.418  0.0240 -0.3950  0.2004
15920TIP3    H169175   2.247   1.561   4.455 -1.9248 -0.4018 -0.6046
15920TIP3    H269176   2.254   1.708   4.491 -3.1660 -0.4687 -0.0566
15921TIP3   OH269177   3.272   5.891  14.948  0.2018  0.2711 -0.2771
15921TIP3    H169178   3.336   5.821  14.950 -0.2600 -0.1875  2.1841
15921TIP3    H269179   3.319   5.968  14.981  0.1529  0.6091 -0.9703
15922TIP3   OH269180   5.871   4.562  12.870 -0.1064 -0.6936 -0.1275
15922TIP3    H169181   5.954   4.550  12.916 -1.1074 -0.1597  1.9184
15922TIP3    H269182   5.896   4.576  12.779  1.9932 -1.2740  0.3131
15923TIP3   OH269183   5.651   0.023  15.824 -0.2458  0.1437 -0.9641
15923TIP3    H169184   5.652  -0.070  15.845 -0.3255  0.0361 -1.4310
15923TIP3    H269185   5.731   0.037  15.774 -1.3436 -0.1491 -2.8925
15924TIP3   OH269186   4.097   2.420  14.474 -0.2169 -0.2819  0.1517
15924TIP3    H169187   4.016   2.399  14.426 -0.0717  1.5239 -0.9749
15924TIP3    H269188   4.165   2.373  14.426 -0.1180  1.2667 -1.3317
15925TIP3   OH269189   5.281   0.588   3.908 -0.4342 -0.4535  0.2656
15925TIP3    H169190   5.209   0.587   3.971 -1.7448 -2.1727 -1.1474
15925TIP3    H269191   5.324   0.503   3.918 -0.0410 -0.3544 -0.4677
15926TIP3   OH269192   4.359   1.482   4.048 -0.0778  0.2386 -0.0662
15926TIP3    H169193   4.362   1.578   4.054  4.8279  0.2531  0.7268
15926TIP3    H269194   4.399   1.451   4.129  0.5792 -2.3808 -1.2902
15927TIP3   OH269195   1.706   2.168  14.280  0.0738 -0.0108  0.1205
15927TIP3    H169196   1.685   2.075  14.289  0.6708 -0.1702 -0.0955
15927TIP3    H269197   1.642   2.212  14.336 -1.5467 -0.3946 -1.3302
15928TIP3   OH269198   0.531   5.362  13.358  0.1898  0.3844  0.3728
15928TIP3    H169199   0.468   5.419  13.313 -0.2485  1.1266  1.8537
15928TIP3    H269200   0.477   5.312  13.420  0.9374  0.3776  1.0281
15929TIP3   OH269201   2.738   6.186  11.285 -0.6057 -0.2465  0.2075
15929TIP3    H169202   2.770   6.165  11.197  0.3065 -0.0512  0.4742
15929TIP3    H269203   2.814   6.170  11.342 -0.9395  0.4054  0.8501
15930TIP3   OH269204   2.613   5.212   5.256  0.0420  0.0346 -0.2230
15930TIP3    H169205   2.614   5.176   5.167 -1.0176 -2.1366  0.5866
15930TIP3    H269206   2.551   5.285   5.251  2.7636  2.4046 -2.0636
15931TIP3   OH269207   0.995   3.150   1.698  0.1600  0.0984  0.5011
15931TIP3    H169208   1.030   3.076   1.648  0.9556 -0.0752  1.2848
15931TIP3    H269209   0.943   3.109   1.768 -0.1713  0.3057  0.3752
15932TIP3   OH269210   0.563   3.485   1.866 -0.4200  0.5704 -0.0834
15932TIP3    H169211   0.653   3.456   1.878  0.1230  1.8137 -0.9499
15932TIP3    H269212   0.530   3.433   1.793  0.2001  1.3244 -0.9296
15933TIP3   OH269213   3.951   4.241  10.786 -0.6972  0.4931  0.2187
15933TIP3    H169214   3.901   4.174  10.740  0.2639 -0.6805  0.8237
15933TIP3    H269215   4.039   4.234  10.749 -0.3756  0.8151  0.9022
15934TIP3   OH269216   2.746   5.324   0.516 -0.1540 -0.4477  0.4349
15934TIP3    H169217   2.661   5.294   0.547 -1.8115  3.0802 -0.1531
15934TIP3    H269218   2.735   5.335   0.422  0.7966  0.4121  0.4009
15935TIP3   OH269219   0.145   0.091  14.579  0.3701  0.6532 -0.1314
15935TIP3    H169220   0.118   0.093  14.670 -0.4193  2.3664 -0.3674
15935TIP3    H269221   0.241   0.082  14.582  0.6965  3.5526  0.9912
15936TIP3   OH269222   3.592   5.603  13.284 -0.0233  0.1077 -0.0919
15936TIP3    H169223   3.600   5.666  13.213  1.2838 -0.9525 -0.9489
15936TIP3    H269224   3.634   5.523  13.250 -0.7521 -0.9138  1.2994
15937TIP3   OH269225   0.218   3.422  13.009 -0.0704  0.1329 -0.4734
15937TIP3    H169226   0.272   3.480  12.956 -1.5565  2.7841  0.7011
15937TIP3    H269227   0.171   3.481  13.068 -0.8042 -2.4047  1.6656
15938TIP3   OH269228   4.456   5.326  13.323 -1.2173  1.0216 -0.0086
15938TIP3    H169229   4.540   5.356  13.357 -0.7111  1.0366 -1.2358
15938TIP3    H269230   4.448   5.369  13.238 -2.7570  1.4987  0.3467
15939TIP3   OH269231   4.773   5.550   2.007  0.2439  0.1944 -0.6819
15939TIP3    H169232   4.747   5.551   1.915 -1.5088 -3.3582 -0.3973
15939TIP3    H269233   4.691   5.560   2.055  0.9479  0.5857  0.4870
15940TIP3   OH269234   0.605   4.424  10.647 -0.5575  0.0762  0.3626
15940TIP3    H169235   0.619   4.374  10.728 -1.8225 -1.3174 -0.2326
15940TIP3    H269236   0.661   4.381  10.582  0.6812  1.3732  0.5098
15941TIP3   OH269237   2.159   0.561   4.593 -0.0737  0.2594  0.4016
15941TIP3    H169238   2.121   0.647   4.573 -0.9794 -0.1201  0.4139
15941TIP3    H269239   2.132   0.543   4.683  1.0859  0.4529  0.8013
15942TIP3   OH269240   0.246   5.346   2.360  0.0507  0.6895 -0.3080
15942TIP3    H169241   0.216   5.259   2.385 -0.5431  1.5620  2.4343
15942TIP3    H269242   0.200   5.365   2.278 -1.9888 -0.5251  0.4794
15943TIP3   OH269243   6.529   5.852   4.588  0.4874 -0.6227  0.4340
15943TIP3    H169244   6.609   5.817   4.629  0.5695 -1.1148 -0.1307
15943TIP3    H269245   6.506   5.787   4.522  0.4651  0.2399 -0.4313
15944TIP3   OH269246   1.966   6.461   0.877 -0.0451 -0.1087 -0.3045
15944TIP3    H169247   1.887   6.495   0.919 -0.4899 -1.0884 -0.3338
15944TIP3    H269248   1.967   6.504   0.791 -0.2549  0.3102 -0.1004
15945TIP3   OH269249   0.108   5.950  16.620  0.2622  0.1846 -0.0228
15945TIP3    H169250   0.112   6.008  16.544 -0.9930  1.0049  0.5031
15945TIP3    H269251   0.146   5.868  16.589 -0.8227  0.2756 -1.7453
15946TIP3   OH269252   3.379   1.489  16.460  0.9305  0.3976  0.1162
15946TIP3    H169253   3.460   1.450  16.492  2.0824  1.1575 -1.6653
15946TIP3    H269254   3.396   1.584  16.460  0.0986  0.5587 -0.3775
15947TIP3   OH269255   5.587   5.756  14.459 -0.7348  0.2506  0.2817
15947TIP3    H169256   5.615   5.777  14.370  1.4711  1.4177  1.1778
15947TIP3    H269257   5.524   5.824  14.481  2.8520  3.5529  1.4722
15948TIP3   OH269258   6.097   5.910   3.682  0.1514  0.0681 -0.3913
15948TIP3    H169259   6.089   5.828   3.732  1.3470  0.4857  0.5581
15948TIP3    H269260   6.009   5.947   3.682 -0.3311 -1.0402 -0.5228
15949TIP3   OH269261   3.198   5.310   0.775 -0.2505 -0.0823 -0.1101
15949TIP3    H169262   3.277   5.340   0.818  0.1145  0.1963 -0.9534
15949TIP3    H269263   3.145   5.273   0.845  0.0295  0.9706  0.6889
15950TIP3   OH269264   2.686   5.860   0.163  0.1947  0.0899  0.4326
15950TIP3    H169265   2.644   5.783   0.200 -1.2977  2.0326  3.1782
15950TIP3    H269266   2.618   5.903   0.111  1.4254 -1.0559 -2.3023
15951TIP3   OH269267   3.661   0.954   1.602  0.2537 -0.5055  0.7569
15951TIP3    H169268   3.662   0.970   1.508 -1.0459 -1.2667  0.5867
15951TIP3    H269269   3.752   0.964   1.629  0.5393  0.4773 -0.4355
15952TIP3   OH269270   4.059   0.922   0.987  0.3952  0.2470  0.7836
15952TIP3    H169271   4.105   0.899   0.906 -0.7647 -0.0374  0.1873
15952TIP3    H269272   4.129   0.935   1.051  1.3154  0.0958 -0.1615
15953TIP3   OH269273   2.086   6.322   5.683 -0.3688  0.7133  0.2072
15953TIP3    H169274   2.163   6.379   5.681 -0.3464  0.6797  0.0560
15953TIP3    H269275   2.114   6.243   5.636 -0.8099  1.1086 -0.7497
15954TIP3   OH269276   0.021   1.494   1.256 -0.8218 -0.6804 -0.2047
15954TIP3    H169277   0.025   1.564   1.321 -0.2489 -0.0002 -0.9548
15954TIP3    H269278  -0.073   1.482   1.240 -0.9319 -0.2005  0.0430
15955TIP3   OH269279   2.368   2.586  13.250  0.5400  0.0048 -0.0228
15955TIP3    H169280   2.328   2.637  13.180  0.0822 -0.4393 -0.0898
15955TIP3    H269281   2.333   2.625  13.331 -1.0480 -1.1588 -0.0963
15956TIP3   OH269282   5.914   6.236  10.519 -0.0042  0.4006  0.0948
15956TIP3    H169283   5.900   6.323  10.556  1.9747  0.6629  0.3709
15956TIP3    H269284   5.841   6.222  10.459 -1.5331  1.3164  1.6749
15957TIP3   OH269285   6.714   3.637  14.137 -0.1301 -0.4073 -0.4029
15957TIP3    H169286   6.779   3.651  14.067  1.1151 -0.3876  0.7188
15957TIP3    H269287   6.704   3.723  14.177  2.0330 -1.0787  1.8168
15958TIP3   OH269288   1.767   2.439  13.146  0.2668  0.4846 -0.1164
15958TIP3    H169289   1.799   2.349  13.141  1.2519  0.8945 -1.6219
15958TIP3    H269290   1.706   2.447  13.073 -0.2032  0.9029  0.3150
15959TIP3   OH269291   5.469   2.073  14.477  0.2886 -0.0811 -0.2090
15959TIP3    H169292   5.473   2.011  14.550  1.5378  0.0340 -0.1548
15959TIP3    H269293   5.505   2.024  14.403  0.5292  0.3158 -0.3545
15960TIP3   OH269294   3.913   1.443  11.781  0.3686  0.3094 -0.0831
15960TIP3    H169295   3.952   1.520  11.822 -2.0877  0.7173  1.7113
15960TIP3    H269296   3.973   1.372  11.802  0.8520  1.1231  1.4118
15961TIP3   OH269297   0.614   5.115  11.130  0.3050 -0.2186  0.0368
15961TIP3    H169298   0.609   5.112  11.225 -1.8014 -0.6464 -0.0422
15961TIP3    H269299   0.535   5.162  11.103  0.9889  0.1323 -1.5024
15962TIP3   OH269300   0.325   2.961  13.606  0.4951  0.1840 -0.2551
15962TIP3    H169301   0.260   3.030  13.614 -0.9137 -1.2331  1.7547
15962TIP3    H269302   0.351   2.962  13.514 -1.4220  1.6465 -0.8441
15963TIP3   OH269303   6.723   3.189   2.740  0.0040  0.0335  0.2485
15963TIP3    H169304   6.736   3.203   2.834 -3.4614 -0.1896  0.8929
15963TIP3    H269305   6.665   3.113   2.735 -0.6829  0.6299 -2.0241
15964TIP3   OH269306   0.900   4.390  11.027  0.0980 -0.6950  0.3217
15964TIP3    H169307   0.977   4.405  10.973 -1.7825  0.1130 -2.3096
15964TIP3    H269308   0.919   4.308  11.074  2.9183  0.0127  0.6187
15965TIP3   OH269309   0.278   0.302   5.752 -0.0356  0.0978  0.2477
15965TIP3    H169310   0.311   0.390   5.768  2.9698 -0.5365 -1.5781
15965TIP3    H269311   0.277   0.260   5.838  2.5017  0.7270  0.6624
15966TIP3   OH269312   1.591   1.511   0.220  0.5826 -0.2327  0.2360
15966TIP3    H169313   1.648   1.477   0.289  0.8956 -1.3781 -0.5492
15966TIP3    H269314   1.574   1.435   0.164 -1.3336  0.1832  0.1716
15967TIP3   OH269315   2.373   5.940   3.147  0.2607 -0.0687 -0.0448
15967TIP3    H169316   2.421   5.862   3.119  0.4277  0.4347 -1.1885
15967TIP3    H269317   2.307   5.906   3.207  1.3578 -0.8983  0.7475
15968TIP3   OH269318   2.275   5.508  14.135 -0.0234 -0.0545 -0.3213
15968TIP3    H169319   2.256   5.445  14.204  1.9864 -0.8887 -0.4634
15968TIP3    H269320   2.335   5.571  14.176  1.6743 -0.8957 -1.4103
15969TIP3   OH269321   2.296   4.667  13.864 -0.3131 -0.2048 -0.0416
15969TIP3    H169322   2.347   4.614  13.925  0.2880 -0.9456 -1.1612
15969TIP3    H269323   2.333   4.755  13.871  0.0554 -0.3871  0.3254
15970TIP3   OH269324   5.024   3.165  16.845  0.3374 -0.4764 -0.0898
15970TIP3    H169325   5.105   3.121  16.869 -0.3297 -1.8322 -0.2373
15970TIP3    H269326   5.030   3.178  16.750  0.8613  0.4721  0.0595
15971TIP3   OH269327   3.567   3.918  11.402 -0.1982  0.6391  0.0246
15971TIP3    H169328   3.507   3.923  11.328  1.7203  1.7161 -1.5838
15971TIP3    H269329   3.600   4.007  11.412  1.7027 -0.0494  0.2872
15972TIP3   OH269330   0.515   6.429  12.656  0.0784  0.2178 -0.0148
15972TIP3    H169331   0.561   6.427  12.740  0.1248  1.7159  0.0313
15972TIP3    H269332   0.559   6.363  12.602  0.9071  0.1550  0.7206
15973TIP3   OH269333   4.538   3.895   2.986 -0.1377  0.2330 -0.4393
15973TIP3    H169334   4.531   3.799   2.979  0.3682 -0.0079  1.6897
15973TIP3    H269335   4.448   3.926   2.983 -0.2462 -0.0452 -3.2417
15974TIP3   OH269336   0.530   3.500  15.910  0.2520  0.8329 -0.1337
15974TIP3    H169337   0.479   3.449  15.972  0.4451  1.4108  0.5068
15974TIP3    H269338   0.488   3.483  15.825 -0.5240  0.6921  0.2722
15975TIP3   OH269339   5.604   1.896   3.837  0.4751 -0.1594  0.3087
15975TIP3    H169340   5.578   1.813   3.797  1.5312 -0.5177  0.3539
15975TIP3    H269341   5.648   1.945   3.768 -2.5937  1.6297 -0.5914
15976TIP3   OH269342   5.476   0.610  15.019 -0.4811  0.0129  0.0428
15976TIP3    H169343   5.387   0.577  15.009  0.1173 -1.9690  0.8395
15976TIP3    H269344   5.499   0.590  15.109  0.8941  0.1752 -0.2508
15977TIP3   OH269345   2.731   4.838   3.937 -0.3801 -0.2705  0.2056
15977TIP3    H169346   2.759   4.748   3.920 -0.2358 -0.1528 -0.1914
15977TIP3    H269347   2.652   4.849   3.884  1.2228  0.7641 -2.1432
15978TIP3   OH269348   0.348   1.512  13.296 -0.2138 -0.5516 -0.5688
15978TIP3    H169349   0.344   1.507  13.391 -1.1772 -0.0876 -0.5750
15978TIP3    H269350   0.258   1.496  13.267 -0.4971  1.8976 -1.2535
15979TIP3   OH269351   1.715   1.187  15.889  0.3208  0.0929 -0.6538
15979TIP3    H169352   1.794   1.175  15.941 -0.3978  0.8776  0.6563
15979TIP3    H269353   1.671   1.102  15.894  0.4273  0.0578 -0.2822
15980TIP3   OH269354   4.594   0.367  11.419  0.1765 -0.2334  0.1619
15980TIP3    H169355   4.679   0.327  11.402  0.2897 -0.1245  0.4723
15980TIP3    H269356   4.563   0.326  11.499  0.2900  0.2862  0.4808
15981TIP3   OH269357   0.913   1.877   1.616 -0.4167 -0.5492  0.1142
15981TIP3    H169358   0.846   1.825   1.659  0.0292 -1.8035 -0.6607
15981TIP3    H269359   0.907   1.854   1.524  0.3442  0.1503 -0.1270
15982TIP3   OH269360   5.587   1.736  16.514 -0.3958 -0.0645 -0.4477
15982TIP3    H169361   5.667   1.789  16.521 -0.8306  0.7632 -1.4331
15982TIP3    H269362   5.611   1.651  16.551  0.4683  0.6648  0.7360
15983TIP3   OH269363   6.392   1.659  14.575  0.0408  0.8439  0.0028
15983TIP3    H169364   6.362   1.603  14.503 -2.0666  1.1501  0.5857
15983TIP3    H269365   6.453   1.604  14.624  0.7343  0.2884 -1.4163
15984TIP3   OH269366   2.250   6.399   1.668  0.1763  0.5089 -0.2880
15984TIP3    H169367   2.202   6.356   1.598 -0.4306 -1.1753  1.1044
15984TIP3    H269368   2.335   6.354   1.670 -0.3806 -0.5398  1.0310
15985TIP3   OH269369   5.449   2.004  13.192  0.2163 -0.0226 -0.0079
15985TIP3    H169370   5.432   2.035  13.281 -0.7992  0.5714 -0.3891
15985TIP3    H269371   5.479   2.082  13.146 -0.3563 -0.0715 -0.4645
15986TIP3   OH269372   2.145   5.340   4.175 -0.1448  0.4818  0.0706
15986TIP3    H169373   2.117   5.425   4.140 -0.9201 -0.1562 -0.9447
15986TIP3    H269374   2.190   5.361   4.256  0.8347  1.9717 -0.7984
15987TIP3   OH269375   2.706   0.317  12.233 -0.1379  0.1776  0.2153
15987TIP3    H169376   2.731   0.404  12.265  0.0776  0.3154 -0.3197
15987TIP3    H269377   2.628   0.295  12.285 -0.3829  0.8264  0.1438
15988TIP3   OH269378   2.105   2.127  11.721  0.1745  0.0197 -0.6735
15988TIP3    H169379   2.093   2.080  11.803  2.9275  0.5810  0.1575
15988TIP3    H269380   2.162   2.070  11.669  3.9479  2.3328  0.5172
15989TIP3   OH269381   6.269   3.901  12.847 -0.2070 -0.4798 -0.1694
15989TIP3    H169382   6.303   3.988  12.869 -0.5135 -0.2613 -0.5458
15989TIP3    H269383   6.205   3.918  12.778 -0.0994 -1.0297 -0.4072
15990TIP3   OH269384   2.190   4.880   6.319  0.3573  0.4145 -0.1645
15990TIP3    H169385   2.271   4.869   6.368  0.4431  1.7369  0.0193
15990TIP3    H269386   2.126   4.911   6.383  0.1817  1.1019 -0.6584
15991TIP3   OH269387   1.547   5.093   2.793  0.0499 -0.4085  0.4075
15991TIP3    H169388   1.602   5.024   2.829  0.0486 -0.7621 -0.2591
15991TIP3    H269389   1.582   5.109   2.705 -0.2828  0.0608  0.3554
15992TIP3   OH269390   2.694   3.493   2.183 -0.2267  0.3448  0.6805
15992TIP3    H169391   2.744   3.460   2.108  0.5201 -2.0552  2.1161
15992TIP3    H269392   2.626   3.427   2.197 -0.2707  0.6780  2.1953
15993TIP3   OH269393   1.323   2.243  16.935  0.1724  0.3836 -0.0296
15993TIP3    H169394   1.295   2.316  16.989  0.2774  0.9434 -0.7143
15993TIP3    H269395   1.244   2.212  16.891  0.5213  1.7867 -1.7492
15994TIP3   OH269396   0.671   4.852   3.242  0.4506 -0.5667  0.1688
15994TIP3    H169397   0.657   4.766   3.283  1.1169  0.2405  2.2439
15994TIP3    H269398   0.628   4.914   3.302  0.0254  0.5819 -1.2575
15995TIP3   OH269399   3.014   5.595   0.384  0.2910 -0.2131  0.4112
15995TIP3    H169400   2.932   5.639   0.362 -0.1720 -1.1580  0.1714
15995TIP3    H269401   2.995   5.551   0.467  0.8424  0.2883  0.8067
15996TIP3   OH269402   3.161   3.973   5.876 -0.2239  0.2321 -0.6926
15996TIP3    H169403   3.249   3.946   5.849 -0.7318 -1.1711 -1.0298
15996TIP3    H269404   3.158   3.954   5.970  0.2968  1.6141 -0.3857
15997TIP3   OH269405   4.151   2.976  14.172  0.1614  0.1454 -0.1289
15997TIP3    H169406   4.142   2.991  14.267 -1.4477  1.1603 -0.4061
15997TIP3    H269407   4.213   2.904  14.166  1.2357  0.8455  1.6597
15998TIP3   OH269408   2.806   4.452   2.237  0.3661  0.1901  0.2505
15998TIP3    H169409   2.784   4.531   2.187 -1.7888 -1.1087 -1.0396
15998TIP3    H269410   2.893   4.427   2.205  0.2210  0.9447 -0.7995
15999TIP3   OH269411   2.801   1.055   0.221 -0.1209  0.2617  0.1983
15999TIP3    H169412   2.846   0.975   0.248  1.0519  0.7376 -0.2825
15999TIP3    H269413   2.850   1.084   0.143  0.5095  2.3224  1.3059
16000TIP3   OH269414   5.843   4.325   1.779  0.3904 -0.3613  0.6777
16000TIP3    H169415   5.937   4.326   1.798  0.8605  0.6787 -1.4415
16000TIP3    H269416   5.817   4.234   1.794  1.5065 -0.4703  2.1719
16001TIP3   OH269417   2.345   3.535  16.444  0.1653  0.5950 -0.4889
16001TIP3    H169418   2.411   3.586  16.397  3.0930 -2.1257  0.3821
16001TIP3    H269419   2.373   3.539  16.536 -0.7855 -0.7889 -0.1201
16002TIP3   OH269420   5.995   1.146   0.591  0.2327 -0.4030 -0.6788
16002TIP3    H169421   6.016   1.152   0.498  2.7844 -0.0933 -0.1476
16002TIP3    H269422   6.078   1.129   0.634 -0.9531 -1.0066  1.5374
16003TIP3   OH269423   1.277   5.810   0.788 -0.1276 -0.2806 -0.1801
16003TIP3    H169424   1.264   5.747   0.859 -1.7469 -0.0088 -0.1837
16003TIP3    H269425   1.294   5.893   0.832 -1.9256  0.0571 -0.0306
16004TIP3   OH269426   1.922   0.939  16.777  0.2889  0.4244 -0.1014
16004TIP3    H169427   1.835   0.907  16.799  0.3830  0.5929  0.5511
16004TIP3    H269428   1.975   0.860  16.766  0.4041  0.3341  1.0082
16005TIP3   OH269429   4.272   3.106  12.536  0.5438  0.1834  0.7950
16005TIP3    H169430   4.239   3.177  12.481  1.6612  0.7510  0.8341
16005TIP3    H269431   4.351   3.142  12.577  1.5598 -1.3210  0.2404
16006TIP3   OH269432   1.037   4.355   3.094 -0.1867  0.3983  0.0926
16006TIP3    H169433   1.104   4.420   3.118 -0.2553  0.5724 -0.1818
16006TIP3    H269434   1.057   4.279   3.148 -0.2884  0.7568  0.6414
16007TIP3   OH269435   1.098   0.946   4.666 -0.2766 -0.2671  0.7637
16007TIP3    H169436   1.127   0.860   4.694  3.1315  1.4509  3.2685
16007TIP3    H269437   1.157   1.007   4.711 -2.5762  3.4061 -0.7362
16008TIP3   OH269438   3.487   1.685  11.967 -0.1266 -0.0601  0.8028
16008TIP3    H169439   3.521   1.775  11.963 -0.2982 -0.0209 -0.0282
16008TIP3    H269440   3.560   1.631  11.939 -0.9248  0.0881 -1.7861
16009TIP3   OH269441   3.594   5.152  15.236  0.4899 -0.1935  0.2748
16009TIP3    H169442   3.611   5.068  15.193 -2.7331 -0.3915 -0.9417
16009TIP3    H269443   3.522   5.190  15.185  0.2011  2.1800  2.2738
16010TIP3   OH269444   4.624   4.187   5.029  0.2749  0.4456 -0.5574
16010TIP3    H169445   4.579   4.124   5.084 -0.2879 -0.0830 -1.6041
16010TIP3    H269446   4.605   4.159   4.939  0.4350  1.7949 -1.0359
16011TIP3   OH269447   6.349   3.599   6.735  0.1452  0.2020 -0.2164
16011TIP3    H169448   6.434   3.644   6.737  0.0886  0.3336 -0.5723
16011TIP3    H269449   6.300   3.638   6.807  0.1905  0.5250 -0.3586
16012TIP3   OH269450   6.156   3.537  16.443 -0.2062  0.0974 -0.5604
16012TIP3    H169451   6.204   3.604  16.394  0.1307  0.4792  0.2730
16012TIP3    H269452   6.155   3.569  16.533  0.7632 -1.4479  0.0499
16013TIP3   OH269453   4.067   5.895  13.821  0.1705 -0.5692 -0.1016
16013TIP3    H169454   4.133   5.944  13.870 -1.6767  0.5855  1.3377
16013TIP3    H269455   4.068   5.934  13.733  1.3973 -0.6036 -0.1214
16014TIP3   OH269456   1.384   3.366   1.606 -0.5233  0.2709  0.0581
16014TIP3    H169457   1.428   3.444   1.573 -0.7825  0.6120  0.5221
16014TIP3    H269458   1.293   3.392   1.617 -0.6462 -0.1470  0.0523
16015TIP3   OH269459   3.208   4.550   4.586  0.1035 -0.1406  0.4519
16015TIP3    H169460   3.303   4.549   4.573  0.0892 -2.4021  0.1395
16015TIP3    H269461   3.173   4.507   4.507 -1.2172  0.9518  0.4070
16016TIP3   OH269462   5.913   0.480  13.385 -0.1132 -0.3882  0.2049
16016TIP3    H169463   6.004   0.466  13.411 -0.2936 -0.8057  0.6480
16016TIP3    H269464   5.892   0.568  13.416  0.5908  0.3374 -1.2720
16017TIP3   OH269465   4.619   3.894  15.178  0.1138  0.3237  0.1102
16017TIP3    H169466   4.688   3.898  15.112 -0.6805  1.3863 -0.6972
16017TIP3    H269467   4.564   3.821  15.151 -1.0066  1.6073 -1.2835
16018TIP3   OH269468   2.363   6.650  16.007 -0.2352 -1.0299 -0.4177
16018TIP3    H169469   2.330   6.724  16.059 -1.2635 -1.4369 -0.4742
16018TIP3    H269470   2.330   6.573  16.052  2.5878 -1.6207  0.9022
16019TIP3   OH269471   6.182   1.519   1.384 -0.9579 -0.6660  0.0276
16019TIP3    H169472   6.236   1.566   1.322 -0.7042 -1.9060 -0.7339
16019TIP3    H269473   6.115   1.582   1.411  0.9686  0.9885  1.1986
16020TIP3   OH269474   4.216   0.376   4.794  0.1455  0.1643  0.2216
16020TIP3    H169475   4.281   0.444   4.815  1.0144 -0.9454  1.2568
16020TIP3    H269476   4.132   0.422   4.794  0.9048  1.7162 -1.5041
16021TIP3   OH269477   4.705   0.182  14.278 -0.1130 -0.0561  0.0467
16021TIP3    H169478   4.665   0.095  14.282 -0.7534  0.2161 -0.3152
16021TIP3    H269479   4.633   0.241  14.253  0.6470  0.3416 -1.3488
16022TIP3   OH269480   1.957   1.170   3.295  0.4646  0.1688 -0.2362
16022TIP3    H169481   1.906   1.091   3.276  0.3081  0.1318  0.3171
16022TIP3    H269482   1.921   1.237   3.238  0.2361 -0.0272 -0.3220
16023TIP3   OH269483   0.188   4.983  11.954 -0.1630  0.1256 -0.1709
16023TIP3    H169484   0.283   4.977  11.942 -0.2699 -0.8456 -0.6134
16023TIP3    H269485   0.159   4.892  11.966 -0.9538  0.4613  0.6642
16024TIP3   OH269486   6.779   3.143   4.311  0.4741  0.7311  0.0582
16024TIP3    H169487   6.862   3.097   4.298 -0.9993 -2.1438  0.0301
16024TIP3    H269488   6.741   3.148   4.223  0.2313  1.2831  0.1893
16025TIP3   OH269489   3.415   2.572  10.896  0.3882 -0.1612 -0.2939
16025TIP3    H169490   3.385   2.619  10.974  0.5400 -1.2020  0.4048
16025TIP3    H269491   3.402   2.634  10.824 -2.0013 -0.0018  0.1991
16026TIP3   OH269492   4.721   2.552   0.332  0.4672  0.3138  0.8829
16026TIP3    H169493   4.758   2.483   0.387  1.2669 -0.2467 -0.3272
16026TIP3    H269494   4.778   2.627   0.345  1.5162 -0.2587 -0.2487
16027TIP3   OH269495   4.492   2.954  13.876  0.2643  0.6122  0.6844
16027TIP3    H169496   4.534   3.028  13.831 -0.7135  0.2847 -0.8361
16027TIP3    H269497   4.527   2.877  13.832  0.6271  0.1785  1.7011
16028TIP3   OH269498   4.069   1.367  14.679  0.5461 -0.1281  0.3112
16028TIP3    H169499   3.993   1.394  14.628  1.6897  1.6562 -0.5360
16028TIP3    H269500   4.119   1.311  14.620  1.5527  1.4299 -0.3672
16029TIP3   OH269501   4.420   5.065  16.813  0.2510 -0.4185 -0.0211
16029TIP3    H169502   4.443   5.110  16.894  0.6641 -0.3745 -0.1598
16029TIP3    H269503   4.395   5.136  16.753 -1.7779 -0.5535  0.5877
16030TIP3   OH269504   5.686   2.883   2.565  0.1834 -0.1705 -0.0572
16030TIP3    H169505   5.759   2.932   2.602  0.3196 -1.2091  1.1249
16030TIP3    H269506   5.690   2.902   2.471  0.2058  2.0558  0.3397
16031TIP3   OH269507   5.085   5.861   4.692  0.4126 -0.3476  0.2807
16031TIP3    H169508   5.106   5.884   4.782 -1.3573  0.4966  0.5234
16031TIP3    H269509   5.002   5.905   4.674  1.1398  0.2650 -2.0674
16032TIP3   OH269510   6.483   2.054  15.883  0.3361 -0.4918  0.2005
16032TIP3    H169511   6.501   2.129  15.941 -0.3123 -0.8067  0.8351
16032TIP3    H269512   6.387   2.054  15.875  0.4688  0.2934 -1.9053
16033TIP3   OH269513   3.117   3.435   5.460 -0.4046  0.5782 -1.2395
16033TIP3    H169514   3.093   3.343   5.465  1.1523  0.2067  1.5834
16033TIP3    H269515   3.048   3.475   5.407 -2.6902 -1.7117 -0.2066
16034TIP3   OH269516   2.179   2.732   0.447 -0.0362 -0.1401  0.6860
16034TIP3    H169517   2.273   2.739   0.432  0.2317  4.0012  2.9053
16034TIP3    H269518   2.139   2.759   0.365  0.8234  0.8064  0.5631
16035TIP3   OH269519   2.886   2.990  15.465 -0.1324  0.2538 -0.2121
16035TIP3    H169520   2.837   3.063  15.503  1.9827  1.4947  0.2624
16035TIP3    H269521   2.961   3.030  15.423 -0.3371 -1.4490 -2.3757
16036TIP3   OH269522   6.628   5.779  12.809  0.3877 -0.2550 -0.2584
16036TIP3    H169523   6.642   5.786  12.714 -1.7387  0.8735 -0.5582
16036TIP3    H269524   6.587   5.694  12.821  0.0731 -0.1347 -0.4574
16037TIP3   OH269525   1.804   3.407   4.660  0.1316  0.4894  0.8388
16037TIP3    H169526   1.863   3.396   4.734 -0.0888 -0.4769  0.8889
16037TIP3    H269527   1.856   3.378   4.584  0.6682  2.3321  0.4614
16038TIP3   OH269528   3.977   6.490   3.415  0.1496 -0.4415 -0.3121
16038TIP3    H169529   3.977   6.496   3.319  1.0233  3.1135 -0.2248
16038TIP3    H269530   4.050   6.545   3.443  1.3613 -3.1269  2.4530
16039TIP3   OH269531   2.856   3.875   2.118 -0.4668 -0.0211 -0.3487
16039TIP3    H169532   2.877   3.782   2.109 -2.7320 -0.4828 -1.6845
16039TIP3    H269533   2.861   3.893   2.211  0.4478 -1.3500 -0.1175
16040TIP3   OH269534   1.186   2.779  13.231 -0.1724 -0.6784 -0.3812
16040TIP3    H169535   1.258   2.773  13.168 -1.5820  1.6627 -2.3826
16040TIP3    H269536   1.216   2.842  13.296 -0.5345  0.6305 -1.4560
16041TIP3   OH269537   2.186   5.784   0.653  0.2278  0.2745  0.1875
16041TIP3    H169538   2.239   5.862   0.635 -0.5255  0.5764 -0.7876
16041TIP3    H269539   2.110   5.793   0.596 -0.3604 -0.6852  0.7944
16042TIP3   OH269540   0.168   1.362   1.925  0.2422  0.0506 -0.2448
16042TIP3    H169541   0.152   1.316   2.007  0.0975 -1.1980 -0.9514
16042TIP3    H269542   0.258   1.394   1.932  0.0119  0.5407  0.6577
16043TIP3   OH269543   2.579   1.889  11.550  0.0506 -0.2475 -0.1642
16043TIP3    H169544   2.560   1.897  11.644 -0.2938 -2.6538  0.0174
16043TIP3    H269545   2.674   1.885  11.545  0.0360 -1.4034  0.2352
16044TIP3   OH269546   3.659   3.615   2.067 -0.2838 -0.2215 -0.2507
16044TIP3    H169547   3.600   3.681   2.104 -1.8249 -0.4980 -2.0918
16044TIP3    H269548   3.655   3.629   1.973  2.4966 -0.3995 -0.4622
16045TIP3   OH269549   5.117   3.809   4.892  0.4065  0.6506 -0.0603
16045TIP3    H169550   5.163   3.817   4.808 -2.1665  1.6735 -1.5003
16045TIP3    H269551   5.071   3.725   4.886 -2.3421  2.1014 -1.1946
16046TIP3   OH269552   4.972   2.924   1.793  0.6090 -0.2154 -0.1425
16046TIP3    H169553   4.999   2.912   1.884  1.5387 -1.1787 -0.5291
16046TIP3    H269554   4.921   2.847   1.772  1.7161 -0.7671 -0.8938
16047TIP3   OH269555   4.575   6.001  11.856  0.1566 -0.4950  0.3123
16047TIP3    H169556   4.630   6.044  11.792 -0.4156  0.7942  0.6545
16047TIP3    H269557   4.631   5.934  11.895  1.4717  0.7657  0.6516
16048TIP3   OH269558   4.299   5.020  14.503 -0.4253  0.0890 -0.0735
16048TIP3    H169559   4.336   5.106  14.520 -0.9972  0.1055  1.1789
16048TIP3    H269560   4.324   4.967  14.579  1.1696 -1.3099 -1.4691
16049TIP3   OH269561   1.810   2.061   5.195  0.0569  0.2869 -0.3326
16049TIP3    H169562   1.857   2.142   5.175  1.1822 -0.1738  0.3502
16049TIP3    H269563   1.865   1.992   5.158  0.2661 -0.3090  1.0268
16050TIP3   OH269564   6.296   6.463   4.868 -0.6398 -0.0875  0.0070
16050TIP3    H169565   6.239   6.495   4.937 -1.7532 -1.1072 -0.4184
16050TIP3    H269566   6.305   6.538   4.808 -0.8498  0.3309  0.4899
16051TIP3   OH269567   3.916   3.711  14.543  0.1124  0.3156  0.4007
16051TIP3    H169568   3.968   3.660  14.604 -1.4236  0.6755  2.1271
16051TIP3    H269569   3.925   3.666  14.459  1.9953 -0.4168  0.9433
16052TIP3   OH269570   3.891   6.648   4.328 -0.1393 -0.1821  0.5147
16052TIP3    H169571   3.846   6.697   4.259  1.8912 -0.1821 -0.9084
16052TIP3    H269572   3.857   6.559   4.320  0.3061 -0.2662 -0.7846
16053TIP3   OH269573   4.685   3.384   4.977 -0.5440  0.3093  0.3381
16053TIP3    H169574   4.650   3.297   4.960  0.5620 -0.1914  0.5478
16053TIP3    H269575   4.661   3.403   5.068 -0.8201  0.2443  0.2789
16054TIP3   OH269576   1.772   2.568  12.269  0.2274 -0.4334 -0.1049
16054TIP3    H169577   1.848   2.598  12.220 -0.0882 -1.6473 -1.4151
16054TIP3    H269578   1.806   2.500  12.327  0.1842 -0.8838 -0.5964
16055TIP3   OH269579   2.733   0.296  12.582  0.2672 -0.1847  0.5373
16055TIP3    H169580   2.775   0.212  12.563  0.3582  0.4220 -2.3715
16055TIP3    H269581   2.803   0.361  12.571 -0.5462  0.5216 -0.7312
16056TIP3   OH269582   3.065   5.099  14.103  0.0436 -0.8475 -0.3247
16056TIP3    H169583   3.005   5.162  14.063  1.4562  1.3306  0.8109
16056TIP3    H269584   3.061   5.118  14.197  0.5070 -2.5052  0.0758
16057TIP3   OH269585   3.187   5.125  14.804  0.5006  0.4253 -0.3648
16057TIP3    H169586   3.216   5.177  14.729 -0.3932  0.0168 -1.0151
16057TIP3    H269587   3.227   5.039  14.791 -0.1583  0.1667 -0.7171
16058TIP3   OH269588   4.789   4.275   1.539  0.1670  0.1566 -0.0034
16058TIP3    H169589   4.800   4.312   1.451  0.5922 -0.3452 -0.1621
16058TIP3    H269590   4.816   4.184   1.531  0.7663  0.2585  0.7779
16059TIP3   OH269591   0.648   1.932  12.416  0.1802 -0.0715  0.1428
16059TIP3    H169592   0.715   1.866  12.395 -0.0344  0.2960 -1.9011
16059TIP3    H269593   0.567   1.881  12.427  0.4820 -0.3666  1.1463
16060TIP3   OH269594   3.008   4.690   0.327 -0.0585  0.2442 -0.5577
16060TIP3    H169595   2.963   4.677   0.244 -0.2439 -0.0993 -0.4042
16060TIP3    H269596   2.941   4.727   0.385 -0.8232 -2.2968  0.3374
16061TIP3   OH269597   5.527   0.292   5.250 -0.0233  0.1416 -0.2903
16061TIP3    H169598   5.596   0.344   5.293  0.0675  1.0193 -1.4127
16061TIP3    H269599   5.514   0.337   5.166 -2.9194  0.8170  0.4112
16062TIP3   OH269600   0.769   4.844   2.788  0.0225 -0.0537 -0.0887
16062TIP3    H169601   0.764   4.884   2.702 -1.4858 -1.2431 -0.5916
16062TIP3    H269602   0.835   4.896   2.835 -1.3133  2.5480 -0.9066
16063TIP3   OH269603   3.755   6.533  14.001 -0.0897 -0.0675  0.8404
16063TIP3    H169604   3.838   6.576  13.981 -0.2470  0.9628  2.2526
16063TIP3    H269605   3.773   6.481  14.080 -0.2385 -1.6329 -0.1039
16064TIP3   OH269606   5.773   1.337   5.954  0.1236 -0.0990 -0.5582
16064TIP3    H169607   5.868   1.343   5.941  0.2044  1.7605  0.5208
16064TIP3    H269608   5.762   1.302   6.042 -0.1831  0.2787 -0.4439
16065TIP3   OH269609   2.087   0.143  14.848  1.0581 -0.4558 -0.0357
16065TIP3    H169610   2.003   0.098  14.833  0.4371  0.9220 -0.8520
16065TIP3    H269611   2.139   0.079  14.896 -0.5522 -1.2565  0.7379
16066TIP3   OH269612   5.642   0.466  17.029  0.2950 -0.4502 -0.0585
16066TIP3    H169613   5.705   0.415  16.979  0.8326 -0.1268  0.2847
16066TIP3    H269614   5.612   0.534  16.969  0.0003 -0.8240 -0.3376
16067TIP3   OH269615   3.293   6.098   3.508  0.2113 -0.2848  0.4698
16067TIP3    H169616   3.378   6.062   3.483 -0.2470 -0.6640 -0.5592
16067TIP3    H269617   3.229   6.031   3.485 -0.4905  0.4846  0.1158
16068TIP3   OH269618   1.681   2.960  14.532  0.2313  0.2827 -0.0204
16068TIP3    H169619   1.740   2.895  14.493  0.7158 -0.1392  1.3774
16068TIP3    H269620   1.726   3.044  14.521  0.4509  0.1423 -0.1878
16069TIP3   OH269621   6.390   2.591   2.035 -0.1239 -0.3134  0.2548
16069TIP3    H169622   6.349   2.657   1.979 -3.2274 -2.3693 -0.1798
16069TIP3    H269623   6.430   2.530   1.973  2.3801  0.8372  0.6393
16070TIP3   OH269624   2.667   4.618  14.620  0.2054  0.1751  0.0487
16070TIP3    H169625   2.762   4.617  14.628  0.2581 -2.3920 -0.1314
16070TIP3    H269626   2.649   4.576  14.536 -1.0794 -0.2691  0.5160
16071TIP3   OH269627   3.975   3.277   3.354 -0.0762 -0.0975  0.3640
16071TIP3    H169628   4.028   3.197   3.353  0.2883  0.0449  2.7364
16071TIP3    H269629   3.885   3.246   3.342  0.1824 -0.7198 -0.0296
16072TIP3   OH269630   2.793   5.468   3.875  0.2571  0.4673 -0.4456
16072TIP3    H169631   2.818   5.380   3.901  0.5456  0.3841 -0.9805
16072TIP3    H269632   2.877   5.511   3.856  0.0115  0.1576 -2.3741
16073TIP3   OH269633   3.069   0.071   1.852 -0.4875 -0.3403  0.1957
16073TIP3    H169634   3.125   0.002   1.888  0.8188 -0.0305 -1.1136
16073TIP3    H269635   2.990   0.070   1.906 -0.1999 -2.3699  0.6297
16074TIP3   OH269636   2.633   6.789   3.287 -0.0507 -0.2411 -0.0419
16074TIP3    H169637   2.636   6.855   3.356 -0.5693  1.2184 -1.3592
16074TIP3    H269638   2.551   6.741   3.303 -1.0928  1.2660 -0.6348
16075TIP3   OH269639   3.472   3.913  10.855 -0.7633  0.3084 -0.2787
16075TIP3    H169640   3.536   3.892  10.924  0.0640 -0.1885 -1.1618
16075TIP3    H269641   3.476   4.008  10.847  0.4330  0.2351 -0.8165
16076TIP3   OH269642   5.403   5.781   5.954 -0.0474 -0.5176  0.0444
16076TIP3    H169643   5.426   5.720   5.884 -0.1357  0.3918 -0.8062
16076TIP3    H269644   5.395   5.866   5.910  0.4245  0.1755  1.2595
16077TIP3   OH269645   0.626   4.864  13.650  0.2890 -0.2311 -0.0300
16077TIP3    H169646   0.578   4.901  13.724  1.2814 -0.8436  0.9507
16077TIP3    H269647   0.559   4.816  13.601 -0.4063  0.2613  0.4116
16078TIP3   OH269648   2.409   6.650   3.365 -0.7209 -0.1212 -0.6553
16078TIP3    H169649   2.338   6.594   3.334 -0.3170 -0.6646 -0.6331
16078TIP3    H269650   2.367   6.731   3.391 -1.5340 -0.9247  0.6623
16079TIP3   OH269651   1.974   4.594  12.563  0.0031  0.3841  0.2426
16079TIP3    H169652   1.979   4.514  12.511  1.9195 -0.4147  1.5385
16079TIP3    H269653   1.962   4.564  12.653 -1.5186  1.6729  0.5290
16080TIP3   OH269654   2.474   3.993   4.043 -0.1434  0.3458  0.2662
16080TIP3    H169655   2.458   3.902   4.019 -1.2993  1.1412 -2.2409
16080TIP3    H269656   2.568   4.004   4.031 -0.1814 -0.1958 -0.5892
16081TIP3   OH269657   6.301   1.829  15.435 -0.2554  0.4105  0.2456
16081TIP3    H169658   6.355   1.822  15.357  0.5249 -1.3840  0.8832
16081TIP3    H269659   6.219   1.786  15.411  0.4228 -1.2387  0.7239
16082TIP3   OH269660   6.542   5.981   1.110  1.0288 -0.3754 -0.5011
16082TIP3    H169661   6.548   6.066   1.153 -0.0527 -0.7867  0.4988
16082TIP3    H269662   6.472   5.992   1.045 -0.8247 -1.1459  1.2771
16083TIP3   OH269663   3.519   1.409  13.465  0.0293  0.2490 -0.0791
16083TIP3    H169664   3.555   1.333  13.509  0.2591 -1.8972 -3.5623
16083TIP3    H269665   3.594   1.450  13.422 -0.5009  0.7864 -0.5146
16084TIP3   OH269666   5.488   1.661  13.073 -0.2173  0.2902  0.1912
16084TIP3    H169667   5.393   1.654  13.061 -0.1123 -0.4648 -0.2127
16084TIP3    H269668   5.506   1.609  13.151  0.1761 -1.6470 -1.1428
16085TIP3   OH269669   0.654   6.738   4.229 -0.1238  0.0915  0.0577
16085TIP3    H169670   0.660   6.828   4.263 -0.6577  0.1476  0.0086
16085TIP3    H269671   0.671   6.746   4.136 -0.5250  0.1917 -0.0083
16086TIP3   OH269672   6.207   3.514   4.575  0.1233 -0.1326  0.3113
16086TIP3    H169673   6.208   3.443   4.512  0.1493  0.7984 -0.7637
16086TIP3    H269674   6.254   3.586   4.533 -1.2241  1.0529  0.7086
16087TIP3   OH269675   0.418   3.708  13.508 -0.2895  0.2482 -0.0197
16087TIP3    H169676   0.458   3.789  13.478  0.7910 -0.7168 -1.2963
16087TIP3    H269677   0.485   3.641  13.495 -1.2962 -0.9387  0.5912
16088TIP3   OH269678   2.561   3.039  16.785  0.2956  0.1803  0.0859
16088TIP3    H169679   2.543   2.945  16.797 -1.4585  0.5656  0.7460
16088TIP3    H269680   2.479   3.075  16.752  0.0656  1.9256  2.3395
16089TIP3   OH269681   2.555   2.114   5.780  0.0862 -0.0848  0.0673
16089TIP3    H169682   2.464   2.131   5.756 -0.4507 -1.0219  1.3292
16089TIP3    H269683   2.606   2.162   5.715 -1.2953 -0.2175 -1.1753
16090TIP3   OH269684   3.420   1.727   5.402  0.0321 -0.6259 -0.6560
16090TIP3    H169685   3.361   1.698   5.333 -2.8910  2.8012  0.0953
16090TIP3    H269686   3.381   1.693   5.483  1.1372 -1.2675 -0.3812
16091TIP3   OH269687   3.819   3.741   0.215 -0.1085  0.0195  0.0752
16091TIP3    H169688   3.802   3.738   0.309  0.4134 -0.4710  0.1602
16091TIP3    H269689   3.913   3.757   0.208  0.0871 -1.2133 -0.3459
16092TIP3   OH269690   0.231   1.618  11.742  0.3508  0.3469  0.4286
16092TIP3    H169691   0.302   1.603  11.805  0.2751  0.3316  0.5099
16092TIP3    H269692   0.179   1.538  11.744  0.2604  0.4059  0.4607
16093TIP3   OH269693   2.206   0.867  11.774 -0.2411 -0.1083 -0.2109
16093TIP3    H169694   2.142   0.904  11.714 -0.3600  0.9596  0.5415
16093TIP3    H269695   2.222   0.779  11.741 -0.1224  0.5214 -1.9349
16094TIP3   OH269696   4.391   6.638  12.579 -0.9505  0.0456  0.0922
16094TIP3    H169697   4.362   6.729  12.567 -2.0821 -0.4028 -0.8250
16094TIP3    H269698   4.434   6.616  12.496 -0.4868 -0.1831  0.3951
16095TIP3   OH269699   2.096   4.826   1.470  0.0467 -0.1205  0.6035
16095TIP3    H169700   2.071   4.842   1.561 -0.0018 -0.4171  0.6402
16095TIP3    H269701   2.031   4.764   1.437 -2.4500  2.9760 -0.8425
16096TIP3   OH269702   4.082   5.521  12.826 -0.5047  0.3027  0.4356
16096TIP3    H169703   4.100   5.591  12.764  1.5372  0.0657  0.6977
16096TIP3    H269704   4.166   5.476  12.837 -1.5655 -1.6796  0.9041
16097TIP3   OH269705   2.889   2.986   1.679 -0.6434 -0.6058 -0.1163
16097TIP3    H169706   2.873   3.013   1.589  1.5147  0.7072 -0.1751
16097TIP3    H269707   2.984   2.982   1.687 -0.7372  0.2237  2.3460
16098TIP3   OH269708   0.559   0.091   0.530  0.4366  0.1893 -0.5674
16098TIP3    H169709   0.483   0.032   0.529  1.0257 -0.6134 -2.1513
16098TIP3    H269710   0.549   0.143   0.451  1.1224  0.6383 -0.3641
16099TIP3   OH269711   6.205   4.514  15.738 -0.2384  0.2499 -0.4338
16099TIP3    H169712   6.275   4.456  15.708 -1.0544 -0.8492 -0.2791
16099TIP3    H269713   6.225   4.531  15.830  0.3306  0.7229 -0.6380
16100TIP3   OH269714   4.888   1.491  13.929  0.4755 -0.2488  0.0307
16100TIP3    H169715   4.850   1.417  13.882  0.1520 -1.2047  1.7150
16100TIP3    H269716   4.970   1.458  13.966  1.3263  0.8332 -0.8078
16101TIP3   OH269717   6.235   5.537   3.406 -0.0133 -0.2545  0.0684
16101TIP3    H169718   6.246   5.565   3.315 -1.0204  0.5478  0.1744
16101TIP3    H269719   6.226   5.618   3.456  4.1960 -0.4171  1.5046
16102TIP3   OH269720   2.847   6.342   2.569  0.1769 -0.1299  0.5280
16102TIP3    H169721   2.759   6.310   2.550  0.7902 -0.8882 -1.2260
16102TIP3    H269722   2.882   6.370   2.485  1.8917 -0.5667  1.0471
16103TIP3   OH269723   0.482   5.828   4.730 -0.1482  0.8004  0.1596
16103TIP3    H169724   0.492   5.923   4.742  1.2110  0.7366 -0.3376
16103TIP3    H269725   0.495   5.792   4.817 -0.3587  1.0485  0.2965
16104TIP3   OH269726   6.770   2.760   1.517 -0.0527  0.1177 -0.7333
16104TIP3    H169727   6.798   2.703   1.588  0.3918  0.6926 -0.4380
16104TIP3    H269728   6.813   2.844   1.535 -1.9936  1.0537 -0.2428
16105TIP3   OH269729   6.390   4.169   5.941  0.4026  0.1585  0.1488
16105TIP3    H169730   6.456   4.231   5.973  0.6684 -0.0136 -0.0553
16105TIP3    H269731   6.412   4.087   5.986  2.0505 -0.6388 -1.9427
16106TIP3   OH269732   2.725   3.877  13.095  0.4317  0.2548  0.1077
16106TIP3    H169733   2.640   3.846  13.062  0.3375  0.5279  0.0887
16106TIP3    H269734   2.730   3.968  13.065 -0.4432  1.1079  2.3216
16107TIP3   OH269735   4.073   5.433   4.274 -0.0664  0.7778  0.0850
16107TIP3    H169736   4.125   5.486   4.335 -0.2135  1.7487 -0.6085
16107TIP3    H269737   4.019   5.497   4.228 -0.7239 -0.0588 -0.3192
16108TIP3   OH269738   4.395   5.779   4.202  0.2851  0.2628  0.1767
16108TIP3    H169739   4.468   5.810   4.256  0.0965 -0.7740  1.0586
16108TIP3    H269740   4.384   5.847   4.136 -0.5871  2.5107  2.4374
16109TIP3   OH269741   5.609   6.293  14.336 -0.5125  0.2690  0.5397
16109TIP3    H169742   5.595   6.249  14.251 -0.4936 -1.8237  1.5463
16109TIP3    H269743   5.686   6.348  14.321  2.9153 -3.9594  0.3709
16110TIP3   OH269744   0.124   1.199   2.177  0.2313  0.1670  0.0060
16110TIP3    H169745   0.134   1.106   2.154 -0.2655 -0.1536  1.0204
16110TIP3    H269746   0.032   1.208   2.202 -0.0939  1.2739 -1.4496
16111TIP3   OH269747   0.925   1.900   4.185  0.1080 -0.1543 -0.2667
16111TIP3    H169748   0.899   1.989   4.208  0.2220 -0.3442  0.6111
16111TIP3    H269749   0.876   1.844   4.244  0.4196 -0.6550 -0.4739
16112TIP3   OH269750   0.752   2.617   4.312  0.2394 -0.3795  0.3971
16112TIP3    H169751   0.779   2.626   4.404  0.7127 -0.7130  0.2936
16112TIP3    H269752   0.826   2.652   4.262  0.6375 -1.6142  0.0996
16113TIP3   OH269753   2.303   4.714   2.207  0.5892 -0.0560 -0.2852
16113TIP3    H169754   2.334   4.744   2.292 -0.3802 -0.1436  0.1083
16113TIP3    H269755   2.220   4.669   2.225  1.5449 -2.2119 -0.9698
16114TIP3   OH269756   6.072   4.118   5.694  0.2418  0.3542  0.2843
16114TIP3    H169757   6.054   4.161   5.778 -0.4169  1.1394 -0.2424
16114TIP3    H269758   5.996   4.139   5.640 -0.5559 -2.2530  0.2887
16115TIP3   OH269759   6.220   3.161   6.188 -0.3055 -0.4197 -0.2504
16115TIP3    H169760   6.231   3.071   6.157  0.7732 -0.2940 -0.2846
16115TIP3    H269761   6.309   3.189   6.211 -0.5880  0.7348 -0.4962
16116TIP3   OH269762   2.661   1.007   4.505  0.2801 -0.4391  0.8649
16116TIP3    H169763   2.623   1.094   4.513  1.1822 -0.0861  1.5688
16116TIP3    H269764   2.595   0.948   4.541 -0.2968 -0.0428  0.4738
16117TIP3   OH269765   2.977   5.148   0.286 -0.2812  0.0898 -0.0356
16117TIP3    H169766   3.062   5.107   0.271  0.1594  0.1583  1.9147
16117TIP3    H269767   2.989   5.239   0.259 -0.6068 -0.4823 -2.3269
16118TIP3   OH269768   1.043   5.183  12.124  0.0826 -0.2001 -0.2093
16118TIP3    H169769   0.997   5.101  12.108 -1.7811  0.4935  1.2387
16118TIP3    H269770   1.125   5.158  12.167  0.4676 -1.3700 -1.5299
16119TIP3   OH269771   4.313   6.469   3.782  0.1648 -0.1206  0.2521
16119TIP3    H169772   4.225   6.490   3.751  0.0556 -0.1864  0.5229
16119TIP3    H269773   4.359   6.440   3.703  0.3812  1.3118 -0.1753
16120TIP3   OH269774   4.632   0.813  16.604 -0.7785 -0.5322  0.0768
16120TIP3    H169775   4.622   0.747  16.672 -2.1827 -0.4838 -0.0654
16120TIP3    H269776   4.607   0.895  16.645  1.1899  0.0043  0.3244
16121TIP3   OH269777   0.265   1.212  16.573  0.2079  0.0232  0.6173
16121TIP3    H169778   0.238   1.170  16.491  0.8208  1.1002 -0.1688
16121TIP3    H269779   0.236   1.152  16.642 -0.1085 -1.0195 -0.3958
16122TIP3   OH269780   5.330   5.537  11.102 -0.0935 -0.0367  0.4777
16122TIP3    H169781   5.373   5.609  11.057  2.0238 -1.0840  0.7269
16122TIP3    H269782   5.272   5.580  11.166  2.0890  1.4701  1.5491
16123TIP3   OH269783   3.272   6.130  16.248 -0.0305 -0.0876  0.1581
16123TIP3    H169784   3.252   6.108  16.157 -0.8604 -1.4384  0.6474
16123TIP3    H269785   3.319   6.053  16.282  1.2809  0.8481  0.5786
16124TIP3   OH269786   4.792   4.719  12.304 -0.4460 -0.2483 -0.6228
16124TIP3    H169787   4.850   4.791  12.278  1.0611 -1.8634 -1.9771
16124TIP3    H269788   4.708   4.761  12.322  0.2365  1.7800 -1.8587
16125TIP3   OH269789   1.380   1.335  11.621  0.0755 -0.1115  0.0985
16125TIP3    H169790   1.387   1.400  11.551 -0.9319 -0.6974 -0.5673
16125TIP3    H269791   1.299   1.357  11.666 -0.4119 -1.0352 -0.2945
16126TIP3   OH269792   0.349   5.161  14.682  0.2474  0.2661 -0.7415
16126TIP3    H169793   0.389   5.241  14.649 -0.8449  1.5608  0.8753
16126TIP3    H269794   0.314   5.186  14.768 -0.1371 -1.9560 -0.1928
16127TIP3   OH269795   1.578   3.714  16.073 -0.4528 -0.0169 -0.1277
16127TIP3    H169796   1.526   3.745  16.000  0.7132  0.1950 -0.8982
16127TIP3    H269797   1.562   3.777  16.143 -0.7416  0.3845 -0.5574
16128TIP3   OH269798   2.617   0.611   3.282  0.0149 -0.3528 -0.1966
16128TIP3    H169799   2.645   0.665   3.208  0.0653  0.4295  0.3779
16128TIP3    H269800   2.576   0.673   3.343 -0.7123 -1.0979  0.0961
16129TIP3   OH269801   3.652   0.333  14.234  0.3924 -0.1774  0.0672
16129TIP3    H169802   3.606   0.303  14.312 -1.1801  0.5040 -0.5584
16129TIP3    H269803   3.583   0.357  14.173  1.5365 -1.9963 -2.1008
16130TIP3   OH269804   2.992   3.985  16.408  0.3794  0.1139  0.1999
16130TIP3    H169805   3.071   3.950  16.367  0.1763 -0.7794  0.5494
16130TIP3    H269806   2.961   4.052  16.347 -1.5558 -3.1019 -2.7680
16131TIP3   OH269807   0.626   0.618  13.217  0.5986 -0.1008  0.5307
16131TIP3    H169808   0.641   0.712  13.213  0.7508 -0.0267  2.1805
16131TIP3    H269809   0.708   0.579  13.187  0.5236  0.2867 -0.1801
16132TIP3   OH269810   6.214   4.461  12.578 -0.5753  0.7133  0.0847
16132TIP3    H169811   6.303   4.428  12.589 -0.0374  1.7875 -0.9048
16132TIP3    H269812   6.168   4.392  12.530 -0.0895  0.4476  0.0006
16133TIP3   OH269813   0.334   3.163  15.947 -0.0356 -0.1379  0.4823
16133TIP3    H169814   0.355   3.104  16.019  1.6684 -0.8761 -0.5413
16133TIP3    H269815   0.419   3.186  15.909 -0.7205  2.1619  0.1859
16134TIP3   OH269816   0.640   5.906  14.902 -0.5297  0.4440  0.5784
16134TIP3    H169817   0.555   5.867  14.880 -0.9872  0.7260  1.8072
16134TIP3    H269818   0.642   5.988  14.852 -0.3658 -0.2084 -0.5340
16135TIP3   OH269819   0.237   2.607   1.042  0.4995 -0.0614 -0.8968
16135TIP3    H169820   0.199   2.648   1.119 -0.2534 -2.9841  0.4013
16135TIP3    H269821   0.167   2.613   0.976 -0.6729 -1.5685  0.1324
16136TIP3   OH269822   4.662   5.440   2.847 -0.2151  0.3193 -0.0234
16136TIP3    H169823   4.739   5.416   2.899  1.0580 -0.5596 -2.1609
16136TIP3    H269824   4.698   5.485   2.771 -2.2038  4.4725  1.2281
16137TIP3   OH269825   4.884   4.924  10.976  0.0003 -0.0778 -0.6227
16137TIP3    H169826   4.894   4.970  10.893 -2.0322 -2.2311 -2.1604
16137TIP3    H269827   4.890   4.831  10.954 -0.7892 -0.7242  1.5901
16138TIP3   OH269828   4.012   3.743  13.084  0.0585 -0.2604 -0.1809
16138TIP3    H169829   3.952   3.698  13.144 -1.1580  0.3392 -0.9122
16138TIP3    H269830   4.084   3.681  13.072  0.9865  0.0685  2.8253
16139TIP3   OH269831   3.269   1.748   2.806  0.1724 -0.2322  0.5057
16139TIP3    H169832   3.324   1.729   2.730 -0.5038 -2.1334  0.4195
16139TIP3    H269833   3.287   1.676   2.866  1.0016  1.4508  2.3668
16140TIP3   OH269834   3.703   2.898   4.555 -0.4756  0.3868  0.7483
16140TIP3    H169835   3.784   2.873   4.600  0.5676 -1.0206 -1.6672
16140TIP3    H269836   3.661   2.815   4.535 -0.9171  0.9333 -0.7167
16141TIP3   OH269837   1.421   0.100  14.048 -0.6093 -0.1692 -0.0059
16141TIP3    H169838   1.338   0.055  14.066 -1.0156 -1.2605 -3.7858
16141TIP3    H269839   1.483   0.029  14.030  0.3925  0.7083 -0.0994
16142TIP3   OH269840   6.477   4.048  13.461 -0.2947  0.5372 -0.1105
16142TIP3    H169841   6.433   3.985  13.519 -0.4698  1.2367  0.5281
16142TIP3    H269842   6.445   4.026  13.373  1.2214 -1.6074 -0.2112
16143TIP3   OH269843   6.153   5.765  16.795  0.0865 -0.3411  0.4502
16143TIP3    H169844   6.165   5.826  16.868 -1.1010  0.0231  0.3648
16143TIP3    H269845   6.069   5.723  16.813 -0.8193  0.6238 -1.2985
16144TIP3   OH269846   1.067   6.703  14.619 -0.0374 -0.3152 -0.1840
16144TIP3    H169847   0.977   6.735  14.627  0.1850  1.0393 -2.3136
16144TIP3    H269848   1.106   6.758  14.550  2.1192 -1.5217 -0.0064
16145TIP3   OH269849   4.562   5.323   2.141 -0.0943 -0.2607  0.0639
16145TIP3    H169850   4.546   5.417   2.135  0.3477 -0.1121  1.0891
16145TIP3    H269851   4.531   5.289   2.057  2.5538  1.1913 -1.6562
16146TIP3   OH269852   4.704   3.125  15.962  0.5907 -0.3580  0.1335
16146TIP3    H169853   4.691   3.112  16.056  1.1626 -1.6932  0.0536
16146TIP3    H269854   4.794   3.157  15.954 -0.0933  1.6916  0.1576
16147TIP3   OH269855   1.963   6.772  11.749  0.0874 -0.0613 -0.0440
16147TIP3    H169856   1.992   6.786  11.840  0.8799  1.5346 -0.5013
16147TIP3    H269857   2.037   6.730  11.707  0.8753  1.7725 -0.6038
16148TIP3   OH269858   6.104   4.989  16.939  0.0098 -0.2804 -0.5488
16148TIP3    H169859   6.065   4.977  17.026  0.8398  0.1936 -0.0880
16148TIP3    H269860   6.084   5.079  16.916  0.3887 -0.1860 -0.5247
16149TIP3   OH269861   0.362   3.709   5.353  0.0555 -0.4832  0.0244
16149TIP3    H169862   0.347   3.620   5.383 -0.2873  0.3136  2.4536
16149TIP3    H269863   0.455   3.725   5.371 -0.1914  0.0593  0.8869
16150TIP3   OH269864   3.900   0.396   0.282 -0.8902 -0.2000 -0.0605
16150TIP3    H169865   3.829   0.452   0.315  0.1659  0.5246  1.0551
16150TIP3    H269866   3.951   0.375   0.360  0.2420 -0.5493 -0.8833
16151TIP3   OH269867   5.098   2.095   5.929 -0.6577  0.1540  0.1266
16151TIP3    H169868   5.141   2.139   6.002  0.1104 -1.3470  0.6282
16151TIP3    H269869   5.031   2.040   5.970 -1.6100  0.8294 -0.4822
16152TIP3   OH269870   1.154   3.497   3.939  0.3534  0.2301 -0.1203
16152TIP3    H169871   1.076   3.458   3.898  1.0650 -2.1367  0.5869
16152TIP3    H269872   1.227   3.442   3.908  1.5611  1.5074  0.3648
16153TIP3   OH269873   2.131   2.220   3.719 -0.6000  0.3823  0.7307
16153TIP3    H169874   2.161   2.138   3.681 -0.7161  1.5353 -2.0443
16153TIP3    H269875   2.040   2.229   3.690 -0.7117  1.3383  1.2981
16154TIP3   OH269876   5.822   4.038   1.770 -0.6382  0.1830  0.5048
16154TIP3    H169877   5.892   3.995   1.820  1.4073  1.1681 -1.2931
16154TIP3    H269878   5.828   3.998   1.683 -0.8322  1.7771 -0.2829
16155TIP3   OH269879   2.804   4.774   5.003  0.0934 -0.2975  0.3170
16155TIP3    H169880   2.859   4.700   5.031  0.2497 -0.5473 -0.6106
16155TIP3    H269881   2.775   4.814   5.084  1.9783  0.0952  0.8382
16156TIP3   OH269882   3.667   0.218   3.752 -0.3077 -0.4004  0.4581
16156TIP3    H169883   3.711   0.142   3.788  0.1193  0.2411  1.3365
16156TIP3    H269884   3.738   0.278   3.728 -0.5829 -0.7507 -1.3588
16157TIP3   OH269885   5.791   4.457  14.058 -0.0322 -0.0976 -1.0318
16157TIP3    H169886   5.840   4.440  14.139 -0.7425  1.5500 -0.1904
16157TIP3    H269887   5.767   4.371  14.025  0.5427 -0.8200  0.3542
16158TIP3   OH269888   3.015   2.373  16.147  0.2649  0.0616 -0.4367
16158TIP3    H169889   2.979   2.341  16.230  1.0281  0.8412  0.2133
16158TIP3    H269890   3.016   2.296  16.091 -0.3999 -0.4490  0.2243
16159TIP3   OH269891   6.786   6.702   5.387 -0.2000 -0.2591  0.3275
16159TIP3    H169892   6.795   6.629   5.447  0.1594 -0.1650  0.3877
16159TIP3    H269893   6.744   6.771   5.439 -1.3649 -0.7158  0.0275
16160TIP3   OH269894   3.398   2.884   5.427  0.8182  0.1189  0.5166
16160TIP3    H169895   3.391   2.973   5.461  1.3440 -0.4008  2.0864
16160TIP3    H269896   3.425   2.831   5.503  2.2224 -1.0964 -0.7582
16161TIP3   OH269897   4.339   6.403  16.414  0.4449 -0.0614  0.4014
16161TIP3    H169898   4.405   6.386  16.480  0.9564  1.6889  0.4003
16161TIP3    H269899   4.284   6.325  16.413  4.0089 -2.8779 -1.5071
16162TIP3   OH269900   6.110   2.536  13.462  0.0815 -0.4782 -0.4190
16162TIP3    H169901   6.020   2.570  13.462  0.7726  1.4575 -0.9970
16162TIP3    H269902   6.147   2.565  13.378  0.3292 -3.9730 -1.7006
16163TIP3   OH269903   3.302   5.491   1.946  0.4231 -0.4907  0.4025
16163TIP3    H169904   3.261   5.565   1.901 -0.1525 -1.2861 -0.4038
16163TIP3    H269905   3.396   5.504   1.931  0.3538  0.2201  0.5159
16164TIP3   OH269906   3.682   1.295  14.559 -0.2770 -0.2441  0.1580
16164TIP3    H169907   3.649   1.228  14.619 -0.6037  1.3341  1.8156
16164TIP3    H269908   3.619   1.366  14.564  0.6933  0.7177 -0.6016
16165TIP3   OH269909   0.861   2.675   1.232  0.1337 -0.3352 -0.3345
16165TIP3    H169910   0.860   2.581   1.212  0.5733 -0.5492  0.5944
16165TIP3    H269911   0.953   2.694   1.252 -0.2938 -0.2006  1.6835
16166TIP3   OH269912   3.147   3.247   0.109  0.8783 -0.0495 -0.2120
16166TIP3    H169913   3.085   3.258   0.182  0.6464  0.7227 -0.5122
16166TIP3    H269914   3.233   3.255   0.149  0.7440  1.5803 -0.1739
16167TIP3   OH269915   1.340   2.962   1.077  0.4110  0.3558 -0.4015
16167TIP3    H169916   1.408   2.991   1.138  0.7139  1.7562 -1.3469
16167TIP3    H269917   1.350   3.020   1.001  0.3766 -1.6361 -2.0086
16168TIP3   OH269918   5.327   5.308  14.606  0.7335  0.5473 -0.0092
16168TIP3    H169919   5.246   5.276  14.644  1.8147 -0.3102  1.7302
16168TIP3    H269920   5.315   5.299  14.512 -0.2295 -2.0249  0.2946
16169TIP3   OH269921   5.019   4.584  13.010  0.5335  0.3357 -0.1474
16169TIP3    H169922   4.992   4.649  13.075  0.2355  0.6399 -0.5732
16169TIP3    H269923   5.109   4.607  12.989 -0.0406  1.5643 -1.4284
16170TIP3   OH269924   3.577   1.798  14.992 -0.4049  0.1279 -0.4283
16170TIP3    H169925   3.513   1.862  15.021  0.2168  1.0834 -1.0957
16170TIP3    H269926   3.537   1.757  14.915 -0.9274 -0.5043  0.1754
16171TIP3   OH269927   5.793   0.770   0.139  0.0964 -0.4455  0.1243
16171TIP3    H169928   5.761   0.689   0.098 -2.5047  0.1985  0.7204
16171TIP3    H269929   5.734   0.838   0.107  1.3342  0.9858  0.7960
16172TIP3   OH269930   2.971   3.298   5.745 -0.1837 -0.3482  0.2139
16172TIP3    H169931   2.939   3.388   5.754  0.1331 -0.3429  1.4828
16172TIP3    H269932   2.899   3.252   5.701 -0.5403  0.4212 -0.0350
16173TIP3   OH269933   4.692   0.234   5.435  0.0896 -0.1787  0.3422
16173TIP3    H169934   4.772   0.259   5.482  0.1257 -0.8122  0.6171
16173TIP3    H269935   4.720   0.168   5.373  0.3662  1.8014 -1.7942
16174TIP3   OH269936   0.273   0.856   3.517  0.8648 -0.5655  0.1925
16174TIP3    H169937   0.352   0.802   3.505  1.5249  0.6846 -1.6400
16174TIP3    H269938   0.211   0.822   3.452  0.9800  0.3156 -0.3886
16175TIP3   OH269939   1.081   4.376   0.373  0.1311 -0.3410  0.4587
16175TIP3    H169940   1.020   4.381   0.447  0.7757  1.9279  0.9207
16175TIP3    H269941   1.102   4.283   0.365 -1.2525 -0.8327  2.0525
16176TIP3   OH269942   5.454   0.925  15.860  0.0245  0.2243 -0.4934
16176TIP3    H169943   5.481   0.974  15.782 -0.2876  0.7002 -0.3043
16176TIP3    H269944   5.395   0.984  15.907 -0.4381 -0.3651 -0.3116
16177TIP3   OH269945   4.150   1.436  10.805  1.3201 -0.1708  0.1939
16177TIP3    H169946   4.072   1.432  10.860  1.5742  0.9739  0.6537
16177TIP3    H269947   4.169   1.529  10.797  1.1745 -0.2885 -2.0172
16178TIP3   OH269948   3.156   2.976  12.057 -0.1795 -0.5187  0.1853
16178TIP3    H169949   3.173   2.914  12.128 -0.4685  1.1722  1.8049
16178TIP3    H269950   3.061   2.983  12.053 -0.1426  0.0429  0.2215
16179TIP3   OH269951   0.864   6.048  13.078  0.0780  0.8361  0.2107
16179TIP3    H169952   0.930   6.102  13.121 -0.1457 -0.5242  2.4044
16179TIP3    H269953   0.781   6.081  13.112 -0.1826  0.5646 -0.1623
16180TIP3   OH269954   2.707   1.262  15.507 -0.0890 -0.5385 -0.1991
16180TIP3    H169955   2.723   1.233  15.597 -1.7710 -0.9605 -0.0053
16180TIP3    H269956   2.616   1.236  15.490 -0.3704  1.1270 -1.4049
16181TIP3   OH269957   0.363   3.204   1.916 -0.2844  0.1168  0.5203
16181TIP3    H169958   0.378   3.238   1.828  1.0647  1.1522  1.1125
16181TIP3    H269959   0.316   3.122   1.903 -1.1537  0.8367 -1.0968
16182TIP3   OH269960   3.408   2.740   3.858 -0.1684  0.5138 -0.6781
16182TIP3    H169961   3.332   2.682   3.858  0.4164 -0.2956 -1.6693
16182TIP3    H269962   3.456   2.717   3.938  0.3348 -0.7879 -1.3243
16183TIP3   OH269963   3.411   3.779   5.957  0.0326  0.3293 -0.3020
16183TIP3    H169964   3.495   3.751   5.995  0.0212 -0.4825 -0.8515
16183TIP3    H269965   3.430   3.791   5.864 -0.0776  1.7509 -0.1728
16184TIP3   OH269966   2.060   1.302  15.876  0.0507  0.3869  0.1165
16184TIP3    H169967   2.017   1.231  15.924 -0.5653  0.9121  0.3457
16184TIP3    H269968   2.047   1.279  15.784  0.9237 -0.4335  0.1823
16185TIP3   OH269969   4.227   0.626  14.850 -0.9145  0.1901 -1.0440
16185TIP3    H169970   4.167   0.696  14.874 -1.2106 -0.0707 -1.0185
16185TIP3    H269971   4.260   0.593  14.933 -1.3588 -0.2060 -1.0207
16186TIP3   OH269972   1.125   5.651  13.300 -0.1252 -0.2712  0.2045
16186TIP3    H169973   1.120   5.662  13.205 -1.3737 -0.7825  0.2065
16186TIP3    H269974   1.217   5.626  13.316  0.6615  1.8354 -0.6329
16187TIP3   OH269975   1.137   5.680  12.240 -0.1262  0.2046  0.1721
16187TIP3    H169976   1.226   5.703  12.265 -0.4348  0.5583  0.9610
16187TIP3    H269977   1.145   5.593  12.201  0.8249  0.9961 -1.4870
16188TIP3   OH269978   5.974   4.149   1.063 -0.2549  0.7789  0.6010
16188TIP3    H169979   6.011   4.212   1.001  1.5684 -0.3220  0.5149
16188TIP3    H269980   6.008   4.064   1.035  0.0272  0.1547  2.6538
16189TIP3   OH269981   1.679   5.167   6.014  0.1063 -0.0879  0.0884
16189TIP3    H169982   1.742   5.235   5.990 -0.3125  0.4695  0.5653
16189TIP3    H269983   1.630   5.203   6.087  1.5847 -1.8913  2.1270
16190TIP3   OH269984   1.092   2.569  16.787 -0.2997  0.3035 -0.5887
16190TIP3    H169985   1.187   2.571  16.786 -0.3089  1.5083 -0.5967
16190TIP3    H269986   1.066   2.661  16.782 -1.4805 -0.0639 -1.6805
16191TIP3   OH269987   1.057   4.505  16.287 -0.6554  0.1384  0.2453
16191TIP3    H169988   0.983   4.554  16.251 -0.9126  1.1108  1.9892
16191TIP3    H269989   1.118   4.572  16.319  0.7305 -0.6508 -0.6319
16192TIP3   OH269990   0.697   2.541   2.486  0.1669  0.0588  0.2844
16192TIP3    H169991   0.701   2.562   2.579  0.3337  1.0012  0.0820
16192TIP3    H269992   0.783   2.567   2.452 -0.4489  1.2907 -0.4215
16193TIP3   OH269993   2.724   4.341  15.304  0.1191 -0.9731 -0.6326
16193TIP3    H169994   2.716   4.353  15.398  0.3047 -0.4889 -0.6788
16193TIP3    H269995   2.724   4.430  15.267  0.3849 -1.1439 -1.0597
16194TIP3   OH269996   1.957   3.229   2.853 -0.5722 -0.2842 -0.2874
16194TIP3    H169997   2.036   3.188   2.888 -0.1739  0.8260  0.1455
16194TIP3    H269998   1.900   3.242   2.929 -0.2132  1.0074 -0.2176
16195TIP3   OH269999   6.644   5.278  12.031 -0.1411 -0.2312  0.2449
16195TIP3    H170000   6.692   5.201  12.062  0.1016  0.0283  0.5221
16195TIP3    H270001   6.607   5.252  11.947  1.2265 -0.1550 -0.4112
16196TIP3   OH270002   2.442   1.363   5.740  0.1628  0.0557  0.3052
16196TIP3    H170003   2.445   1.274   5.775 -1.3491 -0.4073 -0.6504
16196TIP3    H270004   2.364   1.401   5.781  0.3147  0.6575  0.0437
16197TIP3   OH270005   4.427   1.732  15.738 -0.3245 -0.2320 -0.4511
16197TIP3    H170006   4.341   1.757  15.704 -0.3322 -0.0958 -0.3345
16197TIP3    H270007   4.413   1.646  15.777 -0.5701  0.0905  0.1869
16198TIP3   OH270008   1.685   4.557   6.000 -0.1441 -0.2688  0.1918
16198TIP3    H170009   1.720   4.550   6.089 -0.3776  1.8278  0.4866
16198TIP3    H270010   1.649   4.645   5.995  1.5094  0.3596 -2.5681
16199TIP3   OH270011   4.983   6.242  16.688  0.4724  0.4972 -0.1369
16199TIP3    H170012   5.043   6.297  16.740  0.4835 -0.6171  1.0721
16199TIP3    H270013   5.021   6.155  16.692  0.4362  0.3607 -2.0150
16200TIP3   OH270014   3.151   6.096   2.388 -0.1837  0.4604  0.9076
16200TIP3    H170015   3.065   6.072   2.352 -0.7858  0.0721  2.4926
16200TIP3    H270016   3.154   6.191   2.381 -0.4936  0.4349  0.3273
16201TIP3   OH270017   6.227   2.781   2.976 -0.0153  0.8067  0.2565
16201TIP3    H170018   6.236   2.697   3.020 -0.5149  0.0608 -1.0093
16201TIP3    H270019   6.133   2.799   2.975 -0.2108 -0.0158 -1.8884
16202TIP3   OH270020   2.785   0.365   1.343  0.3587 -0.7666  0.0122
16202TIP3    H170021   2.804   0.458   1.348 -0.5276 -0.4456 -1.8052
16202TIP3    H270022   2.713   0.358   1.280  0.9890 -2.7411 -0.5726
16203TIP3   OH270023   5.976   0.297   5.267  0.6672  0.3973 -0.2475
16203TIP3    H170024   5.998   0.369   5.208  0.8221  1.2783  0.8581
16203TIP3    H270025   5.970   0.220   5.210 -0.1449  1.3879 -1.5379
16204TIP3   OH270026   4.155   4.777   2.532 -0.5787  0.1181  0.1624
16204TIP3    H170027   4.137   4.691   2.570  0.4275 -0.4119 -0.5162
16204TIP3    H270028   4.172   4.759   2.439  2.1223  0.6779  0.4696
16205TIP3   OH270029   4.627   4.919  14.101 -0.7231  0.1554  0.1126
16205TIP3    H170030   4.672   4.981  14.158 -1.3844  0.2455  0.5406
16205TIP3    H270031   4.539   4.911  14.138 -1.6366  1.2624 -1.6521
16206TIP3   OH270032   3.279   2.957   2.644 -0.2329  0.1677  0.3015
16206TIP3    H170033   3.344   2.961   2.714  0.3309  0.3074 -0.2285
16206TIP3    H270034   3.198   2.935   2.689 -0.0444  1.0363  1.1142
16207TIP3   OH270035   2.760   3.653   5.287 -0.1941 -0.5519  0.0818
16207TIP3    H170036   2.852   3.634   5.272 -0.3922 -0.0637 -2.1304
16207TIP3    H270037   2.758   3.704   5.368  1.3276 -1.5470  0.7798
16208TIP3   OH270038   6.757   5.721   1.280  0.0806 -0.4490  0.0379
16208TIP3    H170039   6.726   5.686   1.197  1.7979  0.2118 -0.9437
16208TIP3    H270040   6.683   5.770   1.315  0.0416  1.3780 -2.3612
16209TIP3   OH270041   0.680   2.737   0.555  0.5798  0.4062  0.5676
16209TIP3    H170042   0.601   2.719   0.607 -0.0611 -1.5827 -0.9903
16209TIP3    H270043   0.663   2.699   0.470  2.8260  0.8836 -0.1778
16210TIP3   OH270044   2.733   5.378   6.226 -0.0831 -0.3263 -0.1733
16210TIP3    H170045   2.765   5.312   6.288 -0.0589 -0.9430 -0.8205
16210TIP3    H270046   2.670   5.330   6.172  0.9593 -0.2093 -1.5606
16211TIP3   OH270047   6.337   4.055   5.681 -0.4299  0.3994  0.0500
16211TIP3    H170048   6.249   4.089   5.697 -0.5387  0.4564 -0.6660
16211TIP3    H270049   6.392   4.100   5.746 -0.9532  0.2330  0.6110
16212TIP3   OH270050   3.469   0.437   1.279  0.2809  0.0327  0.5604
16212TIP3    H170051   3.519   0.362   1.247 -0.7945 -0.4654 -0.0130
16212TIP3    H270052   3.505   0.455   1.365  1.1372 -0.5960  0.3518
16213TIP3   OH270053   2.959   0.554   4.432  0.4191 -1.0099  0.2691
16213TIP3    H170054   3.031   0.497   4.457  1.7758 -0.0858 -1.3737
16213TIP3    H270055   2.895   0.544   4.503  2.1115 -1.8956  1.7442
16214TIP3   OH270056   5.194   4.822  16.576 -0.4788 -0.2497 -0.2276
16214TIP3    H170057   5.185   4.848  16.485 -0.3833 -1.5202 -0.6128
16214TIP3    H270058   5.283   4.846  16.599  0.5174 -2.5559 -1.3836
16215TIP3   OH270059   5.956   6.328  14.537  0.2611 -0.6846 -0.1518
16215TIP3    H170060   5.927   6.351  14.449  1.9775 -1.1429 -0.8832
16215TIP3    H270061   5.883   6.351  14.594 -0.4054  0.7978 -1.5429
16216TIP3   OH270062   0.574   6.428  12.260 -0.0899 -0.2382 -0.5109
16216TIP3    H170063   0.511   6.499  12.273 -0.8253 -1.2551  1.9367
16216TIP3    H270064   0.658   6.473  12.250 -0.4643  1.0179  1.3819
16217TIP3   OH270065   0.372   1.899   5.319 -1.0764 -0.0104 -0.0198
16217TIP3    H170066   0.348   1.813   5.285 -0.3657  0.6294 -2.3382
16217TIP3    H270067   0.295   1.953   5.303 -1.5135 -0.1784  1.4140
16218TIP3   OH270068   2.624   5.016   6.594 -0.1753  0.0742 -0.4959
16218TIP3    H170069   2.695   5.079   6.610 -1.1570  1.0553  0.1488
16218TIP3    H270070   2.652   4.937   6.641  0.1194  0.7210  0.4565
16219TIP3   OH270071   0.532   6.193   1.824 -0.7683  0.1158  0.3047
16219TIP3    H170072   0.456   6.139   1.844  0.7187 -3.3458 -2.4106
16219TIP3    H270073   0.597   6.171   1.891 -0.7610 -0.0614  0.2376
16220TIP3   OH270074   3.318   3.806   0.630  0.4442  0.7644 -0.2795
16220TIP3    H170075   3.363   3.723   0.617 -2.4500 -0.9481 -0.4063
16220TIP3    H270076   3.376   3.872   0.594  2.0568 -1.4232 -1.9113
16221TIP3   OH270077   5.606   2.854  13.167 -0.5387 -0.6107 -0.1397
16221TIP3    H170078   5.521   2.809  13.168 -0.5439 -0.6019  0.2378
16221TIP3    H270079   5.611   2.894  13.254 -0.1323 -0.6404 -0.1508
16222TIP3   OH270080   5.791   2.888  15.190 -0.0095 -0.4995  0.2222
16222TIP3    H170081   5.812   2.801  15.225  0.9928 -0.4409 -0.1947
16222TIP3    H270082   5.856   2.946  15.231 -2.3208  0.5887  2.6647
16223TIP3   OH270083   6.200   3.693  15.288 -0.1087 -0.4665 -0.3833
16223TIP3    H170084   6.169   3.779  15.318  1.3770 -0.0377  0.0028
16223TIP3    H270085   6.203   3.701  15.193 -0.2809 -0.2062 -0.3689
16224TIP3   OH270086   4.977   2.918   4.245 -0.0903  0.1988  0.1798
16224TIP3    H170087   5.007   2.903   4.334  2.6377 -1.0762 -0.8501
16224TIP3    H270088   4.919   2.844   4.227  0.1182 -0.0662  0.5820
16225TIP3   OH270089   0.478   3.706   2.161  0.2149 -0.2929  0.0427
16225TIP3    H170090   0.456   3.618   2.130 -1.7510  0.0375  0.3740
16225TIP3    H270091   0.407   3.761   2.128  1.6080  1.2621 -0.4691
16226TIP3   OH270092   2.715   1.197  16.124 -0.3150 -0.6513 -0.0524
16226TIP3    H170093   2.740   1.107  16.142  0.3381 -0.2890  0.9490
16226TIP3    H270094   2.792   1.235  16.081 -0.2027 -0.3057  0.4440
16227TIP3   OH270095   0.475   4.123   6.210  0.1589 -0.3150 -0.2999
16227TIP3    H170096   0.443   4.209   6.238  0.2637  0.5286 -2.5968
16227TIP3    H270097   0.396   4.070   6.199 -0.0612  0.1220 -0.8494
16228TIP3   OH270098   6.165   2.067   3.087 -0.4909 -0.8955  0.3891
16228TIP3    H170099   6.153   1.991   3.029  0.2928 -0.4153 -0.4243
16228TIP3    H270100   6.088   2.121   3.071 -0.5595 -1.0397  0.2187
16229TIP3   OH270101   0.137   3.994  16.101 -0.0620  0.1595 -0.2693
16229TIP3    H170102   0.198   3.936  16.147  0.3889 -0.0586 -1.1167
16229TIP3    H270103   0.145   3.969  16.009 -1.9474 -0.3375 -0.3436
16230TIP3   OH270104   4.414   4.978  15.816  0.0100 -0.1095  0.1193
16230TIP3    H170105   4.359   5.050  15.784 -0.2817 -0.6308 -0.5869
16230TIP3    H270106   4.498   4.990  15.771  0.2257  0.2456  0.6122
16231TIP3   OH270107   3.728   3.006  13.384 -0.7355 -0.7431 -0.0421
16231TIP3    H170108   3.717   3.042  13.472  2.2808 -0.0300  0.1658
16231TIP3    H270109   3.672   3.060  13.328  0.4633  1.6122  0.8984
16232TIP3   OH270110   2.537   0.137   1.652  0.6764 -0.1376  0.1950
16232TIP3    H170111   2.516   0.079   1.578  2.4195  0.8872 -1.1840
16232TIP3    H270112   2.471   0.117   1.717 -0.3246 -1.8323 -1.2416
16233TIP3   OH270113   2.597   4.843   2.750  0.7842 -0.7684  0.0289
16233TIP3    H170114   2.570   4.855   2.659 -0.1686  0.8680  0.4928
16233TIP3    H270115   2.659   4.770   2.747  0.3902 -1.0752 -1.8499
16234TIP3   OH270116   1.455   5.691  12.043 -0.5245 -0.8287 -0.0733
16234TIP3    H170117   1.455   5.632  12.119 -0.7425  1.4485  1.8328
16234TIP3    H270118   1.370   5.675  12.001 -0.9062 -1.3487  0.8492
16235TIP3   OH270119   6.686   4.985   5.161  0.2508  0.6752  1.0352
16235TIP3    H170120   6.730   4.953   5.240  1.5296 -0.5626 -0.1191
16235TIP3    H270121   6.669   4.906   5.110  1.0147  1.5784 -0.6983
16236TIP3   OH270122   6.789   4.782  14.258  0.1557  0.3204  0.4727
16236TIP3    H170123   6.837   4.854  14.298  0.1524  0.2363  0.6275
16236TIP3    H270124   6.856   4.725  14.221  0.2381 -0.3765  1.6543
16237TIP3   OH270125   5.284   2.561   3.595 -0.1997 -0.6651  0.2036
16237TIP3    H170126   5.188   2.567   3.599 -0.4970 -1.2735 -2.9661
16237TIP3    H270127   5.300   2.484   3.540  2.0105  0.6639 -1.1477
16238TIP3   OH270128   4.059   4.949   4.201 -0.2558 -0.8246 -0.4865
16238TIP3    H170129   4.069   5.043   4.186 -0.1140 -0.9553 -1.2336
16238TIP3    H270130   4.082   4.908   4.117  0.1895 -1.5574 -0.0184
16239TIP3   OH270131   2.408   4.364   2.444  0.0907 -0.0515  0.5737
16239TIP3    H170132   2.356   4.440   2.469  1.5713  0.9963  0.5659
16239TIP3    H270133   2.390   4.351   2.351  0.8142  1.1171  0.2497
16240TIP3   OH270134   3.727   3.079  15.395  0.0521 -0.3206 -0.7288
16240TIP3    H170135   3.695   3.166  15.416 -0.5389 -1.0948  1.9936
16240TIP3    H270136   3.822   3.090  15.382  0.7427  0.2739  3.5439
16241TIP3   OH270137   0.650   2.558  16.603  0.5720  0.0744  0.0165
16241TIP3    H170138   0.668   2.598  16.518 -0.1389 -1.7991 -1.0615
16241TIP3    H270139   0.711   2.484  16.608 -0.6783 -0.9707  0.2685
16242TIP3   OH270140   4.330   3.542  11.745  0.4337 -0.3320 -0.4160
16242TIP3    H170141   4.395   3.528  11.814 -0.3705 -0.2221  0.3925
16242TIP3    H270142   4.332   3.463  11.692  1.1134 -0.3867 -0.3095
16243TIP3   OH270143   3.367   3.794  17.180  0.2328  0.0063 -0.3498
16243TIP3    H170144   3.441   3.754  17.133  0.2552  0.1245 -0.4157
16243TIP3    H270145   3.293   3.781  17.121  0.1847 -0.1827 -0.2500
16244TIP3   OH270146   4.819   5.611   0.057  0.5794 -0.9024 -1.0856
16244TIP3    H170147   4.867   5.679   0.104 -1.3725 -0.2004 -0.0153
16244TIP3    H270148   4.888   5.554   0.022  2.1857 -0.0355  0.4699
16245TIP3   OH270149   3.806   6.653   6.079  0.2877 -0.8836 -0.4433
16245TIP3    H170150   3.815   6.630   6.171 -1.0448 -1.1600 -0.3517
16245TIP3    H270151   3.776   6.744   6.080  1.2689 -0.5553 -0.6443
16246TIP3   OH270152   4.005   6.505   2.065 -0.3269  0.4600 -0.2440
16246TIP3    H170153   3.955   6.580   2.036 -1.1209  0.5399  1.2450
16246TIP3    H270154   4.013   6.449   1.987 -2.1472  0.7574 -0.6795
16247TIP3   OH270155   0.971   3.062   5.726  0.3193 -0.2817 -0.6508
16247TIP3    H170156   0.960   3.039   5.819 -0.6680 -0.0684 -0.7137
16247TIP3    H270157   1.063   3.040   5.708  0.8510  0.6792  0.6595
16248TIP3   OH270158   6.783   3.099   1.396 -0.4899  0.1257 -0.0416
16248TIP3    H170159   6.833   3.120   1.318  1.0294 -0.0123  0.8591
16248TIP3    H270160   6.784   3.004   1.401 -2.2926  0.0234 -0.8981
16249TIP3   OH270161   3.366   4.901  14.780  1.0596  0.5702  0.3230
16249TIP3    H170162   3.428   4.842  14.736 -0.4014 -1.4576  0.8557
16249TIP3    H270163   3.366   4.871  14.871 -0.8573  0.3717  0.2805
16250TIP3   OH270164   2.574   0.844  14.283  0.1902  0.0218 -0.4329
16250TIP3    H170165   2.623   0.859  14.364 -2.7724  2.5063  1.1350
16250TIP3    H270166   2.592   0.922  14.230 -0.1205 -0.2305 -0.9124
16251TIP3   OH270167   5.504   1.706  15.781 -0.2211 -0.3882 -0.1958
16251TIP3    H170168   5.504   1.802  15.786 -0.0859 -0.3410 -1.0111
16251TIP3    H270169   5.594   1.681  15.801 -0.0330 -0.2873 -0.8938
16252TIP3   OH270170   5.142   1.397  12.345  0.1713  0.0882  0.7247
16252TIP3    H170171   5.110   1.487  12.352  0.6699  0.3714 -0.4287
16252TIP3    H270172   5.078   1.345  12.393 -0.2165  1.0287  1.2615
16253TIP3   OH270173   4.716   4.874  11.192 -0.3855  0.0327  0.1486
16253TIP3    H170174   4.639   4.931  11.193 -0.0445  0.5332  2.0944
16253TIP3    H270175   4.766   4.903  11.116 -0.9021  1.4036  0.3063
16254TIP3   OH270176   6.295   2.833  15.010  0.6705  0.1081  0.1638
16254TIP3    H170177   6.236   2.811  15.082 -0.8817  1.5889 -0.5872
16254TIP3    H270178   6.241   2.828  14.932  1.4705  1.7025 -0.5404
16255TIP3   OH270179   6.256   5.858  16.537 -0.3149  0.1148  0.2724
16255TIP3    H170180   6.259   5.838  16.631 -0.1476  0.3523  0.3182
16255TIP3    H270181   6.208   5.784  16.499  1.4784 -1.0990  0.2354
16256TIP3   OH270182   1.282   1.751   0.819  0.0339  0.1254 -0.5304
16256TIP3    H170183   1.217   1.747   0.749  0.6802 -2.0871 -1.0936
16256TIP3    H270184   1.231   1.764   0.899 -0.9933 -0.3759 -1.0915
16257TIP3   OH270185   0.718   4.150  16.235 -0.0620  0.3429  0.5383
16257TIP3    H170186   0.772   4.179  16.162 -1.2837 -0.2438 -0.6579
16257TIP3    H270187   0.738   4.210  16.306  1.9229  0.3140  0.0675
16258TIP3   OH270188   5.874   1.132   0.957  1.0041  0.9006 -0.0891
16258TIP3    H170189   5.902   1.107   1.046  0.5692  0.4672 -0.0727
16258TIP3    H270190   5.953   1.168   0.917  1.9021 -1.2167 -0.3753
16259TIP3   OH270191   1.815   2.652  13.791 -0.0931  0.4485 -0.3562
16259TIP3    H170192   1.762   2.611  13.860 -1.4330  0.8281 -1.1163
16259TIP3    H270193   1.853   2.579  13.743  0.7846  0.1759  0.6972
16260TIP3   OH270194   4.746   3.373   0.153 -0.6119 -0.2982 -0.5278
16260TIP3    H170195   4.722   3.447   0.097  0.0646  0.0888 -0.3163
16260TIP3    H270196   4.667   3.357   0.205 -1.5760 -1.2583 -2.1932
16261TIP3   OH270197   0.790   3.057   1.845  0.2094  0.0281 -0.6703
16261TIP3    H170198   0.730   3.054   1.920  1.4438 -3.0631  0.3497
16261TIP3    H270199   0.750   2.999   1.780  0.6665  0.2657 -1.1694
16262TIP3   OH270200   4.759   3.978  15.388  0.0006  0.6831  0.3137
16262TIP3    H170201   4.803   4.039  15.328  1.6439  0.6831  1.4318
16262TIP3    H270202   4.692   3.936  15.335  1.0655  1.0316 -1.3859
16263TIP3   OH270203   3.746   5.326   2.488 -0.0782  0.2016  0.5166
16263TIP3    H170204   3.735   5.410   2.443 -1.2387 -0.5138 -0.5807
16263TIP3    H270205   3.758   5.351   2.580  0.5190  1.6028  0.0927
16264TIP3   OH270206   1.256   3.943  14.263  0.3777  0.0475 -0.2851
16264TIP3    H170207   1.279   4.006  14.332  0.2524 -1.0155  0.7605
16264TIP3    H270208   1.305   3.864  14.285  1.2900  0.0522 -2.1251
16265TIP3   OH270209   0.468   4.282  11.590  0.5453  0.3367  0.2846
16265TIP3    H170210   0.381   4.251  11.562  0.9064  0.1662 -0.7037
16265TIP3    H270211   0.493   4.224  11.662  0.6857 -0.9135 -0.7342
16266TIP3   OH270212   4.606   5.245   3.501 -0.4258 -0.4277  0.0604
16266TIP3    H170213   4.672   5.238   3.432 -1.3317 -1.3465 -0.7531
16266TIP3    H270214   4.650   5.214   3.580  0.9049  1.4840  0.1377
16267TIP3   OH270215   0.310   4.621  13.285 -0.3476  0.2389  0.1907
16267TIP3    H170216   0.401   4.650  13.287 -0.1873 -0.2883  0.9944
16267TIP3    H270217   0.269   4.668  13.358 -0.2488 -0.9837  1.0630
16268TIP3   OH270218   2.236   3.912  11.455 -0.3490  0.6761  0.5480
16268TIP3    H170219   2.253   3.986  11.396 -5.4413  1.4096 -0.5044
16268TIP3    H270220   2.231   3.836  11.396 -1.9268  0.8117  0.4465
16269TIP3   OH270221   5.988   3.252  10.635  1.0506  0.6962  0.2590
16269TIP3    H170222   6.057   3.298  10.588 -0.7647  0.9501 -2.3889
16269TIP3    H270223   5.953   3.190  10.571 -0.4195 -0.2173  1.8696
16270TIP3   OH270224   2.057   0.709  16.748  0.0745  0.0430  0.2069
16270TIP3    H170225   2.033   0.642  16.685 -0.5020  0.5308 -0.0977
16270TIP3    H270226   2.130   0.670  16.797 -0.7663 -1.1266  0.5793
16271TIP3   OH270227   5.153   1.382  13.121 -0.3491  0.0992  0.4144
16271TIP3    H170228   5.167   1.394  13.027 -0.5778 -0.1309  0.3519
16271TIP3    H270229   5.090   1.450  13.145  1.3690  1.6067  0.8352
16272TIP3   OH270230   0.390   3.884  11.568  0.2568  0.1332 -0.2391
16272TIP3    H170231   0.316   3.906  11.510  0.0686  0.3136  0.0643
16272TIP3    H270232   0.465   3.928  11.528  0.0736  0.4909 -0.1968
16273TIP3   OH270233   4.240   3.682   3.352 -0.1659  0.1336 -0.1160
16273TIP3    H170234   4.180   3.619   3.393  1.3312 -0.2705  1.6018
16273TIP3    H270235   4.324   3.636   3.350  0.2554  0.9202 -1.8647
16274TIP3   OH270236   2.117   4.649   1.910  0.0124  0.3550  0.1659
16274TIP3    H170237   2.044   4.704   1.939  0.8297  1.0960  0.8901
16274TIP3    H270238   2.103   4.566   1.956  0.0339  0.7559  0.9227
16275TIP3   OH270239   4.344   2.382  12.073  0.4689 -0.4818  0.7221
16275TIP3    H170240   4.359   2.290  12.050  0.9805 -0.9152  2.6087
16275TIP3    H270241   4.429   2.413  12.103  0.7775  1.2057 -1.5562
16276TIP3   OH270242   6.590   3.051   0.817  0.5863  0.0511  0.2592
16276TIP3    H170243   6.658   3.118   0.822  0.2665  0.5542 -1.3767
16276TIP3    H270244   6.621   2.990   0.750 -0.5032  0.2454 -0.4542
16277TIP3   OH270245   4.373   5.702  15.631  0.4496  0.4705  0.1991
16277TIP3    H170246   4.359   5.769  15.565 -2.1418  1.6623  1.7923
16277TIP3    H270247   4.286   5.667  15.649  1.6568 -3.2282 -0.3523
16278TIP3   OH270248   3.579   2.758   0.375 -0.4007 -0.0439 -0.4198
16278TIP3    H170249   3.488   2.781   0.358 -0.2354  0.8259 -0.1777
16278TIP3    H270250   3.624   2.842   0.382  0.8897 -0.4308 -2.9494
16279TIP3   OH270251   4.570   4.857  15.594 -1.0696 -0.2393 -0.2041
16279TIP3    H170252   4.640   4.908  15.635 -0.9749  0.2250 -0.9102
16279TIP3    H270253   4.596   4.766  15.604  0.0151 -0.0523 -1.0759
16280TIP3   OH270254   2.589   5.852   2.529  0.2920 -0.5281 -0.5963
16280TIP3    H170255   2.538   5.864   2.609  1.6296 -1.8861  0.5316
16280TIP3    H270256   2.524   5.839   2.460 -0.8829 -0.4194  0.4611
16281TIP3   OH270257   3.704   5.584  13.539  0.0077 -0.0721  0.0801
16281TIP3    H170258   3.642   5.521  13.578 -1.4765  1.4515  0.3004
16281TIP3    H270259   3.659   5.616  13.461  1.1035  0.1273 -0.4855
16282TIP3   OH270260   2.856   4.341   5.797  0.3315 -0.2971 -0.0956
16282TIP3    H170261   2.915   4.398   5.748  0.3126  0.3096  0.5851
16282TIP3    H270262   2.905   4.317   5.875  0.5720 -1.7120 -0.6457
16283TIP3   OH270263   6.622   0.430  13.576  0.1287 -0.1175  0.5638
16283TIP3    H170264   6.697   0.388  13.620  0.3945  0.4815  0.6938
16283TIP3    H270265   6.606   0.376  13.499  1.3746  0.3325 -0.0345
16284TIP3   OH270266   0.922   4.154  12.608 -0.7220 -0.3817  0.1906
16284TIP3    H170267   0.928   4.247  12.630 -0.7302 -0.3333 -0.0112
16284TIP3    H270268   0.948   4.150  12.516 -0.3329 -0.6296  0.3110
16285TIP3   OH270269   3.137   5.508  13.051  0.1251 -0.4591  0.9468
16285TIP3    H170270   3.061   5.450  13.045  0.3555 -0.7343  0.6841
16285TIP3    H270271   3.204   5.456  13.094 -0.3540  0.3267  2.7318
16286TIP3   OH270272   0.836   6.653   2.741 -0.1714 -0.0324 -0.5557
16286TIP3    H170273   0.753   6.702   2.743  0.1152  0.4397  0.4537
16286TIP3    H270274   0.818   6.574   2.791 -0.2009 -0.2565 -0.9163
16287TIP3   OH270275   1.446   6.080  16.095  0.8861 -0.2866  0.1320
16287TIP3    H170276   1.352   6.096  16.082  1.1106  3.2482  1.5278
16287TIP3    H270277   1.474   6.037  16.014 -1.9238 -1.6537 -0.2518
16288TIP3   OH270278   6.488   4.010  11.715  0.3599  0.7601 -0.4387
16288TIP3    H170279   6.461   4.062  11.639 -0.6037 -0.4438 -0.9584
16288TIP3    H270280   6.443   3.926  11.703 -0.4628  0.8069  1.8760
16289TIP3   OH270281   2.745   2.973   5.834 -0.7144 -0.4722 -0.2808
16289TIP3    H170282   2.726   3.036   5.765  0.5804 -0.4071 -0.5945
16289TIP3    H270283   2.709   2.891   5.802  0.9611 -0.7260 -1.6357
16290TIP3   OH270284   0.247   0.930  11.226  1.2145 -0.2706 -0.6433
16290TIP3    H170285   0.337   0.948  11.252  0.9728  0.4690 -0.2997
16290TIP3    H270286   0.254   0.895  11.137  1.8920 -0.9412 -0.3400
16291TIP3   OH270287   6.013   0.314   0.019 -0.0189 -0.2703 -0.1976
16291TIP3    H170288   6.064   0.249  -0.028 -0.9072  0.5616 -2.4350
16291TIP3    H270289   6.051   0.316   0.107  0.5168 -3.2166 -0.2642
16292TIP3   OH270290   2.696   2.045  13.257 -0.5168 -0.0575 -0.3266
16292TIP3    H170291   2.705   2.042  13.352 -2.1755  0.7447 -0.1137
16292TIP3    H270292   2.606   2.072  13.242 -0.4379 -0.6490 -2.1428
16293TIP3   OH270293   0.616   4.152   1.543 -0.1212  0.1189  0.0843
16293TIP3    H170294   0.615   4.248   1.541 -0.7717  0.1479  1.2719
16293TIP3    H270295   0.563   4.127   1.467  1.7480  0.6438 -1.4749
16294TIP3   OH270296   0.048   0.138  13.575  0.0117 -0.0794  0.0480
16294TIP3    H170297   0.022   0.175  13.490 -0.7475  0.0698  0.3407
16294TIP3    H270298   0.133   0.097  13.558 -0.6002 -0.9616 -1.0485
16295TIP3   OH270299   4.954   3.996  13.710 -0.7662  0.1365 -0.5236
16295TIP3    H170300   5.026   3.933  13.708  1.0250  2.0528  0.2877
16295TIP3    H270301   4.935   4.014  13.618 -0.5496 -0.7442 -0.7499
16296TIP3   OH270302   6.276   2.552   3.101 -0.5165 -0.1941  0.0325
16296TIP3    H170303   6.253   2.501   3.179 -0.0327 -1.5916 -0.7004
16296TIP3    H270304   6.364   2.523   3.078  0.2612  1.8641  0.2438
16297TIP3   OH270305   1.694   5.422   2.045 -0.2341  0.0297 -0.4103
16297TIP3    H170306   1.613   5.473   2.048 -1.0418 -1.2498  0.4134
16297TIP3    H270307   1.677   5.346   2.101  1.7955  0.0964  0.3826
16298TIP3   OH270308   1.023   0.902   3.785 -0.2099  0.0053 -0.0049
16298TIP3    H170309   0.963   0.968   3.819 -1.3451 -0.5117 -0.9230
16298TIP3    H270310   0.981   0.869   3.705  1.2230 -0.4954 -0.6025
16299TIP3   OH270311   1.488   5.111   0.203  0.3280 -0.6962  0.0068
16299TIP3    H170312   1.423   5.143   0.266  1.3078 -0.0089  0.6959
16299TIP3    H270313   1.465   5.019   0.190 -0.6323 -0.5304  0.4264
16300TIP3   OH270314   5.127   1.033   5.549 -0.1999 -0.4008 -0.2933
16300TIP3    H170315   5.121   1.124   5.576  2.1778 -0.2292 -0.1429
16300TIP3    H270316   5.110   0.983   5.629  0.2967 -0.0375  0.0466
16301TIP3   OH270317   5.631   5.058  14.325 -0.0009  0.2812 -0.5928
16301TIP3    H170318   5.561   5.123  14.331 -2.5592 -2.3685  0.6559
16301TIP3    H270319   5.635   5.035  14.233 -0.8577  0.4314 -0.6816
16302TIP3   OH270320   4.106   2.547  15.934 -0.4654  0.2958  0.3715
16302TIP3    H170321   4.130   2.640  15.939 -0.7395  0.3137  1.8446
16302TIP3    H270322   4.190   2.501  15.930 -0.3289  0.6080 -1.3051
16303TIP3   OH270323   0.151   0.985   4.440  0.5770  0.0499  0.3471
16303TIP3    H170324   0.245   1.004   4.440  0.4188  0.9825 -0.7623
16303TIP3    H270325   0.128   0.976   4.348 -0.4823  0.1404  0.5847
16304TIP3   OH270326   1.767   3.207   3.081 -0.0993  0.4875  0.2486
16304TIP3    H170327   1.682   3.230   3.120 -0.4757  0.2451 -0.3983
16304TIP3    H270328   1.795   3.129   3.127 -1.5486 -1.0545 -1.3116
16305TIP3   OH270329   1.311   5.667  17.001 -0.1154  0.0637  0.3267
16305TIP3    H170330   1.271   5.629  16.922 -0.6453  0.5279  0.3641
16305TIP3    H270331   1.301   5.599  17.067 -1.8700  0.5673  0.6345
16306TIP3   OH270332   0.214   4.720  11.597 -0.0734  0.6179 -0.2847
16306TIP3    H170333   0.158   4.787  11.559 -0.0628  0.4644 -0.5740
16306TIP3    H270334   0.285   4.709  11.533 -0.6692 -0.4679 -0.7914
16307TIP3   OH270335   4.109   1.193  13.158 -0.4660 -0.1534 -0.3428
16307TIP3    H170336   4.074   1.134  13.224  0.3769 -0.1857  0.0921
16307TIP3    H270337   4.200   1.166  13.148  0.5231  2.2211  1.2202
16308TIP3   OH270338   4.704   6.620  12.851 -0.3023  0.2467  0.1415
16308TIP3    H170339   4.760   6.664  12.915 -0.0730  1.2502 -0.7222
16308TIP3    H270340   4.651   6.690  12.813  0.6168 -0.0480 -1.8242
16309TIP3   OH270341   2.462   3.973  11.594  0.2790 -0.3439 -0.0704
16309TIP3    H170342   2.389   3.956  11.535 -0.6095  1.1842  0.5263
16309TIP3    H270343   2.508   4.047  11.555  2.0935 -1.8196 -0.9015
16310TIP3   OH270344   6.710   5.439   2.423  0.1885  0.1992  0.0045
16310TIP3    H170345   6.667   5.388   2.492 -0.1431 -0.1260 -0.4346
16310TIP3    H270346   6.799   5.455   2.456  0.1431 -0.2529  0.3488
16311TIP3   OH270347   5.812   2.621  16.720 -0.0518 -0.3901  0.0359
16311TIP3    H170348   5.719   2.626  16.743  0.0799 -1.9556  1.0587
16311TIP3    H270349   5.857   2.668  16.790 -0.0347  0.0181 -0.2454
16312TIP3   OH270350   2.716   4.825   0.470 -0.0037  0.4155  0.4435
16312TIP3    H170351   2.692   4.742   0.510 -1.5389  0.1122 -1.0085
16312TIP3    H270352   2.703   4.890   0.539 -1.6743 -0.2031  0.7512
16313TIP3   OH270353   3.511   3.499   2.710  0.3173 -0.3148  0.7358
16313TIP3    H170354   3.453   3.506   2.633  1.5435  0.9088 -0.1177
16313TIP3    H270355   3.501   3.408   2.738 -0.3253 -0.7442 -0.7493
16314TIP3   OH270356   4.130   6.273  14.925  0.2434 -0.2725  0.2406
16314TIP3    H170357   4.119   6.261  14.831 -0.2997  1.1801  0.0878
16314TIP3    H270358   4.163   6.362  14.934 -2.8298  0.8593  1.5521
16315TIP3   OH270359   4.572   6.202  13.681  0.8394  0.3788 -0.0713
16315TIP3    H170360   4.553   6.292  13.709 -1.0653 -0.5860  1.9474
16315TIP3    H270361   4.609   6.213  13.593 -0.6014  3.0532 -0.4651
16316TIP3   OH270362   2.006   2.844   0.216 -0.0200 -0.1601  0.1041
16316TIP3    H170363   1.966   2.928   0.194  2.5417  1.6786  1.8220
16316TIP3    H270364   2.063   2.824   0.142 -0.9148 -0.6410 -0.4769
16317TIP3   OH270365   5.992   5.507  11.833 -0.4134 -0.2098  0.2601
16317TIP3    H170366   5.913   5.510  11.886  0.0805  0.1371  0.9878
16317TIP3    H270367   5.976   5.570  11.763 -0.3378  0.7053  1.0470
16318TIP3   OH270368   3.728   3.714  15.959  0.0687  0.0312  0.3845
16318TIP3    H170369   3.717   3.625  15.925  3.1136 -1.7762  3.4563
16318TIP3    H270370   3.729   3.770  15.882  0.1126 -2.8542 -1.8648
16319TIP3   OH270371   3.806   1.316   3.362 -0.1658 -0.4129  0.3609
16319TIP3    H170372   3.774   1.347   3.447  1.5792  0.2380  0.8287
16319TIP3    H270373   3.828   1.224   3.377 -2.1779 -1.0086 -0.1003
16320TIP3   OH270374   3.817   2.314  14.281 -0.2476  0.4766  0.7557
16320TIP3    H170375   3.762   2.236  14.278  2.1762 -1.3086 -0.4118
16320TIP3    H270376   3.802   2.357  14.197 -0.4961  0.4885  0.8036
16321TIP3   OH270377   3.424   5.376  11.872  0.1795 -0.3709  0.7184
16321TIP3    H170378   3.413   5.413  11.784 -1.4479  0.4626  1.2490
16321TIP3    H270379   3.473   5.443  11.920 -0.4935 -0.0344  0.9430
16322TIP3   OH270380   4.701   3.326   4.213  0.0609 -0.1765 -1.0561
16322TIP3    H170381   4.644   3.385   4.263 -0.9575  0.4944 -2.8756
16322TIP3    H270382   4.782   3.323   4.263 -1.2923 -0.5860  1.2791
16323TIP3   OH270383   6.035   3.848  13.690  0.2557  0.5838  0.2072
16323TIP3    H170384   5.946   3.845  13.724  0.8001  1.4197  1.8088
16323TIP3    H270385   6.085   3.793  13.750  0.9559  0.7063 -0.2539
16324TIP3   OH270386   4.360   5.416  15.511 -0.2905 -0.3090 -0.6954
16324TIP3    H170387   4.291   5.369  15.465 -0.1055 -1.3577  0.0546
16324TIP3    H270388   4.314   5.488  15.555 -1.2991 -2.0584  1.3198
16325TIP3   OH270389   6.108   3.887  12.455 -0.2995 -0.2835  0.3340
16325TIP3    H170390   6.036   3.935  12.415 -1.8712  0.4138  3.6901
16325TIP3    H270391   6.114   3.922  12.544  4.3993 -0.1469  0.1975
16326TIP3   OH270392   0.639   0.909  14.466  0.5865  0.0845 -0.5406
16326TIP3    H170393   0.600   0.986  14.425 -0.2922 -0.1919 -0.2367
16326TIP3    H270394   0.577   0.838  14.448  1.3831 -0.5603 -0.8250
16327TIP3   OH270395   2.771   5.882   4.422 -0.3215 -0.0898  0.3895
16327TIP3    H170396   2.838   5.817   4.444 -1.2759 -1.7380 -1.2636
16327TIP3    H270397   2.803   5.923   4.341 -1.4170 -1.1614 -0.6271
16328TIP3   OH270398   3.435   2.066   0.448 -0.1343 -0.6543  0.1879
16328TIP3    H170399   3.499   2.134   0.470 -1.4887  1.1009 -1.0631
16328TIP3    H270400   3.460   2.036   0.361 -0.8604 -0.1366 -0.2039
16329TIP3   OH270401   4.106   5.249   1.584  0.0746 -0.3765  1.1403
16329TIP3    H170402   4.104   5.159   1.552 -2.6751  0.1164 -0.4010
16329TIP3    H270403   4.158   5.297   1.519  0.5074 -0.6462  1.2902
16330TIP3   OH270404   4.705   3.372  14.515  0.0147  0.1699 -0.2942
16330TIP3    H170405   4.739   3.315  14.583  1.1571  1.2556  0.0859
16330TIP3    H270406   4.732   3.331  14.433  1.6200  0.6122 -0.0121
16331TIP3   OH270407   3.464   3.154  14.388 -0.7268  0.3471  0.1911
16331TIP3    H170408   3.406   3.210  14.337 -1.3071 -0.9213 -0.5757
16331TIP3    H270409   3.464   3.193  14.476 -0.1962  2.1926 -0.5938
16332TIP3   OH270410   2.485   1.507  13.514  0.1193  0.5076 -0.2084
16332TIP3    H170411   2.554   1.485  13.576  0.1507  0.2779 -0.3262
16332TIP3    H270412   2.489   1.439  13.447  0.5604  1.1427 -0.8572
16333TIP3   OH270413   5.891   4.543  12.379 -0.0125 -0.3424  0.6557
16333TIP3    H170414   5.940   4.595  12.315 -2.3171  0.4167 -0.6006
16333TIP3    H270415   5.847   4.476  12.327 -0.5277 -0.8379  1.6947
16334TIP3   OH270416   5.521   4.995   2.632 -0.1325 -0.1558 -0.3976
16334TIP3    H170417   5.515   5.087   2.605  1.1315  0.0096 -0.1619
16334TIP3    H270418   5.510   4.945   2.551 -0.3570  0.2160 -0.5960
16335TIP3   OH270419   1.108   3.748   5.161 -0.1112  0.1671  0.0069
16335TIP3    H170420   1.176   3.732   5.226  1.0022  0.9655 -0.9050
16335TIP3    H270421   1.098   3.843   5.160  0.9960  0.3104 -2.0159
16336TIP3   OH270422   6.448   2.080   5.655 -0.3581  0.3002  0.4915
16336TIP3    H170423   6.512   2.064   5.724  0.2144  0.2200 -0.0587
16336TIP3    H270424   6.417   2.169   5.671  0.6007  0.7002  0.1893
16337TIP3   OH270425   3.779   2.972   0.332  0.0583  0.2921 -0.5912
16337TIP3    H170426   3.761   3.064   0.314 -0.5413  0.0395 -1.3391
16337TIP3    H270427   3.832   2.943   0.257  0.1017 -0.0132 -0.4434
16338TIP3   OH270428   3.536   2.314  14.977 -0.1818 -0.2782  0.3866
16338TIP3    H170429   3.528   2.301  14.882  1.0352 -1.3859  0.4021
16338TIP3    H270430   3.513   2.229  15.014  0.8721 -0.3246  0.9757
16339TIP3   OH270431   1.564   1.439   4.018 -0.1390  1.0728  0.0138
16339TIP3    H170432   1.633   1.451   4.084  1.0049  0.1698 -0.9640
16339TIP3    H270433   1.611   1.408   3.940 -1.9237 -2.2820  0.1047
16340TIP3   OH270434   6.710   3.545  15.760 -0.1106 -0.6845  0.1329
16340TIP3    H170435   6.755   3.616  15.716 -0.4990 -0.8960 -0.6155
16340TIP3    H270436   6.772   3.515  15.827  0.5378 -0.4647 -0.3633
16341TIP3   OH270437   5.685   0.631   1.902  0.0333 -0.2840 -0.2664
16341TIP3    H170438   5.732   0.641   1.985  1.0597  1.3628 -0.9918
16341TIP3    H270439   5.753   0.612   1.837 -0.2132  2.1474 -1.3401
16342TIP3   OH270440   1.451   1.467  13.767  0.1144  0.3177 -0.6531
16342TIP3    H170441   1.427   1.405  13.836 -0.9875  1.5778  0.1682
16342TIP3    H270442   1.483   1.544  13.814  2.9127 -0.1140 -1.6803
16343TIP3   OH270443   4.455   0.074   5.947  0.2225 -0.0834 -0.1931
16343TIP3    H170444   4.529   0.055   6.006 -0.2564 -0.7380  0.2102
16343TIP3    H270445   4.399   0.133   5.997  2.0363  3.1644 -1.6850
16344TIP3   OH270446   4.432   0.443   1.998 -0.3518  0.3899  0.0448
16344TIP3    H170447   4.438   0.348   2.010 -0.6082  0.3121 -0.4087
16344TIP3    H270448   4.361   0.454   1.935  1.2216  0.7441 -1.7669
16345TIP3   OH270449   0.849   4.029   5.273  0.5681  0.2772 -0.3596
16345TIP3    H170450   0.828   3.936   5.276  0.0021  0.2872 -2.6442
16345TIP3    H270451   0.942   4.032   5.249  1.1384  0.3342  1.6534
16346TIP3   OH270452   4.898   2.141  12.734  0.2123  0.4571  0.4681
16346TIP3    H170453   4.973   2.183  12.693 -0.7717  2.5438  0.6752
16346TIP3    H270454   4.935   2.089  12.805  1.7827 -1.7628 -1.7947
16347TIP3   OH270455   6.600   3.541  14.551  0.5575 -0.1205  0.6332
16347TIP3    H170456   6.560   3.600  14.615 -4.6111  1.8776 -3.6911
16347TIP3    H270457   6.666   3.595  14.507 -0.1543  0.5264  0.3519
16348TIP3   OH270458   3.859   4.318   0.111 -0.1344 -0.4883  0.1749
16348TIP3    H170459   3.786   4.288   0.056  1.9554 -2.0275 -1.9731
16348TIP3    H270460   3.893   4.394   0.065  1.3086 -1.4731 -0.4547
16349TIP3   OH270461   3.136   4.130   2.839  0.5227  0.1981  0.6865
16349TIP3    H170462   3.075   4.056   2.845 -0.5543  0.8118 -1.5079
16349TIP3    H270463   3.111   4.175   2.758  1.8336  2.3602  1.3898
16350TIP3   OH270464   0.642   4.659  12.342  0.2421 -0.2136  0.4936
16350TIP3    H170465   0.638   4.716  12.419 -1.0107  0.5286 -0.0946
16350TIP3    H270466   0.554   4.623  12.334  1.0706 -2.5591  1.0485
16351TIP3   OH270467   4.780   0.378  14.535 -0.6092 -0.1928  0.7181
16351TIP3    H170468   4.775   0.308  14.469 -4.5620  0.7077 -0.2257
16351TIP3    H270469   4.708   0.358  14.595 -0.5720  2.0010  1.5608
16352TIP3   OH270470   5.040   1.953  16.655 -0.5436  0.8810  0.3456
16352TIP3    H170471   5.046   1.898  16.733 -0.7330  0.3923  0.0209
16352TIP3    H270472   4.979   1.906  16.598 -0.9519  1.5895  0.1913
16353TIP3   OH270473   4.751   3.182   0.745  0.1271 -0.1113  0.3040
16353TIP3    H170474   4.775   3.274   0.744  1.4060 -0.4135 -1.3017
16353TIP3    H270475   4.801   3.145   0.819  0.2395  0.3168  0.4431
16354TIP3   OH270476   6.131   2.015   0.247  0.0252  0.1577 -0.0584
16354TIP3    H170477   6.175   2.064   0.316 -1.4617  0.5579  0.6482
16354TIP3    H270478   6.195   1.949   0.220  0.6765  0.0133  1.6821
16355TIP3   OH270479   3.080   0.283   0.525  0.0682 -0.2921 -0.1589
16355TIP3    H170480   3.024   0.235   0.464  0.7183  0.2533 -1.2209
16355TIP3    H270481   3.147   0.219   0.551 -0.1458 -0.4985 -0.1169
16356TIP3   OH270482   5.401   0.495  10.827  0.3673  0.5162  0.0903
16356TIP3    H170483   5.382   0.417  10.775 -0.1447  0.9180 -0.3457
16356TIP3    H270484   5.318   0.543  10.828  0.5392  0.8044  0.7807
16357TIP3   OH270485   6.615   2.387  11.557 -0.4296  0.6715  0.3906
16357TIP3    H170486   6.674   2.425  11.623  0.5274 -0.7774  0.4097
16357TIP3    H270487   6.580   2.463  11.511  2.2945  1.6025 -0.3280
16358TIP3   OH270488   1.285   6.670  16.823  0.0809 -0.1137 -0.1422
16358TIP3    H170489   1.340   6.728  16.875  2.3628 -3.7377  1.9653
16358TIP3    H270490   1.342   6.639  16.753 -1.4591  0.9528 -1.9695
16359TIP3   OH270491   1.692   4.370   4.246  0.2063  0.1189 -0.6418
16359TIP3    H170492   1.747   4.447   4.243  0.5378 -0.1313 -1.8311
16359TIP3    H270493   1.636   4.378   4.168  0.1800 -0.7786 -0.7266
16360TIP3   OH270494   5.302   1.820  13.600 -0.0871  0.6560 -0.4506
16360TIP3    H170495   5.312   1.915  13.590  1.1565  0.4933 -0.9298
16360TIP3    H270496   5.214   1.809  13.636  0.0593  2.0437  0.4061
16361TIP3   OH270497   6.557   4.605   6.765  0.4293  0.4166  0.2674
16361TIP3    H170498   6.639   4.633   6.725  0.7227  2.6948  2.2155
16361TIP3    H270499   6.493   4.609   6.694  1.8308 -0.6507 -1.1000
16362TIP3   OH270500   6.009   3.391  12.636 -0.7355 -0.5994 -0.3101
16362TIP3    H170501   6.048   3.478  12.627 -1.4334 -0.2416  0.0052
16362TIP3    H270502   6.080   3.336  12.670  0.2354 -0.5968 -2.1946
16363TIP3   OH270503   1.526   0.257   5.305 -0.1949  0.0377 -0.5168
16363TIP3    H170504   1.552   0.209   5.226  0.0883  0.7872 -0.8805
16363TIP3    H270505   1.588   0.229   5.372  1.3168  1.4794 -1.2655
16364TIP3   OH270506   0.132   0.960  13.714  0.2059  0.5557  0.2063
16364TIP3    H170507   0.074   1.001  13.778 -0.1556 -0.4709  0.5654
16364TIP3    H270508   0.073   0.931  13.643  0.1996 -0.7763  0.7190
16365TIP3   OH270509   3.503   5.861   2.818 -0.2143 -0.1695  0.4595
16365TIP3    H170510   3.531   5.826   2.733  1.6841  1.8013  0.1802
16365TIP3    H270511   3.413   5.890   2.804  0.2555  0.6677 -1.1029
16366TIP3   OH270512   1.712   6.267   5.911  0.1153 -0.0735 -0.2221
16366TIP3    H170513   1.726   6.294   5.820 -2.4265  3.1294  0.1299
16366TIP3    H270514   1.624   6.299   5.932  0.4783 -0.9334  3.3071
16367TIP3   OH270515   5.093   6.755   3.833  0.8563  0.1078 -0.2340
16367TIP3    H170516   5.098   6.773   3.927 -0.2388 -1.1948  0.1017
16367TIP3    H270517   5.164   6.692   3.818 -0.3791 -1.4502  0.2052
16368TIP3   OH270518   4.469   1.393  13.933 -0.0408 -0.2030 -0.6220
16368TIP3    H170519   4.488   1.426  13.846  1.9122 -1.0176 -0.5699
16368TIP3    H270520   4.473   1.298  13.925  0.7082 -0.2880  0.4304
16369TIP3   OH270521   4.170   3.361   2.594  0.1994 -0.2471  0.2436
16369TIP3    H170522   4.232   3.302   2.638 -0.7807 -1.4592  0.0189
16369TIP3    H270523   4.138   3.311   2.520  0.4060  1.1062 -0.7863
16370TIP3   OH270524   6.485   5.419   1.211 -0.2162  0.5601  0.1225
16370TIP3    H170525   6.423   5.362   1.257 -0.8995  1.4111  0.2867
16370TIP3    H270526   6.491   5.496   1.267  0.1325  0.9554 -0.4558
16371TIP3   OH270527   2.355   1.948   1.737  0.4029  0.4456 -0.4587
16371TIP3    H170528   2.417   1.978   1.803  1.1175 -2.5614  0.3784
16371TIP3    H270529   2.404   1.885   1.685 -1.2551 -0.1137 -1.4324
16372TIP3   OH270530   4.524   5.606   5.261  0.7248  0.1300  0.0749
16372TIP3    H170531   4.614   5.612   5.291  1.1943 -0.6136 -1.1262
16372TIP3    H270532   4.512   5.514   5.238 -0.0228  0.4101 -0.7214
16373TIP3   OH270533   0.645   6.369  12.894 -0.4737 -0.4253  1.1731
16373TIP3    H170534   0.693   6.437  12.940  1.0285 -0.3634 -0.3751
16373TIP3    H270535   0.654   6.291  12.949  0.8271 -0.2256  1.2568
16374TIP3   OH270536   4.951   6.442  12.107 -0.0792 -0.3950 -0.6305
16374TIP3    H170537   4.899   6.493  12.045 -0.7360 -1.8102 -1.2750
16374TIP3    H270538   4.937   6.486  12.191  0.5703  1.3629 -1.3891
16375TIP3   OH270539   5.331   4.049  11.123  0.2758  0.2443  0.4003
16375TIP3    H170540   5.309   4.140  11.103 -1.6542 -0.2726 -0.0209
16375TIP3    H270541   5.336   4.046  11.219 -0.6616  0.6042  0.4691
16376TIP3   OH270542   3.059   0.741   1.518  0.6438  0.4616 -0.1304
16376TIP3    H170543   3.068   0.834   1.539 -0.0642  0.6134 -0.4797
16376TIP3    H270544   3.077   0.695   1.600 -0.2149  0.9579  0.3505
16377TIP3   OH270545   4.689   0.567   1.771  0.1591 -0.1149  0.4560
16377TIP3    H170546   4.648   0.549   1.686 -1.2253  3.3238  0.2339
16377TIP3    H270547   4.773   0.608   1.749  0.8258 -1.2457  0.8265
16378TIP3   OH270548   4.315   2.072   5.022  0.4636  0.2871 -0.3604
16378TIP3    H170549   4.315   1.980   4.998 -1.6770  0.4210 -1.0253
16378TIP3    H270550   4.235   2.108   4.984  1.3865  2.5048 -0.3796
16379TIP3   OH270551   6.681   6.653   2.204 -0.2270  0.0277  0.8083
16379TIP3    H170552   6.608   6.621   2.257  0.2180 -1.5814  0.4942
16379TIP3    H270553   6.645   6.660   2.115  0.0214 -0.8851  0.6300
16380TIP3   OH270554   6.238   3.673  14.163 -0.0916  0.6088  0.0320
16380TIP3    H170555   6.267   3.612  14.231 -0.1629 -2.6895 -2.6079
16380TIP3    H270556   6.149   3.645  14.143  0.1482  1.0085 -1.7988
16381TIP3   OH270557   4.013   2.563  13.123  0.0088 -0.0279  0.0428
16381TIP3    H170558   3.963   2.644  13.110  1.0130  0.7002  0.6215
16381TIP3    H270559   4.104   2.590  13.118  0.4064 -0.7348  2.4859
16382TIP3   OH270560   2.662   3.779   6.085  0.0464  0.6253 -0.0470
16382TIP3    H170561   2.743   3.820   6.117  0.4232 -0.5652  0.5765
16382TIP3    H270562   2.595   3.812   6.145  0.6027 -0.8462  1.4840
16383TIP3   OH270563   2.887   0.129  16.300  0.5319  0.4985 -0.1800
16383TIP3    H170564   2.804   0.082  16.305 -0.2631  1.9735  1.5628
16383TIP3    H270565   2.869   0.205  16.245  0.4436  1.2841  0.8974
16384TIP3   OH270566   2.624   6.584   5.008  0.2888  0.1991  0.1138
16384TIP3    H170567   2.656   6.509   4.959 -0.4557 -0.5586  0.7564
16384TIP3    H270568   2.684   6.655   4.986  0.4842 -0.3414 -1.2011
16385TIP3   OH270569   1.651   5.743  14.012 -0.4331  0.0899 -0.6252
16385TIP3    H170570   1.610   5.829  14.025 -0.6475 -0.1557  0.3725
16385TIP3    H270571   1.737   5.763  13.975  0.5456  0.9117  1.8535
16386TIP3   OH270572   0.580   3.182  11.070  0.1000  0.2565  0.2536
16386TIP3    H170573   0.567   3.143  11.156 -3.9014 -1.1022 -0.7723
16386TIP3    H270574   0.619   3.267  11.088  2.9746 -1.4340  3.0289
16387TIP3   OH270575   2.201   4.666  14.196 -0.0180  0.6481 -0.0919
16387TIP3    H170576   2.119   4.623  14.220  0.1044  0.4632 -0.0073
16387TIP3    H270577   2.269   4.605  14.224  0.1384  0.6271 -0.5014
16388TIP3   OH270578   5.443   4.185   2.105  0.3491 -0.4148 -0.6448
16388TIP3    H170579   5.488   4.149   2.182 -0.4120  0.8938  0.4480
16388TIP3    H270580   5.422   4.108   2.052 -0.0064 -1.4694  0.9509
16389TIP3   OH270581   6.780   5.206  12.340  0.0109  0.0254 -0.9389
16389TIP3    H170582   6.741   5.286  12.375 -1.8705 -0.8098 -0.9656
16389TIP3    H270583   6.855   5.235  12.289  0.5175  1.5814  0.6137
16390TIP3   OH270584   4.363   6.492   4.848 -0.3206  0.3751  0.5290
16390TIP3    H170585   4.275   6.530   4.847 -0.8673 -0.8522  0.2552
16390TIP3    H270586   4.420   6.566   4.869 -1.3460  1.3175  0.1229
16391TIP3   OH270587   3.362   6.331  14.792 -0.2436  0.1646  0.2337
16391TIP3    H170588   3.279   6.372  14.817 -0.0175  0.3203  0.7472
16391TIP3    H270589   3.428   6.399  14.809 -0.0424  0.1487 -0.4586
16392TIP3   OH270590   0.754   3.281  13.515  0.0951 -0.1390  0.5740
16392TIP3    H170591   0.776   3.211  13.454 -0.9343 -0.5403  0.6438
16392TIP3    H270592   0.725   3.236  13.594 -1.7497  0.3221  0.2045
16393TIP3   OH270593   3.117   0.633  11.091 -0.4869  0.0266  0.0796
16393TIP3    H170594   3.043   0.663  11.145 -1.2673 -1.8310  0.1156
16393TIP3    H270595   3.190   0.625  11.153 -0.9025 -0.4129  0.5171
16394TIP3   OH270596   1.704   1.048  10.264 -0.2882  0.5091  0.5736
16394TIP3    H170597   1.726   0.991  10.337 -0.7928  2.4369  2.3196
16394TIP3    H270598   1.788   1.074  10.227 -0.0388 -0.7551  0.2066
16395TIP3   OH270599   0.352   0.988  13.542 -0.0527 -0.2369  0.1898
16395TIP3    H170600   0.278   1.017  13.490 -0.0914  0.2575  0.5083
16395TIP3    H270601   0.314   0.961  13.626 -0.1517 -2.2846 -0.4686
16396TIP3   OH270602   2.575   4.336   2.126  0.3794 -0.0128 -0.3226
16396TIP3    H170603   2.614   4.291   2.051 -0.5048  1.7250 -1.9030
16396TIP3    H270604   2.651   4.367   2.176  1.0716  1.0825 -1.9525
16397TIP3   OH270605   5.620   5.961  10.789  0.4223  0.0436  0.4392
16397TIP3    H170606   5.527   5.984  10.782  0.5998  0.4334 -0.9707
16397TIP3    H270607   5.628   5.881  10.738  1.2431  1.2185 -1.3524
16398TIP3   OH270608   0.167   2.447   4.421  0.4072  0.1999 -0.2898
16398TIP3    H170609   0.156   2.517   4.356 -1.4937  0.2334  0.0045
16398TIP3    H270610   0.114   2.476   4.496 -0.1499 -1.4025 -0.0389
16399TIP3   OH270611   0.089   5.101   0.758  0.0662 -0.2637 -0.4111
16399TIP3    H170612   0.121   5.110   0.848  1.6530  2.2478 -1.1267
16399TIP3    H270613  -0.003   5.124   0.763  0.5063  1.5111  0.3817
16400TIP3   OH270614   3.139   4.221   3.461 -0.0878 -0.3402  0.1733
16400TIP3    H170615   3.050   4.242   3.431  0.2877  1.3365  0.1405
16400TIP3    H270616   3.193   4.292   3.427  1.6313 -2.3189 -1.3992
16401TIP3   OH270617   5.472   0.162  11.973 -0.7398 -0.5887  0.1015
16401TIP3    H170618   5.429   0.117  11.900  0.9862 -1.4350 -0.4398
16401TIP3    H270619   5.427   0.129  12.051 -1.3862 -1.0803 -0.4672
16402TIP3   OH270620   6.766   3.861  12.138  0.1764  0.3756  0.4156
16402TIP3    H170621   6.847   3.880  12.186  0.4378  1.7153 -0.5121
16402TIP3    H270622   6.707   3.933  12.162 -0.7079 -0.5110  0.9677
16403TIP3   OH270623   6.335   5.157   5.136  0.3400  0.6595  0.2338
16403TIP3    H170624   6.379   5.198   5.210  0.5470 -0.9087  1.0255
16403TIP3    H270625   6.282   5.227   5.098  0.2364  1.5115  1.8538
16404TIP3   OH270626   2.970   3.456   6.190 -0.3197  0.4053  0.0254
16404TIP3    H170627   2.940   3.472   6.279 -0.7482 -0.4376  0.0404
16404TIP3    H270628   2.948   3.537   6.143 -1.3691  0.3361  0.3682
16405TIP3   OH270629   0.598   1.734   1.957 -0.4194  0.4590 -0.0567
16405TIP3    H170630   0.508   1.707   1.975 -0.1113  0.2366  1.1977
16405TIP3    H270631   0.653   1.671   2.003  0.3421  1.8283  1.0040
16406TIP3   OH270632   1.677   5.110  15.691 -0.0940 -0.4559 -0.2202
16406TIP3    H170633   1.689   5.024  15.652  1.0421  0.2027 -1.3561
16406TIP3    H270634   1.744   5.165  15.652 -0.6830  0.9220  0.6140
16407TIP3   OH270635   4.671   6.098   0.075  0.4976 -0.2476 -0.2124
16407TIP3    H170636   4.652   6.171   0.016 -1.5321 -0.8145 -0.3200
16407TIP3    H270637   4.762   6.112   0.102  0.6667  1.4017 -1.5005
16408TIP3   OH270638   1.891   0.424   1.239 -0.3897 -0.0434 -0.0054
16408TIP3    H170639   1.840   0.491   1.285 -0.8484  0.3813 -1.1024
16408TIP3    H270640   1.825   0.370   1.195  0.0443 -0.3681 -0.2644
16409TIP3   OH270641   4.965   3.859   5.715 -0.4209  0.1102 -0.0707
16409TIP3    H170642   5.019   3.844   5.637  0.0022  0.7006  0.1008
16409TIP3    H270643   4.990   3.788   5.775 -1.4950 -0.9702 -0.8359
16410TIP3   OH270644   1.626   4.111   5.690  0.1041  0.1479 -0.5543
16410TIP3    H170645   1.626   4.194   5.738  1.3037  0.6061 -1.3050
16410TIP3    H270646   1.687   4.056   5.739 -0.1965 -0.0732 -0.4272
16411TIP3   OH270647   5.655   1.668   4.424  0.0501 -0.5312  0.7126
16411TIP3    H170648   5.587   1.647   4.488  1.1086  0.8976  2.4239
16411TIP3    H270649   5.662   1.763   4.428  3.1202 -0.6810  1.7500
16412TIP3   OH270650   2.628   4.061  16.122  0.4949 -0.4452 -0.6416
16412TIP3    H170651   2.676   3.982  16.143  1.7966  1.0110  2.4188
16412TIP3    H270652   2.538   4.043  16.150  1.0940 -0.3955  1.4284
16413TIP3   OH270653   0.337   0.125   2.645 -0.8823 -0.2934  0.0169
16413TIP3    H170654   0.266   0.163   2.697  0.1457 -0.5983  1.7335
16413TIP3    H270655   0.368   0.198   2.591 -1.9497  0.0509 -0.1543
16414TIP3   OH270656   3.666   6.181  12.696 -0.0609  0.1330  0.1076
16414TIP3    H170657   3.666   6.110  12.631  0.3481 -0.2053  0.4652
16414TIP3    H270658   3.692   6.138  12.778 -0.6577  0.5368  0.5130
16415TIP3   OH270659   5.971   3.667  10.854  0.1662  0.0117  0.5284
16415TIP3    H170660   5.938   3.683  10.766  1.5289  0.7954  0.1214
16415TIP3    H270661   6.009   3.580  10.850  1.0960  0.4263  0.0420
16416TIP3   OH270662   1.209   4.903  11.760  0.2608 -0.3426 -0.5041
16416TIP3    H170663   1.233   4.904  11.853  2.3855 -2.9296 -0.9102
16416TIP3    H270664   1.126   4.855  11.758  1.0336 -1.7786 -0.0143
16417TIP3   OH270665   3.546   0.920  12.419  0.1142 -0.2277 -0.2781
16417TIP3    H170666   3.577   0.837  12.456  1.8990  0.3067 -0.4561
16417TIP3    H270667   3.554   0.982  12.490 -0.5598 -0.0520 -0.3476
16418TIP3   OH270668   2.550   6.092   1.991  0.6757  0.6802  0.0673
16418TIP3    H170669   2.639   6.098   1.956  0.8997  4.3997  0.8996
16418TIP3    H270670   2.561   6.063   2.081  1.2221  2.2916  0.5465
16419TIP3   OH270671   1.921   1.161   5.097 -1.1211 -0.1895  0.6165
16419TIP3    H170672   1.887   1.072   5.085 -2.0591  0.2048  0.2519
16419TIP3    H270673   1.944   1.166   5.189 -1.9322 -0.5271  0.8484
16420TIP3   OH270674   5.399   0.408  14.356  0.5476 -0.3802  0.0246
16420TIP3    H170675   5.362   0.326  14.391  2.2711 -0.2304  2.4874
16420TIP3    H270676   5.492   0.389  14.346  0.8906  1.1299  0.2048
16421TIP3   OH270677   1.053   5.952   6.363 -0.3945 -0.3125 -0.0307
16421TIP3    H170678   1.012   5.889   6.423  0.5597 -1.8244 -0.8969
16421TIP3    H270679   0.998   5.950   6.285 -0.2672 -0.2086 -0.1234
16422TIP3   OH270680   1.238   2.138  13.276  0.3183  0.0385 -0.5253
16422TIP3    H170681   1.170   2.142  13.344  1.6493 -0.0623  0.8709
16422TIP3    H270682   1.244   2.228  13.244 -1.4815 -0.2202 -1.7747
16423TIP3   OH270683   1.599   3.252  14.061 -0.4822  0.4903 -0.0388
16423TIP3    H170684   1.577   3.183  14.124  1.2783  1.5324  1.8024
16423TIP3    H270685   1.538   3.237  13.988 -1.2439 -1.9958  0.9912
16424TIP3   OH270686   5.600   2.919   0.538  0.6593  0.0538 -1.1447
16424TIP3    H170687   5.672   2.857   0.533 -0.7614 -1.5690 -2.5571
16424TIP3    H270688   5.585   2.930   0.632 -0.3051 -3.3645 -0.7691
16425TIP3   OH270689   5.861   1.802   3.983  0.0167 -0.1081  0.1588
16425TIP3    H170690   5.887   1.811   4.074 -0.4200  0.8368  0.1964
16425TIP3    H270691   5.785   1.859   3.973  0.5222  0.4005 -0.9806
16426TIP3   OH270692   5.275   2.574  14.025  0.5693 -0.0693 -0.3527
16426TIP3    H170693   5.189   2.603  13.996  0.8279 -1.1253 -2.2863
16426TIP3    H270694   5.264   2.481  14.045  0.9350  0.1260  0.8751
16427TIP3   OH270695   1.283   3.247  16.215  0.0691  0.1489 -0.2586
16427TIP3    H170696   1.305   3.328  16.262 -0.2423  1.2421 -1.9310
16427TIP3    H270697   1.251   3.276  16.130  0.2420 -1.7616 -1.0261
16428TIP3   OH270698   6.059   0.854  16.536 -0.3482 -0.0148 -0.0509
16428TIP3    H170699   6.054   0.944  16.503 -0.3285 -0.0298 -0.0945
16428TIP3    H270700   6.144   0.822  16.507  0.4478  0.5642  1.5129
16429TIP3   OH270701   2.955   3.944   3.534  0.2357 -0.2193  0.0393
16429TIP3    H170702   2.997   3.989   3.460  0.0272 -0.1500 -0.0360
16429TIP3    H270703   2.909   4.014   3.581  0.2495 -0.2878  0.1546
16430TIP3   OH270704   5.673   4.293   4.070  0.4651  0.2033  0.5689
16430TIP3    H170705   5.588   4.332   4.049  0.8061 -0.7891 -3.4499
16430TIP3    H270706   5.709   4.351   4.137 -1.1893  3.9092 -1.3919
16431TIP3   OH270707   0.043   0.660   3.810 -0.3510 -0.2066 -0.4699
16431TIP3    H170708  -0.028   0.615   3.855 -0.7226  0.5930 -0.2442
16431TIP3    H270709   0.060   0.607   3.732 -1.0508 -0.5137 -0.4165
16432TIP3   OH270710   1.870   0.578   3.417 -0.3439 -0.2251  0.2432
16432TIP3    H170711   1.882   0.603   3.325  0.3951 -2.8646 -0.4555
16432TIP3    H270712   1.799   0.515   3.416  0.0559 -0.7226  1.4015
16433TIP3   OH270713   4.947   4.304  11.981  0.4109  0.1631 -0.6685
16433TIP3    H170714   4.909   4.372  12.035 -1.5834  0.0541 -1.8215
16433TIP3    H270715   4.889   4.228  11.993  1.1882 -0.5435 -1.2457
16434TIP3   OH270716   2.596   1.346  16.623  0.3520 -0.0466  0.3368
16434TIP3    H170717   2.688   1.321  16.623  0.0851 -1.1465  1.2546
16434TIP3    H270718   2.583   1.395  16.542  1.3564 -1.3326 -0.6374
16435TIP3   OH270719   5.177   2.949  12.242 -0.7801 -0.3738  0.0895
16435TIP3    H170720   5.156   3.026  12.295  0.9133 -0.3370  0.7594
16435TIP3    H270721   5.206   2.883  12.305  0.0591 -0.7590 -0.6697
16436TIP3   OH270722   6.558   5.623   4.991 -0.8658 -1.1339 -0.5972
16436TIP3    H170723   6.517   5.569   4.923 -1.7205 -1.4068  0.1209
16436TIP3    H270724   6.627   5.568   5.027 -0.7308 -1.1716 -0.9095
16437TIP3   OH270725   4.500   1.055  12.326 -0.0523  0.9874 -0.2306
16437TIP3    H170726   4.420   1.015  12.361  0.3927  0.4056  0.1421
16437TIP3    H270727   4.563   1.051  12.398  1.6564 -2.4032 -1.6636
16438TIP3   OH270728   2.472   1.297   1.508  0.2732 -0.1532  0.4979
16438TIP3    H170729   2.497   1.361   1.441  0.0168 -2.2993 -1.8222
16438TIP3    H270730   2.556   1.267   1.544  0.5254 -0.2027 -0.1126
16439TIP3   OH270731   4.329   1.936  13.617 -0.3176 -0.3942 -0.1626
16439TIP3    H170732   4.399   1.919  13.554  0.0091 -0.1584  0.1337
16439TIP3    H270733   4.373   1.935  13.702 -0.5409  0.4750 -0.0261
16440TIP3   OH270734   4.056   6.188  12.526 -0.0784 -0.4204 -0.0252
16440TIP3    H170735   4.099   6.133  12.461  0.9411  0.2170  0.0802
16440TIP3    H270736   3.963   6.183  12.504  0.1808 -0.7159 -1.1497
16441TIP3   OH270737   3.712   3.088  12.357 -0.3118  0.2167  0.1827
16441TIP3    H170738   3.653   3.096  12.432  0.5407  3.5729  0.6397
16441TIP3    H270739   3.787   3.039  12.391 -1.7527 -2.1809  0.1757
16442TIP3   OH270740   3.206   1.525  11.611 -0.0850 -0.1526 -0.4597
16442TIP3    H170741   3.216   1.509  11.517 -0.3938 -0.5047 -0.4364
16442TIP3    H270742   3.240   1.445  11.652 -0.9917 -0.4815 -0.3161
16443TIP3   OH270743   0.069   3.274  11.459 -0.1135 -0.3693  0.6548
16443TIP3    H170744   0.129   3.285  11.533  0.6277 -2.3803  0.3967
16443TIP3    H270745  -0.018   3.286  11.498  0.3458  2.4485  1.0608
16444TIP3   OH270746   2.178   5.411   5.600  0.5068 -0.0407  0.2370
16444TIP3    H170747   2.193   5.317   5.606  0.1747 -0.1011  0.1586
16444TIP3    H270748   2.184   5.431   5.507 -1.0059 -0.2678  0.0581
16445TIP3   OH270749   1.302   2.123   3.628  0.6738 -0.4345 -0.4529
16445TIP3    H170750   1.246   2.160   3.560  1.1249  1.4125  0.1194
16445TIP3    H270751   1.254   2.137   3.710  1.8179  0.9874  0.0194
16446TIP3   OH270752   5.200   0.833   3.238  0.3016  0.6992 -0.4772
16446TIP3    H170753   5.221   0.762   3.178  1.1189  0.1877  0.3874
16446TIP3    H270754   5.262   0.822   3.311 -0.5335  1.4171  0.3644
16447TIP3   OH270755   1.342   1.750  16.832 -0.3566 -0.1010  0.8635
16447TIP3    H170756   1.409   1.772  16.766  0.4285 -1.6857  1.0892
16447TIP3    H270757   1.259   1.752  16.784  0.3376 -2.8119 -0.6697
16448TIP3   OH270758   6.005   4.563   6.037 -0.0551 -0.5944  0.1979
16448TIP3    H170759   5.943   4.554   6.109 -0.7382 -0.6074 -0.3828
16448TIP3    H270760   5.952   4.592   5.962  0.6505 -0.4997 -0.2824
16449TIP3   OH270761   2.961   6.347   5.749 -0.2653  0.3205  0.0628
16449TIP3    H170762   2.949   6.358   5.843  2.3214  0.5760  0.4337
16449TIP3    H270763   3.040   6.293   5.741 -0.5439  0.1305 -1.9621
16450TIP3   OH270764   2.665   6.241  14.809 -0.1726  0.0392  0.1679
16450TIP3    H170765   2.636   6.213  14.896 -2.3005 -3.3941 -1.4068
16450TIP3    H270766   2.759   6.227  14.809 -0.5852 -3.9760  0.8446
16451TIP3   OH270767   4.520   3.620  12.499 -0.4897  0.1910 -0.1419
16451TIP3    H170768   4.490   3.580  12.417  0.1478  0.3883 -0.4727
16451TIP3    H270769   4.591   3.564  12.529  0.1619  0.8492 -0.4164
16452TIP3   OH270770   5.108   2.280  10.846 -0.3601  0.1953 -0.3454
16452TIP3    H170771   5.119   2.186  10.862 -0.5441 -0.0217 -1.3771
16452TIP3    H270772   5.183   2.304  10.792 -2.0752 -0.1982 -3.1592
16453TIP3   OH270773   2.917   1.030  11.414 -0.0730 -0.5925 -0.1059
16453TIP3    H170774   2.905   1.078  11.332  0.8481 -0.5982 -0.2547
16453TIP3    H270775   2.868   1.080  11.479 -0.1719 -0.1620 -0.5093
16454TIP3   OH270776   4.610   5.652   5.735 -0.3114 -0.1489  0.4401
16454TIP3    H170777   4.703   5.628   5.737 -0.1055 -0.1454 -2.8627
16454TIP3    H270778   4.593   5.689   5.821  2.6683 -0.4004  1.2618
16455TIP3   OH270779   5.259   4.674   4.750  0.7602 -0.0989 -0.8588
16455TIP3    H170780   5.238   4.678   4.657  1.0636  0.1474 -0.9194
16455TIP3    H270781   5.261   4.766   4.777  0.0054 -0.1934 -0.4570
16456TIP3   OH270782   1.339   0.451  14.675  0.1666  0.6175  0.2752
16456TIP3    H170783   1.391   0.437  14.754  0.3294  1.4191  0.3133
16456TIP3    H270784   1.403   0.444  14.604  0.1908  0.8537  0.2747
16457TIP3   OH270785   1.958   5.332  13.775  0.0566  0.0739  0.0602
16457TIP3    H170786   2.036   5.307  13.727 -0.1942 -0.5171 -0.0501
16457TIP3    H270787   1.984   5.408  13.826  0.1052  1.2446 -1.6416
16458TIP3   OH270788   6.586   6.543   1.494 -0.0239 -0.0495  0.4227
16458TIP3    H170789   6.608   6.574   1.406  0.2798 -0.7954  0.2197
16458TIP3    H270790   6.657   6.576   1.550 -0.3980  0.7131  0.4581
16459TIP3   OH270791   4.004   3.109  15.456  0.0341 -0.6293  0.5233
16459TIP3    H170792   4.022   3.181  15.517 -0.1522  0.4529 -0.6564
16459TIP3    H270793   4.090   3.081  15.427  0.0965 -0.6878  0.7607
16460TIP3   OH270794   3.133   5.450   2.171 -0.5124  0.2857  0.6876
16460TIP3    H170795   3.203   5.458   2.106  0.8393 -0.0212  2.0408
16460TIP3    H270796   3.174   5.404   2.245 -1.7707  1.2604  2.0593
16461TIP3   OH270797   0.598   4.635   2.085  0.2590  0.0530  0.4329
16461TIP3    H170798   0.675   4.638   2.143 -0.6787 -1.7142  1.8615
16461TIP3    H270799   0.523   4.641   2.145 -0.7592 -1.9724 -0.5470
16462TIP3   OH270800   3.017   3.757   3.710 -0.1735  0.0849 -0.0811
16462TIP3    H170801   3.016   3.836   3.656  1.9686  0.7485  0.7313
16462TIP3    H270802   3.096   3.710   3.683 -1.8225 -2.2552 -1.1117
16463TIP3   OH270803   3.155   1.722   0.088  0.0604 -0.1945  0.1213
16463TIP3    H170804   3.118   1.794   0.140 -0.4384 -1.2410  1.2652
16463TIP3    H270805   3.136   1.745  -0.002 -0.3889  0.9468  0.4923
16464TIP3   OH270806   2.540   5.558  11.316 -0.3358  0.0209  0.3000
16464TIP3    H170807   2.611   5.495  11.315 -1.3586 -1.1932  1.3080
16464TIP3    H270808   2.461   5.505  11.328 -1.2841  1.4334  0.5336
16465TIP3   OH270809   4.971   5.587   4.310 -0.6497  0.1364 -0.3536
16465TIP3    H170810   5.057   5.546   4.297  0.1710  1.5358  0.4670
16465TIP3    H270811   4.910   5.513   4.314  0.6334 -0.9374  0.0125
16466TIP3   OH270812   0.530   0.392  11.367 -0.2313 -0.2476 -0.4467
16466TIP3    H170813   0.459   0.373  11.429 -0.4771 -1.3972 -1.0454
16466TIP3    H270814   0.577   0.309  11.358  0.8830  0.3572 -0.4674
16467TIP3   OH270815   5.504   0.607  12.390 -0.5235 -0.1627  0.2223
16467TIP3    H170816   5.514   0.512  12.397  1.7540  0.1075  1.9274
16467TIP3    H270817   5.566   0.633  12.321  1.9852  0.3709  2.5051
16468TIP3   OH270818   1.278   0.370  12.336 -0.3155 -0.5116  0.4501
16468TIP3    H170819   1.234   0.289  12.309 -0.8897 -0.0179 -0.1156
16468TIP3    H270820   1.207   0.430  12.357  0.1064 -0.0553  0.5846
16469TIP3   OH270821   6.666   0.216   5.329 -0.1548 -0.4991  0.5346
16469TIP3    H170822   6.656   0.160   5.405 -1.5969 -0.2965  0.5156
16469TIP3    H270823   6.720   0.165   5.269  0.4940 -0.8996  1.4376
16470TIP3   OH270824   4.715   4.279   2.425  0.6803  0.8161  0.5007
16470TIP3    H170825   4.632   4.276   2.378  0.1293  0.9287  1.4243
16470TIP3    H270826   4.721   4.370   2.456  1.5200  1.0040 -0.2009
16471TIP3   OH270827   2.920   3.371   0.885  0.1534 -0.8687  0.0720
16471TIP3    H170828   2.825   3.367   0.892  0.0235 -4.0554 -1.4541
16471TIP3    H270829   2.940   3.328   0.802  2.9100  0.9619 -0.3434
16472TIP3   OH270830   0.227   1.768  15.464  0.1467 -1.3524  0.3207
16472TIP3    H170831   0.135   1.788  15.442  0.6042  0.2042 -0.3447
16472TIP3    H270832   0.238   1.801  15.553  0.3815 -0.3357 -0.0698
16473TIP3   OH270833   1.902   1.816  12.857 -0.6653 -0.5894 -0.0881
16473TIP3    H170834   1.992   1.785  12.852 -1.1983 -2.0843 -1.0108
16473TIP3    H270835   1.859   1.755  12.917 -0.9351  0.5031  0.8668
16474TIP3   OH270836   6.330   4.650  13.757  0.3560 -0.0651 -0.3870
16474TIP3    H170837   6.335   4.713  13.828 -0.9080  1.3460 -1.4963
16474TIP3    H270838   6.253   4.675  13.706  0.1599 -2.1272 -1.2403
16475TIP3   OH270839   4.125   5.814   5.137  0.2010 -0.1399  0.0207
16475TIP3    H170840   4.212   5.787   5.107  0.3436 -0.2146  0.5049
16475TIP3    H270841   4.086   5.735   5.174 -0.8483 -0.6134 -1.9494
16476TIP3   OH270842   1.404   3.713  17.192  0.2276  0.6608  0.2763
16476TIP3    H170843   1.314   3.685  17.175  0.9201 -0.9009 -1.1633
16476TIP3    H270844   1.426   3.769  17.117  0.8075  0.1337  0.0491
16477TIP3   OH270845   3.444   1.315   1.694 -0.2345  0.1554 -0.0529
16477TIP3    H170846   3.516   1.301   1.756 -2.1104 -0.1385  2.1817
16477TIP3    H270847   3.408   1.227   1.680 -1.6225  0.5543  0.7937
16478TIP3   OH270848   4.671   3.498   1.372  0.0425 -0.7534 -0.1463
16478TIP3    H170849   4.713   3.436   1.432 -0.5412  1.4843  2.7980
16478TIP3    H270850   4.577   3.480   1.383 -0.0832 -0.0287 -0.0094
16479TIP3   OH270851   3.807   0.536  11.648 -0.0082  0.1113  0.3517
16479TIP3    H170852   3.780   0.596  11.719 -4.3471  0.4634 -1.2780
16479TIP3    H270853   3.855   0.592  11.587  1.6902  0.3350  1.8086
16480TIP3   OH270854   1.050   3.162  14.959 -0.1416 -0.5028 -0.1749
16480TIP3    H170855   0.996   3.222  14.907 -0.4567 -0.9779 -0.4028
16480TIP3    H270856   1.070   3.211  15.038  3.1721  1.6036 -2.0752
16481TIP3   OH270857   1.997   0.101  10.959  0.3613  0.0522  0.2998
16481TIP3    H170858   2.061   0.030  10.953  0.9695  0.4371  1.8049
16481TIP3    H270859   1.996   0.139  10.871  0.1756 -1.6572 -0.4801
16482TIP3   OH270860   3.185   0.898  12.519 -0.1747 -0.0986 -0.0219
16482TIP3    H170861   3.249   0.830  12.498  1.6619  0.4020  3.2777
16482TIP3    H270862   3.216   0.976  12.472  0.1111 -0.4943 -0.5002
16483TIP3   OH270863   3.152   0.179  16.932  0.2031 -0.0247 -0.2529
16483TIP3    H170864   3.091   0.206  17.000  0.1756  1.4438 -0.8224
16483TIP3    H270865   3.228   0.146  16.981  0.0375  0.6473  0.4835
16484TIP3   OH270866   5.818   6.708  16.570  0.2363 -0.3651  0.5671
16484TIP3    H170867   5.753   6.694  16.500  0.2040  0.3017  0.4605
16484TIP3    H270868   5.886   6.762  16.529  0.2557 -0.0370  1.0271
16485TIP3   OH270869   1.733   3.362  13.530  0.5228 -0.3740  0.3369
16485TIP3    H170870   1.800   3.300  13.559  2.2696  1.2229 -0.0789
16485TIP3    H270871   1.774   3.409  13.457 -1.2833  0.3025 -0.3031
16486TIP3   OH270872   5.846   1.302  13.904 -0.1719 -0.2511 -0.1015
16486TIP3    H170873   5.814   1.296  13.815 -0.8324  0.3847  0.0885
16486TIP3    H270874   5.936   1.335  13.895 -0.0191 -0.7682 -0.5511
16487TIP3   OH270875   2.792   0.557   5.990 -0.1848  0.3850  0.3851
16487TIP3    H170876   2.719   0.537   6.049  0.5669 -1.6007  0.7375
16487TIP3    H270877   2.764   0.523   5.905  0.5972 -1.1611  0.7033
16488TIP3   OH270878   2.087   4.267   3.672  0.3852 -0.3260 -0.4167
16488TIP3    H170879   1.997   4.266   3.706  0.5345  0.7811  0.0487
16488TIP3    H270880   2.134   4.327   3.730  0.6431  1.7245 -2.5878
16489TIP3   OH270881   6.489   6.542   3.884 -0.0911  0.1276 -0.2391
16489TIP3    H170882   6.569   6.488   3.884 -1.9299 -2.8348 -1.1270
16489TIP3    H270883   6.483   6.575   3.795  0.1260  0.3344 -0.1781
16490TIP3   OH270884   3.001   5.834   4.240  0.3137 -0.0052  0.0731
16490TIP3    H170885   2.937   5.775   4.200  1.4155 -0.5158 -1.0453
16490TIP3    H270886   2.985   5.918   4.197 -0.1782  0.0922  0.4443
16491TIP3   OH270887   2.992   4.312  14.270  0.4886  0.2215  0.3070
16491TIP3    H170888   2.931   4.386  14.280  2.6471  2.0699  0.7365
16491TIP3    H270889   3.062   4.347  14.215  0.8969 -2.0192 -0.6739
16492TIP3   OH270890   6.065   1.121  16.454 -0.1908 -0.1638  0.5738
16492TIP3    H170891   5.974   1.095  16.440 -0.6276  2.2985 -2.5075
16492TIP3    H270892   6.060   1.208  16.492  0.8898 -0.0412  0.4754
16493TIP3   OH270893   0.782   6.272  13.537 -0.1470 -0.5438 -0.1916
16493TIP3    H170894   0.839   6.305  13.606 -0.1623  1.3725 -1.0347
16493TIP3    H270895   0.841   6.242  13.469 -0.0154  2.1721 -1.4073
16494TIP3   OH270896   2.568   0.440  10.825 -0.2221  0.3905  0.2084
16494TIP3    H170897   2.544   0.479  10.741  0.7039  1.0531  0.2449
16494TIP3    H270898   2.558   0.345  10.810 -0.9714  0.5417 -0.3461
16495TIP3   OH270899   3.343   3.061   3.203  0.2629 -0.5668 -0.0642
16495TIP3    H170900   3.292   3.119   3.261 -1.1100 -0.2385 -1.5334
16495TIP3    H270901   3.323   2.973   3.235  0.7892 -0.3354  0.9461
16496TIP3   OH270902   0.430   6.307   5.230 -0.5815 -0.6539 -0.3990
16496TIP3    H170903   0.479   6.274   5.306  0.1465  1.4589  0.1027
16496TIP3    H270904   0.457   6.250   5.158 -0.5516 -2.0997  0.7043
16497TIP3   OH270905   1.667   1.144   4.566  0.6159 -0.6878 -0.1888
16497TIP3    H170906   1.614   1.224   4.565  0.9836 -0.3853  1.7665
16497TIP3    H270907   1.681   1.125   4.658 -0.1759 -3.5449 -0.5699
16498TIP3   OH270908   2.409   3.632  14.691 -0.2950 -0.7892 -0.5607
16498TIP3    H170909   2.495   3.650  14.652  0.3586  0.6378  1.3498
16498TIP3    H270910   2.346   3.660  14.625  0.7484  1.4251 -0.7251
16499TIP3   OH270911   5.874   0.842  16.762 -0.4474 -0.2713  0.3845
16499TIP3    H170912   5.933   0.845  16.687  0.7424  1.7085  1.3283
16499TIP3    H270913   5.925   0.798  16.830 -0.1614  1.0932  1.0844
16500TIP3   OH270914   4.714   3.806  13.056  0.1300 -0.4929 -0.3738
16500TIP3    H170915   4.796   3.782  13.100 -0.1773 -1.6970 -0.4241
16500TIP3    H270916   4.646   3.785  13.119 -0.2006 -0.3554 -0.6813
16501TIP3   OH270917   3.071   5.414   0.173  0.0327 -0.0628 -0.1070
16501TIP3    H170918   3.050   5.474   0.244  1.3623  0.9677 -0.5368
16501TIP3    H270919   3.096   5.471   0.100  0.5227 -1.1188 -0.7906
16502TIP3   OH270920   1.912   4.282   5.063 -0.3103 -0.2587  0.1852
16502TIP3    H170921   1.942   4.288   4.972 -1.4139  1.4627 -0.1023
16502TIP3    H270922   1.969   4.216   5.103 -0.6002 -1.9412 -2.0478
16503TIP3   OH270923   0.541   3.684   1.195 -0.4296  0.0357  0.2676
16503TIP3    H170924   0.619   3.685   1.140 -0.0504  1.2347  0.8172
16503TIP3    H270925   0.572   3.706   1.283 -1.3739  0.5092  0.4992
16504TIP3   OH270926   6.152   6.683   0.361 -0.2131 -0.0658  0.5891
16504TIP3    H170927   6.061   6.712   0.366 -0.0769  0.7051 -0.7673
16504TIP3    H270928   6.167   6.669   0.267  0.9577 -0.5197  0.8310
16505TIP3   OH270929   4.866   2.155   2.225 -0.1537  0.0928  0.1849
16505TIP3    H170930   4.885   2.085   2.161 -1.0068  0.7398 -0.7976
16505TIP3    H270931   4.771   2.158   2.230 -0.1531  1.6013 -0.2659
16506TIP3   OH270932   4.664   6.171   5.447  0.1761  0.4727 -0.5374
16506TIP3    H170933   4.674   6.084   5.408  2.0001  0.5675 -0.3551
16506TIP3    H270934   4.634   6.153   5.536  0.3799  0.0325 -0.5538
16507TIP3   OH270935   1.495   4.850   3.749  0.6890 -0.2044  0.5466
16507TIP3    H170936   1.474   4.902   3.672  2.6270  0.8723  0.6775
16507TIP3    H270937   1.413   4.806   3.772 -0.7671  1.9500 -0.2145
16508TIP3   OH270938   4.944   5.799  15.834  0.0200  0.1327  0.8110
16508TIP3    H170939   5.006   5.786  15.762  0.1982 -0.0623  0.9990
16508TIP3    H270940   4.990   5.856  15.896 -0.4178  0.9236  0.4204
16509TIP3   OH270941   2.685   5.806  16.806 -0.2778  0.3030 -0.8291
16509TIP3    H170942   2.641   5.735  16.852 -1.6219  1.2479 -0.6077
16509TIP3    H270943   2.615   5.857  16.767  0.6116  1.9382 -0.3717
16510TIP3   OH270944   5.160   3.264  15.822  0.7430  0.5154 -0.2755
16510TIP3    H170945   5.245   3.221  15.815 -0.3091 -1.6428 -0.7764
16510TIP3    H270946   5.146   3.305  15.737  1.4826  1.3290 -0.0143
16511TIP3   OH270947   6.645   0.048   5.561 -0.4539 -0.0285  0.0501
16511TIP3    H170948   6.569  -0.004   5.588 -1.5596  0.7128 -1.4882
16511TIP3    H270949   6.670   0.097   5.640 -1.4638 -0.4223  0.6276
16512TIP3   OH270950   3.677   3.137   2.016 -0.1699  0.2805 -0.6474
16512TIP3    H170951   3.589   3.134   1.977  0.3677  1.3853 -2.0178
16512TIP3    H270952   3.675   3.215   2.072  0.0502  0.4869 -0.9317
16513TIP3   OH270953   4.908   3.712   2.572 -0.2605 -0.2753 -0.9025
16513TIP3    H170954   4.881   3.783   2.513 -3.2734 -1.7365 -1.4679
16513TIP3    H270955   4.841   3.645   2.560  0.4272 -1.7007  2.3621
16514TIP3   OH270956   4.264   3.232  13.662 -0.1242  0.5681  0.1676
16514TIP3    H170957   4.218   3.151  13.684  0.3819  0.4885  0.9697
16514TIP3    H270958   4.205   3.277  13.602 -0.7024 -0.0922  0.2229
16515TIP3   OH270959   4.736   3.066   2.878  0.8722  0.1646 -0.2258
16515TIP3    H170960   4.773   3.052   2.965  0.3565 -0.8828 -0.1687
16515TIP3    H270961   4.742   2.981   2.835  1.3800  0.7364 -1.3213
16516TIP3   OH270962   1.927   3.824  13.146 -0.3765 -0.3935 -0.0636
16516TIP3    H170963   1.837   3.841  13.172 -0.1994 -0.7050  0.7839
16516TIP3    H270964   1.949   3.896  13.087 -1.1733 -0.3173 -0.2766
16517TIP3   OH270965   6.277   6.194   0.084  0.0412 -0.5221  0.4908
16517TIP3    H170966   6.285   6.122   0.146  0.9645 -0.7334  0.1434
16517TIP3    H270967   6.364   6.232   0.080 -0.2888  0.2304  0.1985
16518TIP3   OH270968   0.077   5.296   2.129  0.1093 -0.2102  0.3522
16518TIP3    H170969  -0.008   5.311   2.086  0.2710  0.1768  0.1659
16518TIP3    H270970   0.136   5.357   2.086  0.2326  0.3277  1.2753
16519TIP3   OH270971   0.451   0.437  11.976 -0.1179 -0.4259 -0.3798
16519TIP3    H170972   0.410   0.453  12.061 -0.4343 -1.8815 -0.2325
16519TIP3    H270973   0.492   0.520  11.953 -1.1158  0.3643  0.5944
16520TIP3   OH270974   5.073   5.314  12.881 -0.7256 -0.4566 -0.1188
16520TIP3    H170975   5.094   5.400  12.844 -2.0634 -0.7032 -1.5497
16520TIP3    H270976   5.156   5.267  12.881 -0.0337  0.7068  0.3977
16521TIP3   OH270977   4.472   6.462   4.027 -0.1439  0.1895 -0.9357
16521TIP3    H170978   4.432   6.492   3.945 -2.1778  0.3501  0.0456
16521TIP3    H270979   4.564   6.486   4.018 -0.4065  0.6933 -2.9431
16522TIP3   OH270980   3.094   1.467   2.820  0.4619  0.4620  0.0372
16522TIP3    H170981   3.165   1.492   2.880 -0.5873 -1.9327  2.4715
16522TIP3    H270982   3.125   1.386   2.779  0.0134  0.5978 -0.5790
16523TIP3   OH270983   5.480   4.230   1.368  0.2506 -0.2270  0.3812
16523TIP3    H170984   5.570   4.253   1.345  0.5851 -0.5828  1.3063
16523TIP3    H270985   5.450   4.300   1.426  0.1245 -0.3940  0.5193
16524TIP3   OH270986   2.457   2.086   2.601  0.3336  0.4158 -0.2389
16524TIP3    H170987   2.435   2.060   2.691  0.7110 -0.7911 -0.4790
16524TIP3    H270988   2.433   2.010   2.548  0.5005  0.9657 -1.1066
16525TIP3   OH270989   3.067   2.706  12.586 -0.1086 -0.5798 -0.0208
16525TIP3    H170990   3.088   2.647  12.659  1.1439  0.6542  0.6669
16525TIP3    H270991   2.995   2.662  12.540 -0.8181 -1.4857  1.8456
16526TIP3   OH270992   5.613   5.924  12.740  0.9246 -0.1367  0.2476
16526TIP3    H170993   5.587   5.940  12.650  2.6763  1.9514  0.0399
16526TIP3    H270994   5.612   5.829  12.749 -3.7926 -0.3937 -0.4898
16527TIP3   OH270995   5.583   6.194   4.938 -0.1033  0.1684 -0.3903
16527TIP3    H170996   5.534   6.163   5.014  1.3643 -0.3716  0.3812
16527TIP3    H270997   5.539   6.154   4.863 -0.5230 -0.7210  0.3102
16528TIP3   OH270998   3.050   1.952   0.227 -0.2027 -0.3303 -0.3028
16528TIP3    H170999   3.129   2.006   0.228  1.0593 -2.1208  0.2128
16528TIP3    H271000   3.023   1.948   0.319 -0.0889 -0.8555 -0.2929
16529TIP3   OH271001   5.303   0.257   2.608 -0.4836 -0.7342  0.0449
16529TIP3    H171002   5.398   0.255   2.600 -0.3678  1.3076  0.4714
16529TIP3    H271003   5.284   0.338   2.653 -2.4646 -0.9532 -0.2963
16530TIP3   OH271004   2.459   3.773  11.776  0.1391  0.1436  0.4164
16530TIP3    H171005   2.539   3.721  11.773 -0.6740 -1.1306  0.0621
16530TIP3    H271006   2.479   3.850  11.723  1.5807  0.5451  1.4756
16531TIP3   OH271007   2.139   4.197   1.610  0.3025 -0.0512  0.0730
16531TIP3    H171008   2.146   4.291   1.592 -0.5904  0.0825  0.3761
16531TIP3    H271009   2.229   4.165   1.604  0.4625  0.5617 -1.4161
16532TIP3   OH271010   0.370   1.953  12.432 -0.0818 -0.1577 -0.0866
16532TIP3    H171011   0.292   2.003  12.407  0.7653  0.9152 -0.6409
16532TIP3    H271012   0.337   1.889  12.496 -1.5534 -0.2581 -0.8890
16533TIP3   OH271013   5.403   1.896  12.937 -0.4698 -0.1055 -0.3184
16533TIP3    H171014   5.374   1.806  12.952 -0.3182  0.1506  1.8144
16533TIP3    H271015   5.440   1.924  13.021  1.8033  1.1178 -1.6282
16534TIP3   OH271016   5.999   2.673  13.946 -0.4209 -0.6071  0.5684
16534TIP3    H171017   6.061   2.663  14.017  0.2122 -2.1813 -0.1541
16534TIP3    H271018   6.040   2.629  13.872 -2.8794 -2.8736  0.3914
16535TIP3   OH271019   3.019   4.643  17.072 -0.0434  0.1107  0.2486
16535TIP3    H171020   3.049   4.626  16.982  0.4567  0.2628  0.3833
16535TIP3    H271021   3.095   4.625  17.126  0.1874  1.6896  0.4962
16536TIP3   OH271022   2.449   5.535  14.858 -0.6016 -0.5765  0.2277
16536TIP3    H171023   2.533   5.495  14.882 -0.4198  0.1157  0.7958
16536TIP3    H271024   2.436   5.511  14.766  1.1140  0.8045 -0.4290
16537TIP3   OH271025   6.253   2.894   3.824 -0.2078 -0.1504 -0.6687
16537TIP3    H171026   6.183   2.898   3.759 -0.8768  2.5121  0.0792
16537TIP3    H271027   6.209   2.908   3.908  0.9870 -0.5878  0.0630
16538TIP3   OH271028   0.675   0.875   2.828 -0.3717 -0.3913 -0.0315
16538TIP3    H171029   0.586   0.909   2.818 -0.2557 -0.0927 -0.0700
16538TIP3    H271030   0.715   0.889   2.742  0.2873  1.1682  0.4973
16539TIP3   OH271031   4.028   3.447   4.517  0.1181  0.3757 -0.0460
16539TIP3    H171032   4.033   3.513   4.585  0.8233  0.3425 -0.0673
16539TIP3    H271033   4.098   3.469   4.456  0.5787 -0.5912  0.1237
16540TIP3   OH271034   5.237   1.592   3.739 -0.3477 -0.1524 -0.3715
16540TIP3    H171035   5.244   1.685   3.717 -1.0662 -0.1731 -0.7050
16540TIP3    H271036   5.212   1.591   3.831 -0.9460 -0.0006 -0.5287
16541TIP3   OH271037   2.796   0.443   5.733 -0.1598 -0.1094  0.8196
16541TIP3    H171038   2.763   0.533   5.729  0.7364  0.2412  0.8408
16541TIP3    H271039   2.885   0.450   5.696 -0.1732 -1.0325  0.6003
16542TIP3   OH271040   6.685   4.509   2.456 -0.2770  0.9609 -0.0569
16542TIP3    H171041   6.771   4.474   2.478  0.0295  0.4593 -1.9480
16542TIP3    H271042   6.700   4.603   2.443 -0.1552  0.9873  0.2606
16543TIP3   OH271043   4.789   0.702  12.975  0.4192  0.2347  0.7197
16543TIP3    H171044   4.851   0.754  13.026  0.2891  0.5297  0.5748
16543TIP3    H271045   4.797   0.613  13.011  0.4573  0.4039  1.1320
16544TIP3   OH271046   4.109   3.941   2.124  0.2002 -0.5174  0.4927
16544TIP3    H171047   4.185   3.903   2.169  0.8346  0.0666 -0.0650
16544TIP3    H271048   4.145   3.978   2.043 -0.3851  1.2281  0.9760
16545TIP3   OH271049   6.514   4.627  12.656  1.1864  0.7384 -0.1264
16545TIP3    H171050   6.507   4.559  12.723  0.7485  1.2236  0.3371
16545TIP3    H271051   6.435   4.618  12.604  1.5750  0.2983 -0.6481
16546TIP3   OH271052   5.797   1.172   1.872 -0.1642 -0.1900  0.4309
16546TIP3    H171053   5.725   1.114   1.896 -0.4950 -0.1293 -0.3803
16546TIP3    H271054   5.819   1.218   1.953  0.9484 -2.3292  1.4269
16547TIP3   OH271055   6.415   2.152   3.170  0.0328  0.3235 -0.1623
16547TIP3    H171056   6.445   2.082   3.229 -0.4617  0.7455  0.6084
16547TIP3    H271057   6.330   2.122   3.138  0.1697  0.2259 -0.4354
16548TIP3   OH271058   2.643   2.783   5.434 -0.3295  0.3321  0.5227
16548TIP3    H171059   2.678   2.861   5.390  0.8718  0.6546  1.9380
16548TIP3    H271060   2.564   2.813   5.478 -0.4066  0.5166  0.2571
16549TIP3   OH271061   0.695   4.677   5.930 -0.3962 -0.1097  0.5348
16549TIP3    H171062   0.750   4.599   5.938 -1.1809 -0.6627  0.6740
16549TIP3    H271063   0.717   4.730   6.007 -1.5685 -1.3137  1.7353
16550TIP3   OH271064   1.481   5.734   0.280 -0.3074  0.0197  0.3871
16550TIP3    H171065   1.527   5.661   0.324  0.7144  1.0050  1.0104
16550TIP3    H271066   1.523   5.812   0.314 -1.4110  0.9215 -0.2593
16551TIP3   OH271067   5.071   5.053  16.684 -0.3180  0.1466  0.1456
16551TIP3    H171068   5.108   4.968  16.659 -3.2558 -1.1366 -0.1429
16551TIP3    H271069   5.033   5.039  16.770 -0.9111  1.1543  0.0579
16552TIP3   OH271070   0.398   1.575  12.296  0.1219  0.0099  0.1923
16552TIP3    H171071   0.492   1.562  12.301  0.3183  1.3197  0.3481
16552TIP3    H271072   0.375   1.618  12.379 -0.2737  1.4233 -0.6108
16553TIP3   OH271073   6.276   3.418  16.200 -0.2728  0.2107  0.4932
16553TIP3    H171074   6.225   3.436  16.121  0.1249  0.4227  0.2856
16553TIP3    H271075   6.367   3.430  16.174 -0.1516  0.6405  1.0705
16554TIP3   OH271076   5.979   1.371  17.002  0.8735  0.0317  0.7220
16554TIP3    H171077   5.937   1.332  17.079  1.6087 -0.7774  0.7227
16554TIP3    H271078   5.911   1.427  16.964 -0.1402 -1.0535  0.8684
16555TIP3   OH271079   1.558   6.004   0.343 -0.6809 -0.3159  0.0410
16555TIP3    H171080   1.531   6.048   0.424  0.5489  1.2989 -0.3903
16555TIP3    H271081   1.653   6.014   0.340 -0.5507 -1.5659 -0.9360
16556TIP3   OH271082   0.821   3.834   5.891  0.1068 -0.7303  0.2259
16556TIP3    H171083   0.840   3.748   5.929  1.1737 -0.5205  0.1873
16556TIP3    H271084   0.816   3.893   5.966 -0.5780 -0.8008  0.2481
16557TIP3   OH271085   3.557   0.125  16.663  0.0644 -0.2052 -0.4622
16557TIP3    H171086   3.485   0.185  16.685 -0.2505 -1.4680  2.3475
16557TIP3    H271087   3.525   0.039  16.687  3.2187 -0.6006  3.3792
16558TIP3   OH271088   3.051   2.170  13.538 -0.1322 -0.8107 -0.1263
16558TIP3    H171089   2.999   2.096  13.570  1.1904 -1.2938  0.9786
16558TIP3    H271090   3.136   2.132  13.516  0.1769  0.1792 -0.6914
16559TIP3   OH271091   1.179   0.853  13.336 -0.4613 -0.6701  0.1852
16559TIP3    H171092   1.151   0.943  13.354 -2.3231 -1.3882  1.0910
16559TIP3    H271093   1.269   0.862  13.305 -0.8029  1.5511 -0.3257
16560TIP3   OH271094   4.494   2.358   6.281 -0.2160 -0.3175  0.1902
16560TIP3    H171095   4.426   2.342   6.347 -0.5115  1.9839  0.5478
16560TIP3    H271096   4.567   2.303   6.308 -0.6592 -0.1272  1.9338
16561TIP3   OH271097   5.482   6.141   6.187 -0.0998 -0.0063  0.8134
16561TIP3    H171098   5.514   6.103   6.105  0.8762  2.2750  0.0393
16561TIP3    H271099   5.490   6.071   6.251 -1.2479 -1.9820 -1.0863
16562TIP3   OH271100   4.249   4.215   3.230  0.2476 -0.6318 -0.3950
16562TIP3    H171101   4.336   4.180   3.212  1.1915  0.8255  1.0813
16562TIP3    H271102   4.203   4.145   3.276  1.8690 -0.2726  1.9255
16563TIP3   OH271103   3.562   5.571  11.239 -0.2333  0.0146 -0.3296
16563TIP3    H171104   3.474   5.535  11.240 -0.5134  0.4462 -2.8382
16563TIP3    H271105   3.593   5.557  11.149  2.5765 -0.8238  0.6393
16564TIP3   OH271106   4.810   1.750  15.220 -0.1672 -0.5795 -0.1920
16564TIP3    H171107   4.726   1.761  15.175  0.3902 -0.6271 -1.2839
16564TIP3    H271108   4.790   1.764  15.313 -1.3017 -0.2115 -0.4776
16565TIP3   OH271109   1.783   4.679   3.279 -1.0023  0.0320 -0.0571
16565TIP3    H171110   1.699   4.723   3.270 -1.3131 -0.5064  0.1374
16565TIP3    H271111   1.762   4.597   3.324 -0.5000 -0.4964 -0.7688
16566TIP3   OH271112   3.004   5.465  16.859  0.7388 -0.2033 -0.1299
16566TIP3    H171113   3.072   5.465  16.926 -0.5942 -0.8638  1.2836
16566TIP3    H271114   2.939   5.402  16.891  0.6053 -1.4772 -2.6407
16567TIP3   OH271115   1.037   4.104  16.930 -0.3097  0.3145  0.1393
16567TIP3    H171116   0.948   4.075  16.910 -0.2167 -0.1493  0.3875
16567TIP3    H271117   1.054   4.068  17.017  0.0247  0.6218  0.1982
16568TIP3   OH271118   1.115   6.359  11.382  0.2919  0.0565  0.4533
16568TIP3    H171119   1.159   6.439  11.356  1.0039 -0.6237 -0.5018
16568TIP3    H271120   1.185   6.303  11.417  0.0583 -0.7051 -0.2716
16569TIP3   OH271121   3.042   6.266  13.446  0.1936 -0.5851 -0.2362
16569TIP3    H171122   3.072   6.178  13.426  2.4256  0.5426 -2.4081
16569TIP3    H271123   3.092   6.292  13.524 -2.4667 -2.0740  2.1395
16570TIP3   OH271124   0.937   4.767  17.025  0.1825  0.0987  0.0085
16570TIP3    H171125   0.926   4.749  16.931 -2.5650 -0.0342  0.2774
16570TIP3    H271126   0.905   4.688  17.068  1.3328  0.2008  1.0802
16571TIP3   OH271127   5.741   4.377   5.180 -0.2900 -0.1606  0.1275
16571TIP3    H171128   5.819   4.424   5.208 -0.5338  0.7204 -0.6341
16571TIP3    H271129   5.690   4.365   5.260 -0.0535  0.5447  0.3903
16572TIP3   OH271130   5.456   2.447  13.222  0.1981  0.4465 -0.2926
16572TIP3    H171131   5.388   2.511  13.244 -0.3811  0.0931 -1.0220
16572TIP3    H271132   5.488   2.416  13.307 -0.3385  0.8393  0.0592
16573TIP3   OH271133   5.372   3.769   5.795 -0.1972  0.4770  0.2926
16573TIP3    H171134   5.310   3.698   5.776 -0.0897 -0.0980  1.9602
16573TIP3    H271135   5.318   3.836   5.837  0.0458  0.5887  0.4246
16574TIP3   OH271136   5.285   3.522   1.490  0.3064  0.5039 -0.0658
16574TIP3    H171137   5.230   3.471   1.431  0.6839 -0.5966  0.5132
16574TIP3    H271138   5.224   3.569   1.546 -0.0949 -1.2525  1.0473
16575TIP3   OH271139   6.400   5.564  15.261 -0.8562  0.3223 -0.5345
16575TIP3    H171140   6.352   5.625  15.205 -1.1648 -2.2455 -3.3363
16575TIP3    H271141   6.492   5.579  15.239 -0.8431  0.4833 -0.3802
16576TIP3   OH271142   2.318   3.172  16.131  0.0560  0.1285  0.1019
16576TIP3    H171143   2.337   3.156  16.038 -1.2573 -0.4164 -0.0878
16576TIP3    H271144   2.264   3.098  16.157  2.8504 -1.3750  2.1391
16577TIP3   OH271145   1.181   4.067   2.839  0.2210  0.0389  0.2042
16577TIP3    H171146   1.271   4.038   2.822  0.2615  1.2833 -2.0791
16577TIP3    H271147   1.129   3.986   2.837  1.3053 -0.7647  2.0920
16578TIP3   OH271148   6.155   5.356   4.275  0.0337  0.2980 -0.6447
16578TIP3    H171149   6.156   5.276   4.327 -0.6518  0.7304  0.0707
16578TIP3    H271150   6.076   5.349   4.222  0.2880  0.2324 -1.0137
16579TIP3   OH271151   6.146   2.838   2.503 -0.3822 -0.0616  0.1536
16579TIP3    H171152   6.192   2.755   2.512  1.0865  0.6319 -0.6444
16579TIP3    H271153   6.117   2.839   2.411 -1.3040 -0.1241  0.4307
16580TIP3   OH271154   4.453   6.329   4.313  0.2637  0.3423 -0.4238
16580TIP3    H171155   4.469   6.350   4.221 -2.5094  0.8417 -0.8991
16580TIP3    H271156   4.402   6.248   4.311  1.5726 -0.5644  0.8180
16581TIP3   OH271157   4.700   6.631  13.240 -0.0998 -0.2045 -0.6054
16581TIP3    H171158   4.766   6.605  13.175  0.9569 -0.6944  0.6077
16581TIP3    H271159   4.750   6.641  13.321 -1.4573 -0.0386  0.2335
16582TIP3   OH271160   0.325   0.740  12.074  0.5916 -0.7436 -0.0453
16582TIP3    H171161   0.348   0.776  12.160  0.4744 -3.3817  1.1792
16582TIP3    H271162   0.295   0.651  12.092 -1.3756 -0.7282 -2.6296
16583TIP3   OH271163   0.818   1.420   1.784  0.4212  0.1302 -0.2193
16583TIP3    H171164   0.835   1.473   1.862  0.7870 -0.0497 -0.1760
16583TIP3    H271165   0.904   1.411   1.742  0.3416 -0.3321 -0.2860
16584TIP3   OH271166   6.587   5.581  14.496  0.3501  0.5670  0.4785
16584TIP3    H171167   6.657   5.516  14.507  0.7809  1.1849  1.4918
16584TIP3    H271168   6.620   5.641  14.429  0.2264  0.1160  0.0083
16585TIP3   OH271169   1.692   4.923  15.880  0.1553  0.2232 -0.5637
16585TIP3    H171170   1.601   4.953  15.876 -0.6255 -1.9148 -0.3503
16585TIP3    H271171   1.695   4.849  15.819  1.4110 -0.5058  0.3427
16586TIP3   OH271172   6.489   2.699  12.958  0.2132 -0.4601  0.2854
16586TIP3    H171173   6.544   2.652  12.895 -0.6306 -2.7181  1.1321
16586TIP3    H271174   6.534   2.687  13.042  0.0411  0.3826  0.5058
16587TIP3   OH271175   2.857   6.099   5.683  0.1455  0.4915 -0.0379
16587TIP3    H171176   2.885   6.169   5.741  1.7030 -1.7128  2.0969
16587TIP3    H271177   2.771   6.073   5.715 -0.0654  0.8836 -0.2896
16588TIP3   OH271178   5.711   5.536  13.291 -0.2715  0.1922  0.2045
16588TIP3    H171179   5.746   5.472  13.353 -1.4857 -0.9610 -0.2320
16588TIP3    H271180   5.772   5.532  13.216  0.9546  1.2820  1.0933
16589TIP3   OH271181   3.475   4.412  12.524 -0.2604 -0.0724  0.2797
16589TIP3    H171182   3.533   4.486  12.504  0.3766 -0.3867  0.9299
16589TIP3    H271183   3.389   4.452  12.536 -0.1680  0.4189 -0.5670
16590TIP3   OH271184   3.118   0.909   1.847  0.3198 -0.3024  0.5239
16590TIP3    H171185   3.129   0.933   1.755  0.4285 -0.7927  0.4036
16590TIP3    H271186   3.157   0.981   1.896 -1.5309  0.9661  0.2525
16591TIP3   OH271187   5.752   2.849  15.759  0.1960 -0.2509  0.2963
16591TIP3    H171188   5.788   2.823  15.844 -0.7787 -0.3657  0.6870
16591TIP3    H271189   5.689   2.918  15.780  0.9831  0.7498 -0.4890
16592TIP3   OH271190   0.269   2.087  17.071  0.0758  0.5232 -0.1006
16592TIP3    H171191   0.315   2.112  16.991 -0.9010 -0.3306 -0.9570
16592TIP3    H271192   0.320   2.127  17.141  1.4152  0.6261 -1.0880
16593TIP3   OH271193   5.176   3.629   4.003  0.0364 -0.0277  0.0473
16593TIP3    H171194   5.125   3.551   4.024 -0.5962  0.3829  0.0573
16593TIP3    H271195   5.246   3.597   3.947 -0.5343 -0.5181 -0.4030
16594TIP3   OH271196   6.787   3.277  15.897  0.0957  0.5600  0.0264
16594TIP3    H171197   6.835   3.359  15.900  0.2890  0.4299  0.5820
16594TIP3    H271198   6.804   3.236  15.981  0.4822 -0.3227 -0.4659
16595TIP3   OH271199   1.047   1.176  12.290 -0.4639 -0.2628 -0.2117
16595TIP3    H171200   1.111   1.113  12.323  1.0510  0.0444 -2.3012
16595TIP3    H271201   1.075   1.260  12.326  0.2519 -0.1600 -0.9596
16596TIP3   OH271202   1.792   4.771   5.076 -0.4389 -0.0586 -0.2795
16596TIP3    H171203   1.752   4.853   5.046 -2.7691 -0.7309  0.8179
16596TIP3    H271204   1.803   4.719   4.996 -0.8219  0.5322 -0.7240
16597TIP3   OH271205   3.354   2.645  13.895  0.3490 -0.0870 -0.1835
16597TIP3    H171206   3.327   2.601  13.976  0.5373  0.8956  0.4394
16597TIP3    H271207   3.291   2.615  13.829 -0.6442  0.1080  0.6385
16598TIP3   OH271208   3.202   4.772  13.460 -0.1243 -0.1280 -0.6241
16598TIP3    H171209   3.119   4.817  13.477  0.8907  1.0110  1.7115
16598TIP3    H271210   3.267   4.819  13.513  1.8545 -1.5900 -1.6044
16599TIP3   OH271211   0.630   3.479   1.019  0.6345 -0.3337  0.1687
16599TIP3    H171212   0.643   3.400   0.966  0.5184  0.2105 -0.6906
16599TIP3    H271213   0.712   3.488   1.068  0.8246 -0.7390 -0.0659
16600TIP3   OH271214   5.611   5.313   1.020  0.3256 -0.2272  0.1722
16600TIP3    H171215   5.536   5.275   0.974  0.1048  0.3858  0.0265
16600TIP3    H271216   5.683   5.252   1.002 -0.1369 -0.8298  0.3335
16601TIP3   OH271217   1.848   4.074  14.138 -0.1233 -0.2337  0.5745
16601TIP3    H171218   1.800   4.125  14.073 -1.5269 -0.8286  1.1057
16601TIP3    H271219   1.904   4.139  14.182  1.0468  0.1243 -1.3434
16602TIP3   OH271220   1.590   1.393  14.324  0.3795 -0.4239 -0.6044
16602TIP3    H171221   1.678   1.422  14.349  0.5131 -0.4744 -1.0155
16602TIP3    H271222   1.572   1.320  14.382 -0.3021  0.9823  1.0453
16603TIP3   OH271223   5.448   4.410   1.079 -0.2339 -0.4563 -0.7279
16603TIP3    H171224   5.459   4.338   1.142  1.3599 -0.9138 -1.4872
16603TIP3    H271225   5.451   4.489   1.133 -0.6594 -0.8920 -0.0375
16604TIP3   OH271226   5.097   1.965  12.909 -0.2911 -0.2874  0.2095
16604TIP3    H171227   5.117   2.003  12.995 -0.5957 -0.9283  0.5782
16604TIP3    H271228   5.173   1.910  12.890  0.6594  1.3096 -0.8320
16605TIP3   OH271229   1.762   5.989  10.891 -0.1707 -0.0543  0.3704
16605TIP3    H171230   1.683   5.994  10.944 -1.3134  0.4472 -1.3093
16605TIP3    H271231   1.826   6.044  10.937 -1.5137  1.3848  0.5756
16606TIP3   OH271232   4.569   3.636   3.940 -0.4925  0.2283 -0.5239
16606TIP3    H171233   4.659   3.668   3.950 -0.6887  1.4852 -2.2829
16606TIP3    H271234   4.578   3.553   3.894 -0.2247  0.6272 -1.2179
16607TIP3   OH271235   2.616   3.480  15.452 -0.2989  0.0061 -0.3733
16607TIP3    H171236   2.610   3.540  15.526 -1.2374 -1.7835  1.1008
16607TIP3    H271237   2.700   3.501  15.411  0.5641  0.6524  1.6031
16608TIP3   OH271238   2.788   1.832  14.296  0.0536 -0.5257 -0.1841
16608TIP3    H171239   2.788   1.771  14.370  2.4039 -2.0216 -1.2904
16608TIP3    H271240   2.837   1.908  14.327 -0.3194 -0.4635  0.2639
16609TIP3   OH271241   0.239   4.584   5.173  0.2282  0.1354 -0.1542
16609TIP3    H171242   0.216   4.619   5.259  1.9892  1.0121  0.0104
16609TIP3    H271243   0.332   4.561   5.181 -0.1786 -2.1341 -1.0782
16610TIP3   OH271244   3.452   0.886   4.097  0.0319 -0.4661 -0.0249
16610TIP3    H171245   3.405   0.939   4.162 -0.7303 -0.2144 -0.7659
16610TIP3    H271246   3.544   0.893   4.123 -0.0556  1.1013 -0.0003
16611TIP3   OH271247   3.573   3.728   0.894 -0.7028  0.0380 -0.5469
16611TIP3    H171248   3.542   3.780   0.967 -0.2999 -0.0844 -0.2809
16611TIP3    H271249   3.662   3.703   0.919 -0.7875 -0.5348 -0.7934
16612TIP3   OH271250   2.981   0.003  16.557 -0.3924 -0.0634 -0.1224
16612TIP3    H171251   3.002  -0.089  16.543  1.0830  0.2124  0.1669
16612TIP3    H271252   2.945   0.033  16.473 -1.1152 -0.9514 -0.1390
16613TIP3   OH271253   5.668   6.569   1.982  0.1270 -0.2373 -0.0794
16613TIP3    H171254   5.679   6.610   1.896 -3.6117 -0.1946 -0.6908
16613TIP3    H271255   5.629   6.483   1.963 -0.2020 -0.4735  1.5259
16614TIP3   OH271256   1.476   4.878  12.235  0.4275  0.4878 -0.7161
16614TIP3    H171257   1.427   4.808  12.279 -0.4016  1.0380 -0.7602
16614TIP3    H271258   1.517   4.834  12.160 -1.4136  0.3528 -1.6965
16615TIP3   OH271259   5.541   4.637   0.733  0.4326  0.4072 -0.7130
16615TIP3    H171260   5.521   4.698   0.662 -1.2725 -1.1855 -1.6578
16615TIP3    H271261   5.557   4.554   0.690 -0.8944 -0.6698  0.7795
16616TIP3   OH271262   1.053   2.044  15.391 -0.7147 -0.0317 -0.4180
16616TIP3    H171263   1.134   1.998  15.366 -0.2853  1.1116 -1.2233
16616TIP3    H271264   0.990   1.974  15.406 -0.2057 -0.9097 -2.0522
16617TIP3   OH271265   4.315   1.221  12.825  0.2160  0.1946  0.0402
16617TIP3    H171266   4.409   1.213  12.812  0.4785  1.0873  1.2519
16617TIP3    H271267   4.293   1.149  12.885  0.2247  0.3170  0.1908
16618TIP3   OH271268   6.651   2.912   3.992 -0.2256 -0.1550  0.1989
16618TIP3    H171269   6.689   2.999   3.983  1.6772 -0.9184  0.3674
16618TIP3    H271270   6.582   2.922   4.058  1.8419  0.7099  2.3864
16619TIP3   OH271271   5.302   6.008  16.519  0.2369  0.2960 -0.0962
16619TIP3    H171272   5.369   5.940  16.531 -1.8956 -1.5890  2.9378
16619TIP3    H271273   5.347   6.090  16.538  1.9515 -0.7854  0.8067
16620TIP3   OH271274   6.484   2.141  12.001 -0.4278 -0.1159 -0.3619
16620TIP3    H171275   6.431   2.064  12.021 -1.0329  0.0867 -1.1547
16620TIP3    H271276   6.422   2.207  11.972 -0.1768  1.4073  2.2064
16621TIP3   OH271277   1.957   6.573   0.636  0.4954  0.7824 -0.2994
16621TIP3    H171278   1.866   6.596   0.623  0.0785 -0.2432  0.6289
16621TIP3    H271279   1.996   6.577   0.548 -1.0204 -1.1315 -1.1279
16622TIP3   OH271280   3.266   0.622  15.276 -1.1254 -0.8719  0.0465
16622TIP3    H171281   3.221   0.538  15.286 -0.9874 -1.0585 -0.8119
16622TIP3    H271282   3.290   0.625  15.183 -3.7694  1.4409 -0.7062
16623TIP3   OH271283   2.768   2.743  16.456 -0.2362 -0.1371 -0.3335
16623TIP3    H171284   2.818   2.721  16.377  0.4721 -0.7414  0.2593
16623TIP3    H271285   2.835   2.772  16.519 -0.8252  0.6444 -0.0543
16624TIP3   OH271286   4.622   0.161   0.320 -0.2625  0.0729 -0.2708
16624TIP3    H171287   4.529   0.181   0.331 -0.2216 -0.3512  1.0249
16624TIP3    H271288   4.668   0.235   0.359 -0.0598  0.0976 -0.5541
16625TIP3   OH271289   2.539   2.593  14.325  0.6458  0.1082 -0.4179
16625TIP3    H171290   2.466   2.550  14.282  0.6161 -0.0778 -0.1826
16625TIP3    H271291   2.575   2.527  14.384  0.4084  0.5045  0.1724
16626TIP3   OH271292   6.553   3.210  14.926  0.0106 -0.0966 -0.2079
16626TIP3    H171293   6.600   3.281  14.971 -2.0438  1.5011 -0.4386
16626TIP3    H271294   6.568   3.227  14.833  0.6465 -0.8140 -0.2447
16627TIP3   OH271295   5.176   5.651   5.748  0.4237  0.2352 -0.2402
16627TIP3    H171296   5.156   5.744   5.744 -0.0439  0.1071 -1.2897
16627TIP3    H271297   5.193   5.634   5.841  2.0707  1.6637 -0.2186
16628TIP3   OH271298   6.313   6.209   5.829 -0.2543  0.7337  0.2387
16628TIP3    H171299   6.264   6.256   5.897  1.0708  1.1138  0.9678
16628TIP3    H271300   6.390   6.175   5.874 -0.1197 -0.3371 -0.7528
16629TIP3   OH271301   1.923   0.622   0.141  0.1690  0.0524 -0.2066
16629TIP3    H171302   1.872   0.580   0.210 -0.9740  1.3462 -0.2148
16629TIP3    H271303   1.950   0.706   0.178 -1.8214  1.5086 -1.7737
16630TIP3   OH271304   5.935   5.356   0.497 -0.4735  0.2762  0.0517
16630TIP3    H171305   5.841   5.363   0.511 -0.1921  0.5614  2.0952
16630TIP3    H271306   5.951   5.263   0.481 -0.9164 -0.1255  1.6961
16631TIP3   OH271307   1.023   0.959  13.847  0.1621  0.6383 -0.0434
16631TIP3    H171308   1.020   0.934  13.755  0.3253  1.3349 -0.2426
16631TIP3    H271309   1.028   0.876  13.894 -0.7538  0.2420 -0.6205
16632TIP3   OH271310   2.445   3.593  12.615 -0.2413  0.1998 -0.1351
16632TIP3    H171311   2.457   3.528  12.545  0.5267  0.4142 -0.2026
16632TIP3    H271312   2.421   3.540  12.692  0.9062 -0.2299 -0.0511
16633TIP3   OH271313   2.450   0.406   1.526  0.4763 -0.4238 -0.2645
16633TIP3    H171314   2.476   0.314   1.536  1.5900 -0.0456  0.5264
16633TIP3    H271315   2.533   0.454   1.519 -0.0487  0.6494  0.5722
16634TIP3   OH271316   2.783   3.611  17.167 -0.1090 -0.5791 -0.1216
16634TIP3    H171317   2.856   3.551  17.183  0.3473 -0.6716 -2.1655
16634TIP3    H271318   2.822   3.698  17.172  0.4114 -0.6488 -2.0588
16635TIP3   OH271319   2.427   5.982  13.093  0.5591  0.3367 -0.0099
16635TIP3    H171320   2.437   5.908  13.033 -0.5061 -1.3297  1.7620
16635TIP3    H271321   2.404   6.055  13.037 -0.8287 -1.2471 -1.6080
16636TIP3   OH271322   1.305   5.915   5.117 -0.2172 -0.4850  0.2509
16636TIP3    H171323   1.254   5.902   5.196  1.7814  1.4501  1.9982
16636TIP3    H271324   1.375   5.849   5.122  1.0936  0.9027  1.2522
16637TIP3   OH271325   3.092   0.693   5.210 -0.0100  0.2849  0.1197
16637TIP3    H171326   3.017   0.731   5.166  0.2508  1.3461  0.5700
16637TIP3    H271327   3.105   0.746   5.288  1.5095  0.4494 -0.2035
16638TIP3   OH271328   2.810   1.219  13.423 -0.1728 -0.0912 -0.7262
16638TIP3    H171329   2.852   1.300  13.452  1.4472 -1.1659  0.1177
16638TIP3    H271330   2.740   1.204  13.487 -0.9717  1.0074 -1.3231
16639TIP3   OH271331   3.299   0.473   3.118  0.0191  0.6507  0.0189
16639TIP3    H171332   3.323   0.561   3.089 -0.3231  1.2458  1.4439
16639TIP3    H271333   3.324   0.416   3.045  0.8074  1.8505 -0.6901
16640TIP3   OH271334   4.797   2.838   4.920  0.4804 -0.0668 -0.2690
16640TIP3    H171335   4.808   2.918   4.971  2.2889 -0.4165 -0.0273
16640TIP3    H271336   4.727   2.791   4.964 -0.4828  1.2851 -0.3069
16641TIP3   OH271337   1.464   6.032  14.715  0.0281 -0.1071  0.5896
16641TIP3    H171338   1.375   6.005  14.736  0.3430  0.2531  2.5223
16641TIP3    H271339   1.489   6.090  14.786  1.1290  1.3776 -0.9375
16642TIP3   OH271340   3.020   2.023  14.940  0.0029 -0.3457 -0.0651
16642TIP3    H171341   3.081   2.080  14.987 -0.8517  0.5999 -0.0571
16642TIP3    H271342   2.935   2.067  14.949 -0.8267 -1.9761  0.5391
16643TIP3   OH271343   6.462   5.521   5.953  0.3514 -0.0039 -0.0344
16643TIP3    H171344   6.534   5.463   5.928  0.6214  0.4626 -0.3515
16643TIP3    H271345   6.499   5.576   6.022 -0.3600 -1.2176  1.3794
16644TIP3   OH271346   3.697   3.758  14.219 -0.2032  0.4431  0.1032
16644TIP3    H171347   3.679   3.758  14.125  0.4710  0.0658 -0.0292
16644TIP3    H271348   3.781   3.803  14.227  0.9342 -1.6106  0.2818
16645TIP3   OH271349   0.441   2.736   5.655 -0.3904 -0.1566 -0.0507
16645TIP3    H171350   0.461   2.692   5.572  0.6531 -0.5467  0.3797
16645TIP3    H271351   0.425   2.827   5.631  0.4866 -0.1426 -0.6296
16646TIP3   OH271352   5.916   3.979   6.005 -0.0755  0.1367 -0.5425
16646TIP3    H171353   5.902   3.901   5.952 -1.3342  0.6902 -1.0526
16646TIP3    H271354   5.920   3.946   6.095  0.6288 -0.6344 -0.8363
16647TIP3   OH271355   3.857   5.942  15.961 -0.3538  0.0415 -0.2239
16647TIP3    H171356   3.794   5.995  16.010 -0.1416  0.6414 -0.5830
16647TIP3    H271357   3.904   6.006  15.907  0.0864 -0.4875 -0.4697
16648TIP3   OH271358   2.547   2.075   1.899 -0.3121  0.0771  0.9681
16648TIP3    H171359   2.528   2.043   1.987  1.0868  0.4808  1.4519
16648TIP3    H271360   2.643   2.071   1.892 -0.3891  0.1830 -0.4852
16649TIP3   OH271361   0.594   4.072  12.630 -0.5747  0.1190 -0.1633
16649TIP3    H171362   0.689   4.065  12.643 -0.3964  1.5622 -0.5281
16649TIP3    H271363   0.566   3.982  12.614  0.9356 -0.1895 -1.3355
16650TIP3   OH271364   3.158   2.541   2.273  0.0192  0.0430  0.4954
16650TIP3    H171365   3.183   2.457   2.237  1.5357 -0.1270  1.8333
16650TIP3    H271366   3.123   2.521   2.360 -1.5676  0.6321  0.0383
16651TIP3   OH271367   2.708   6.293   3.945  0.3206  0.3397  0.1151
16651TIP3    H171368   2.710   6.200   3.968 -1.6970  0.0711 -0.5422
16651TIP3    H271369   2.730   6.295   3.852 -2.4113  0.1066 -0.6413
16652TIP3   OH271370   1.573   0.185   3.592 -0.3605 -0.4476 -0.1874
16652TIP3    H171371   1.501   0.236   3.629  0.9200  2.9680 -1.9527
16652TIP3    H271372   1.549   0.173   3.500  0.9959  0.1550 -0.6377
16653TIP3   OH271373   2.752   3.488  15.740  0.5941  0.8946  0.8938
16653TIP3    H171374   2.734   3.581  15.751 -2.0062  0.7906 -1.2767
16653TIP3    H271375   2.726   3.448  15.823 -1.9995  1.7611  0.5814
16654TIP3   OH271376   1.866   4.160   1.031  0.3175 -0.5205  0.5983
16654TIP3    H171377   1.947   4.194   0.994  0.1836 -0.3153  0.4901
16654TIP3    H271378   1.847   4.082   0.980  1.3686 -1.5762  1.7516
16655TIP3   OH271379   0.899   2.351  15.567 -0.6093 -0.0873  0.4105
16655TIP3    H171380   0.865   2.325  15.653  0.1882  0.9710  1.0725
16655TIP3    H271381   0.838   2.418  15.537 -2.0072 -1.7867 -0.7764
16656TIP3   OH271382   6.704   1.556   5.307  0.1340 -0.1487 -0.5069
16656TIP3    H171383   6.638   1.603   5.256 -0.3248 -0.7791 -0.5057
16656TIP3    H271384   6.702   1.467   5.273  0.6240 -0.3000 -0.1528
16657TIP3   OH271385   2.047   4.546   6.377 -0.2578  0.0676 -0.5121
16657TIP3    H171386   2.068   4.634   6.409  0.0809 -0.2843  0.2757
16657TIP3    H271387   2.086   4.488   6.442 -0.7490 -0.6598 -0.8588
16658TIP3   OH271388   4.188   4.272  12.091 -0.3892 -0.5082 -0.0196
16658TIP3    H171389   4.199   4.253  12.184 -1.2029 -0.7545  0.0363
16658TIP3    H271390   4.095   4.260  12.075 -0.7179  2.0539 -0.3259
16659TIP3   OH271391   1.902   3.821   4.236  0.1511  0.1836 -0.1733
16659TIP3    H171392   1.835   3.864   4.184 -0.0874  1.2634  0.9799
16659TIP3    H271393   1.915   3.879   4.311  0.6032 -1.2243  0.8763
16660TIP3   OH271394   3.652   2.726  15.837 -0.3409 -0.7208 -0.2899
16660TIP3    H171395   3.690   2.649  15.795 -0.7633 -0.7817 -0.5753
16660TIP3    H271396   3.601   2.768  15.767 -1.6906 -1.2459  0.3496
16661TIP3   OH271397   0.967   5.437  13.428  0.2038  0.0766 -0.2043
16661TIP3    H171398   1.001   5.497  13.362  1.8574 -0.4028  0.1611
16661TIP3    H271399   0.904   5.383  13.381  0.7966  0.2375 -1.2258
16662TIP3   OH271400   2.310   4.341   1.056  0.0247  0.1891  0.7286
16662TIP3    H171401   2.284   4.282   1.127  2.6894 -2.5954 -0.3628
16662TIP3    H271402   2.244   4.327   0.988  0.5373 -1.5626  0.5405
16663TIP3   OH271403   3.984   5.086   3.597 -1.0175 -0.6111 -0.1486
16663TIP3    H171404   3.964   5.133   3.517  0.4586  0.9141  0.3160
16663TIP3    H271405   3.955   4.996   3.581  0.4707 -0.6916 -2.8977
16664TIP3   OH271406   3.993   5.380   4.583  0.2949 -0.0248 -0.2833
16664TIP3    H171407   4.065   5.353   4.639  0.8891  0.0910 -0.9720
16664TIP3    H271408   3.991   5.314   4.513  0.2079  0.3725 -0.6621
16665TIP3   OH271409   2.623   2.243  12.014 -0.2993 -0.2294 -0.3200
16665TIP3    H171410   2.538   2.240  12.059 -0.1543  1.2975  0.1295
16665TIP3    H271411   2.657   2.154  12.021 -1.4311 -0.6390  0.3526
16666TIP3   OH271412   5.371   4.944   0.247  0.4472 -0.2240 -0.0677
16666TIP3    H171413   5.453   4.979   0.281  1.5744 -2.4541 -0.2770
16666TIP3    H271414   5.364   4.979   0.158  1.1770 -0.0080 -0.0400
16667TIP3   OH271415   0.266   5.414  10.527  0.1214 -0.3505  0.9869
16667TIP3    H171416   0.199   5.436  10.591 -1.3010  0.2286 -0.6284
16667TIP3    H271417   0.279   5.494  10.476  1.1656 -0.8124  0.4808
16668TIP3   OH271418   0.871   5.206  15.593  0.3387 -0.2997  0.1765
16668TIP3    H171419   0.838   5.182  15.679 -3.3282  0.9606 -0.6946
16668TIP3    H271420   0.866   5.126  15.542  0.2387 -0.5164  0.5197
16669TIP3   OH271421   4.348   5.919  15.463  0.1667  0.3392 -0.4610
16669TIP3    H171422   4.276   5.981  15.472 -0.5836 -0.1749 -2.3026
16669TIP3    H271423   4.403   5.956  15.394  0.4767 -0.3139 -0.5750
16670TIP3   OH271424   5.352   6.703   0.540 -0.4134  0.2279 -0.0479
16670TIP3    H171425   5.406   6.763   0.590  1.6145 -1.6625  0.1774
16670TIP3    H271426   5.264   6.740   0.545  0.1099  1.3338  2.9846
16671TIP3   OH271427   3.272   5.799   4.243  0.1118 -0.0725 -1.0548
16671TIP3    H171428   3.301   5.886   4.216  1.4811  0.4705  1.7744
16671TIP3    H271429   3.176   5.803   4.238  0.1781  1.3454 -1.6488
16672TIP3   OH271430   3.713   4.001   0.757 -0.3104  0.3234  0.1404
16672TIP3    H171431   3.781   3.985   0.692  0.6594 -0.4817  1.3007
16672TIP3    H271432   3.712   3.921   0.810 -2.5764  0.0687 -0.1827
16673TIP3   OH271433   3.261   0.917  14.130  0.1886 -0.0339  0.0444
16673TIP3    H171434   3.353   0.918  14.104 -0.5273  1.4671 -2.8771
16673TIP3    H271435   3.260   0.962  14.215  2.1854 -0.7767  0.5277
16674TIP3   OH271436   4.060   5.977  11.770  0.4850 -0.0441  0.5319
16674TIP3    H171437   4.150   5.987  11.801  1.2735 -1.2340 -1.1825
16674TIP3    H271438   4.069   5.959  11.676 -1.4845 -1.1838  0.5087
16675TIP3   OH271439   5.799   5.977  10.992  0.0825 -0.1397  0.3078
16675TIP3    H171440   5.749   5.977  10.910  1.5082  0.6589 -0.6018
16675TIP3    H271441   5.829   5.887  11.002  0.0167 -0.2082 -0.1179
16676TIP3   OH271442   5.061   0.575  12.784  0.1770  0.7973  0.0238
16676TIP3    H171443   5.009   0.572  12.703  1.6777 -2.0398 -0.9934
16676TIP3    H271444   5.017   0.513  12.843 -0.4414  2.2331  1.1138
16677TIP3   OH271445   1.220   6.632  10.957  0.5901  0.5033 -0.5232
16677TIP3    H171446   1.169   6.571  10.904 -1.1106  0.2231  1.2943
16677TIP3    H271447   1.184   6.719  10.934  0.4759  0.4673 -0.4840
16678TIP3   OH271448   6.145   5.062  10.325  0.5093  0.2024  0.2794
16678TIP3    H171449   6.085   5.010  10.379  0.1881 -1.5708 -1.6791
16678TIP3    H271450   6.229   5.018  10.333  1.1859  1.6491  1.5916
16679TIP3   OH271451   6.224   4.467   5.554 -0.3621  0.0334  0.1184
16679TIP3    H171452   6.208   4.558   5.528  1.6652  0.1821 -0.7538
16679TIP3    H271453   6.200   4.465   5.647  0.6110  1.7561  0.4517
16680TIP3   OH271454   4.129   1.054  15.537  0.0333 -0.0217 -0.4124
16680TIP3    H171455   4.153   0.980  15.592  1.1317  0.5288 -0.1102
16680TIP3    H271456   4.213   1.091  15.509 -0.4777  1.2710 -0.3118
16681TIP3   OH271457   0.720   3.820  11.651 -0.1914  0.4013 -0.4880
16681TIP3    H171458   0.775   3.868  11.713  2.2423 -0.8591 -1.5194
16681TIP3    H271459   0.646   3.879  11.634 -0.0286  1.5148  2.1867
16682TIP3   OH271460   2.285   1.079  16.589  0.6207  0.5001  0.4762
16682TIP3    H171461   2.289   1.005  16.649 -1.5709 -0.6452 -0.6737
16682TIP3    H271462   2.281   1.040  16.502  1.7397  2.0672 -0.3285
16683TIP3   OH271463   0.150   1.889   4.735 -0.0459  0.4032  0.1001
16683TIP3    H171464   0.109   1.804   4.716 -1.4610  0.8649  0.9714
16683TIP3    H271465   0.141   1.938   4.653  0.8039 -0.2740 -0.4190
16684TIP3   OH271466   5.903   0.277  11.718 -0.1070  0.3629  0.7077
16684TIP3    H171467   5.814   0.260  11.748 -1.1919  0.5978 -2.0426
16684TIP3    H271468   5.933   0.350  11.773 -1.9719  0.8656  1.1393
16685TIP3   OH271469   2.652   2.024   4.789 -0.0133  0.0892 -0.5667
16685TIP3    H171470   2.701   2.078   4.727  2.0878 -1.4934 -0.3802
16685TIP3    H271471   2.710   1.951   4.808 -1.4555 -0.5581  1.6941
16686TIP3   OH271472   6.788   3.583  13.141 -0.4777  0.4163  0.1350
16686TIP3    H171473   6.781   3.504  13.194 -0.0820  0.8470  0.8437
16686TIP3    H271474   6.788   3.655  13.204 -1.8850  1.0554 -0.5564
16687TIP3   OH271475   6.731   2.362   5.500 -0.0321  0.4956  0.2394
16687TIP3    H171476   6.721   2.271   5.474  0.0075  0.4051  0.5278
16687TIP3    H271477   6.645   2.401   5.487  0.3685  0.8736 -1.5620
16688TIP3   OH271478   2.511   1.760  13.534  0.7286  0.4273 -0.8438
16688TIP3    H171479   2.483   1.671  13.516  1.8533  0.3118 -2.1662
16688TIP3    H271480   2.520   1.764  13.629 -0.9253 -0.3474 -0.6189
16689TIP3   OH271481   4.160   4.594  10.590 -0.7433 -0.6237  0.2803
16689TIP3    H171482   4.122   4.587  10.503 -1.3603 -0.6148  0.5401
16689TIP3    H271483   4.085   4.610  10.648 -0.3594 -0.7588  0.8289
16690TIP3   OH271484   6.663   4.310  11.649 -0.6957 -0.5416  0.0858
16690TIP3    H171485   6.687   4.306  11.742 -1.5102 -2.5413  0.2389
16690TIP3    H271486   6.668   4.404  11.628  3.0148 -0.3434  1.1689
16691TIP3   OH271487   2.215   1.408   2.251 -0.2535  0.2562 -0.0924
16691TIP3    H171488   2.198   1.476   2.185 -0.4813  1.3466  1.0444
16691TIP3    H271489   2.151   1.339   2.232 -0.5084  0.6879 -0.8371
16692TIP3   OH271490   4.908   4.253  12.897 -0.0599 -0.2237  0.2032
16692TIP3    H171491   4.842   4.188  12.923 -0.9033  0.7085  0.4781
16692TIP3    H271492   4.882   4.279  12.809  0.1238 -0.0844  0.1907
16693TIP3   OH271493   4.625   1.336  13.262  0.2445  0.1822 -0.0751
16693TIP3    H171494   4.690   1.339  13.192 -0.8411 -0.5544 -1.1522
16693TIP3    H271495   4.589   1.425  13.264  0.4977  0.2900 -0.2286
16694TIP3   OH271496   5.150   3.591   2.900 -0.8115 -0.3931 -0.4637
16694TIP3    H171497   5.228   3.583   2.955 -1.1148  0.1999  0.0706
16694TIP3    H271498   5.124   3.682   2.909 -1.3937 -0.5107 -0.8873
16695TIP3   OH271499   6.219   1.011   3.885  0.6882  0.4112 -0.4807
16695TIP3    H171500   6.220   0.917   3.898 -0.5428  0.0918 -2.2535
16695TIP3    H271501   6.236   1.048   3.971 -1.0228 -1.4105  0.7265
16696TIP3   OH271502   1.980   4.606  12.941  0.6484 -0.3527  0.0189
16696TIP3    H171503   2.075   4.616  12.949  0.3732  2.0793  1.4713
16696TIP3    H271504   1.945   4.687  12.978 -1.9654 -0.4209 -2.0429
16697TIP3   OH271505   4.770   3.331  15.507 -0.4104  0.1332  0.1258
16697TIP3    H171506   4.737   3.325  15.596  1.4100  0.1905  0.8427
16697TIP3    H271507   4.697   3.366  15.456 -0.9784  1.6593  1.9000
16698TIP3   OH271508   0.752   3.372  11.642 -0.4182 -0.4202 -0.3801
16698TIP3    H171509   0.672   3.423  11.629 -1.3385 -2.2141 -2.8443
16698TIP3    H271510   0.813   3.405  11.576 -1.0376 -2.3483 -2.0297
16699TIP3   OH271511   5.529   1.575  16.288 -0.3040  0.1227 -0.0437
16699TIP3    H171512   5.523   1.654  16.341 -0.5620 -1.0283  1.7356
16699TIP3    H271513   5.623   1.563  16.274 -0.2013  0.1585  0.6088
16700TIP3   OH271514   5.038   0.559   1.355  0.0240 -0.1748 -0.7837
16700TIP3    H171515   5.076   0.647   1.359  1.4987 -0.7826 -0.8194
16700TIP3    H271516   4.961   0.569   1.300 -0.7386  1.3960  0.4798
16701TIP3   OH271517   1.359   3.158   4.365 -0.0158  0.4981 -0.8084
16701TIP3    H171518   1.421   3.085   4.372 -0.8093 -0.2466 -1.2771
16701TIP3    H271519   1.375   3.211   4.443 -1.1716 -1.5778  0.9664
16702TIP3   OH271520   0.801   3.834  15.178  0.2305  0.3616  0.1130
16702TIP3    H171521   0.784   3.836  15.272  1.8052 -0.2435  0.4594
16702TIP3    H271522   0.896   3.845  15.171  0.6246 -2.8316 -1.1855
16703TIP3   OH271523   0.607   3.556   2.999 -0.5649 -0.9216 -0.0309
16703TIP3    H171524   0.548   3.506   2.943  0.4067 -1.4614 -0.5952
16703TIP3    H271525   0.694   3.538   2.964 -0.1549  0.8578  0.0012
16704TIP3   OH271526   0.048   3.486  10.811 -0.1100 -0.1770 -0.7337
16704TIP3    H171527  -0.007   3.408  10.815 -0.3515 -0.1502 -2.8560
16704TIP3    H271528  -0.005   3.555  10.852 -0.0990 -0.9781  0.6808
16705TIP3   OH271529   0.864   5.341   2.779 -0.2836  0.4695  0.2635
16705TIP3    H171530   0.872   5.322   2.686  0.3653 -0.3948  0.4821
16705TIP3    H271531   0.773   5.367   2.791 -0.6330 -0.3960 -0.4433
16706TIP3   OH271532   1.686   4.755  14.165 -0.7298 -0.1043 -0.2608
16706TIP3    H171533   1.677   4.850  14.156 -0.8230 -0.1024 -0.1459
16706TIP3    H271534   1.772   4.743  14.206 -0.4904 -0.0925 -0.7441
16707TIP3   OH271535   6.410   5.460  16.493  0.5618  0.3729  0.2630
16707TIP3    H171536   6.467   5.389  16.463  2.0344  2.3410 -1.9740
16707TIP3    H271537   6.464   5.508  16.556  0.2486  0.5331  0.4109
16708TIP3   OH271538   2.974   2.094  11.447  0.2848 -0.3707 -0.0507
16708TIP3    H171539   2.933   2.180  11.446  0.7659 -0.1349  0.1915
16708TIP3    H271540   2.914   2.039  11.498  0.5992  0.1421  0.8957
16709TIP3   OH271541   2.130   0.803  13.045  0.3564  0.2014  0.0355
16709TIP3    H171542   2.192   0.757  13.101  0.2140  0.7040  0.6128
16709TIP3    H271543   2.103   0.737  12.981  1.5594  0.0048 -0.2978
16710TIP3   OH271544   0.843   2.823  15.306 -0.5329  0.3867  0.2352
16710TIP3    H171545   0.805   2.889  15.247  0.3254 -0.5569 -1.4508
16710TIP3    H271546   0.784   2.748  15.298 -0.7923  0.4874  1.1493
16711TIP3   OH271547   5.464   5.482   4.178 -0.5254  0.3420  0.2687
16711TIP3    H171548   5.489   5.395   4.210 -0.9283  0.2810  0.4164
16711TIP3    H271549   5.432   5.528   4.256  0.1169  0.7827  0.2812
16712TIP3   OH271550   0.542   3.138   0.561  0.3403 -0.3869 -0.8722
16712TIP3    H171551   0.550   3.222   0.518 -0.0153 -1.1030 -2.3975
16712TIP3    H271552   0.590   3.148   0.643 -1.9506  2.1487  0.3278
16713TIP3   OH271553   2.237   2.853  10.694 -0.8608 -0.2852  0.3660
16713TIP3    H171554   2.173   2.805  10.746  0.9591 -1.5528  1.5978
16713TIP3    H271555   2.318   2.847  10.745  0.0560  1.9900 -0.6816
16714TIP3   OH271556   5.733   1.225   0.145  0.2844  0.0858  0.0866
16714TIP3    H171557   5.680   1.197   0.070 -0.4936 -0.9272  0.9950
16714TIP3    H271558   5.705   1.316   0.160 -1.2216 -0.4182  0.5377
16715TIP3   OH271559   4.304   3.391   3.174  0.2115  0.3535  0.1648
16715TIP3    H171560   4.256   3.456   3.122 -0.7900  0.4242  1.1243
16715TIP3    H271561   4.348   3.443   3.241  0.3947  0.1478  0.2022
16716TIP3   OH271562   1.673   3.501  13.006 -0.4373  0.0549  0.4158
16716TIP3    H171563   1.591   3.481  13.051 -0.8235 -0.1955 -0.3816
16716TIP3    H271564   1.699   3.418  12.966 -0.6457  0.4959 -0.6727
16717TIP3   OH271565   3.386   1.436  16.850 -0.4974 -0.5155  0.3197
16717TIP3    H171566   3.461   1.405  16.800  1.2923  0.6429  2.1380
16717TIP3    H271567   3.374   1.371  16.919  0.7606  0.7122  1.7722
16718TIP3   OH271568   4.410   6.396  15.935  0.2335  0.2969 -0.4501
16718TIP3    H171569   4.389   6.486  15.960  1.9200  0.0541  2.2127
16718TIP3    H271570   4.484   6.405  15.874  1.0321  0.7237  0.5591
16719TIP3   OH271571   4.005   2.344   6.330 -0.6418 -0.1412  0.3043
16719TIP3    H171572   4.025   2.280   6.398  0.8024  0.8481  0.8675
16719TIP3    H271573   3.911   2.361   6.340 -1.2839 -2.7748 -0.4579
16720TIP3   OH271574   3.688   5.370  13.156  0.1821  0.0804  0.4068
16720TIP3    H171575   3.764   5.386  13.101 -0.4061 -0.3983 -0.5679
16720TIP3    H271576   3.700   5.281  13.189  0.2119  0.1253  0.5164
16721TIP3   OH271577   6.416   5.750  14.634  0.1402 -0.2922  0.1112
16721TIP3    H171578   6.437   5.829  14.585 -1.6404  0.1388  0.0042
16721TIP3    H271579   6.437   5.678  14.574  0.5553  0.1306 -0.2537
16722TIP3   OH271580   5.742   2.430  15.723 -0.1975 -0.3196  0.3889
16722TIP3    H171581   5.759   2.470  15.808  0.4688  0.3294 -0.0457
16722TIP3    H271582   5.749   2.336  15.739  1.9535 -0.1692  0.6566
16723TIP3   OH271583   5.545   0.287  12.759  0.2526 -0.7038 -0.4096
16723TIP3    H171584   5.602   0.291  12.836  0.5806  1.9351 -0.6858
16723TIP3    H271585   5.472   0.345  12.781 -1.0952 -2.1048 -1.0425
16724TIP3   OH271586   1.880   1.745  11.268 -0.1305  0.1407 -0.1541
16724TIP3    H171587   1.926   1.794  11.335  1.5953 -2.3751  0.6311
16724TIP3    H271588   1.926   1.767  11.187  0.1362  0.3639  0.0551
16725TIP3   OH271589   1.351   0.681   5.299 -0.2889  0.0393 -0.2520
16725TIP3    H171590   1.293   0.608   5.318  0.8549 -1.1321 -1.1053
16725TIP3    H271591   1.349   0.735   5.379 -0.7597 -1.1886  0.5916
16726TIP3   OH271592   2.814   3.330   3.453 -0.4131  0.2700 -0.0966
16726TIP3    H171593   2.830   3.363   3.365  1.4191 -0.8016 -0.2227
16726TIP3    H271594   2.719   3.333   3.463 -0.6955  0.0609 -2.2357
16727TIP3   OH271595   4.801   3.051   2.074  0.5436  0.3165  0.4123
16727TIP3    H171596   4.811   3.040   1.980 -0.6541 -1.6705  0.4643
16727TIP3    H271597   4.879   3.101   2.101  1.9334 -0.7918 -1.3346
16728TIP3   OH271598   3.292   5.621   0.871 -0.3114 -0.8888 -0.1173
16728TIP3    H171599   3.211   5.591   0.913 -1.2553  1.1293 -0.3776
16728TIP3    H271600   3.358   5.557   0.898 -1.4976 -1.3118  2.0144
16729TIP3   OH271601   0.155   1.288   2.597  0.2898  0.4213  0.2625
16729TIP3    H171602   0.235   1.285   2.544 -0.2805 -1.0274 -0.5782
16729TIP3    H271603   0.182   1.259   2.684  0.7078  0.0931  0.0240
16730TIP3   OH271604   2.827   3.972   6.189 -0.3238 -0.4226 -0.2257
16730TIP3    H171605   2.916   4.009   6.187 -0.2136 -0.6320  0.6421
16730TIP3    H271606   2.777   4.034   6.242 -0.2373 -1.2784  0.8823
16731TIP3   OH271607   1.061   0.037  13.238  0.0692  0.1239 -0.0465
16731TIP3    H171608   1.089   0.114  13.189  0.4387  0.6789  0.9881
16731TIP3    H271609   1.114   0.040  13.318  0.0497 -1.1791  0.0323
16732TIP3   OH271610   3.144   0.625   2.077  0.0457 -0.7932  0.1131
16732TIP3    H171611   3.071   0.681   2.104  0.5113 -0.2465  0.2537
16732TIP3    H271612   3.220   0.682   2.079  0.6773 -1.6309  1.0714
16733TIP3   OH271613   0.249   3.871   5.999  0.7063  0.3005 -1.0200
16733TIP3    H171614   0.304   3.797   6.026 -0.3802  0.0313  0.6025
16733TIP3    H271615   0.258   3.935   6.070 -0.2951  0.6695 -1.2151
16734TIP3   OH271616   4.055   5.537  16.921 -0.7877 -0.5333  0.1211
16734TIP3    H171617   4.020   5.491  16.997 -1.3941 -0.1790  0.0643
16734TIP3    H271618   3.980   5.584  16.885 -0.0940  0.8888  0.4686
16735TIP3   OH271619   4.972   2.521   5.080 -0.0214 -0.3028  0.4715
16735TIP3    H171620   5.031   2.596   5.085  0.7331 -0.7575 -1.1367
16735TIP3    H271621   4.923   2.524   5.163  0.3622  1.6277  0.6730
16736TIP3   OH271622   3.628   0.316  13.846 -0.3373  0.3043 -0.2136
16736TIP3    H171623   3.590   0.376  13.783  2.2086 -0.7333 -2.9492
16736TIP3    H271624   3.657   0.241  13.794  0.2047 -1.5068  2.4885
16737TIP3   OH271625   3.302   6.020  15.676  0.4796  0.0666  0.0137
16737TIP3    H171626   3.250   6.070  15.739 -1.5140 -0.8258 -0.8272
16737TIP3    H271627   3.335   6.085  15.614 -0.2950  0.6061  0.1490
16738TIP3   OH271628   2.734   0.948   3.855 -0.1004  0.5796 -0.2713
16738TIP3    H171629   2.828   0.947   3.836  0.2333  1.5276  1.1688
16738TIP3    H271630   2.709   1.041   3.848 -0.8168  0.4065 -0.1284
16739TIP3   OH271631   2.905   4.351   5.119 -0.1573  0.2364 -0.2130
16739TIP3    H171632   2.901   4.395   5.034 -2.0331 -0.9673 -0.8140
16739TIP3    H271633   2.818   4.365   5.157  0.3142 -0.1293  1.0533
16740TIP3   OH271634   4.418   6.015   3.555 -0.4613 -0.5214 -0.3599
16740TIP3    H171635   4.455   5.949   3.614  0.7707 -0.3344 -0.8938
16740TIP3    H271636   4.469   6.094   3.573 -1.4043  0.0878 -0.2801
16741TIP3   OH271637   5.206   0.804  12.800 -0.1026 -0.8220 -0.0575
16741TIP3    H171638   5.278   0.741  12.799  0.7496  0.0140  1.9951
16741TIP3    H271639   5.129   0.752  12.822  0.2568 -1.4147 -0.1733
16742TIP3   OH271640   0.590   6.452  15.707 -0.1715 -0.1272  0.4743
16742TIP3    H171641   0.653   6.499  15.652 -0.6942  0.7129  0.5662
16742TIP3    H271642   0.588   6.363  15.672  0.0683  0.1942 -0.3855
16743TIP3   OH271643   4.053   2.223  16.629 -0.2958 -0.2106  0.5396
16743TIP3    H171644   4.115   2.150  16.620  0.1084  0.2562 -0.7757
16743TIP3    H271645   4.105   2.294  16.667  0.4284  0.6257 -1.8172
16744TIP3   OH271646   0.493   3.285   4.520  0.2962 -0.1788 -0.3188
16744TIP3    H171647   0.551   3.335   4.578  1.1118 -1.3919 -0.0481
16744TIP3    H271648   0.445   3.227   4.579  1.0712 -1.3641 -0.8122
16745TIP3   OH271649   1.683   0.338  14.827  0.0199  0.1347  0.1267
16745TIP3    H171650   1.743   0.407  14.855 -0.3680  0.1659  0.9068
16745TIP3    H271651   1.598   0.362  14.864  0.0799 -1.2472  1.2629
16746TIP3   OH271652   0.848   0.285  11.118  0.2595 -0.0181  0.1077
16746TIP3    H171653   0.851   0.348  11.046 -0.2557  0.1458  0.2219
16746TIP3    H271654   0.777   0.226  11.094 -0.5000  0.5529  0.8855
16747TIP3   OH271655   1.212   1.277  12.015 -0.2512  0.4363 -0.0818
16747TIP3    H171656   1.188   1.290  12.107 -0.7171  1.0181 -0.2763
16747TIP3    H271657   1.253   1.191  12.012  0.9473  0.9588  0.9014
16748TIP3   OH271658   0.445   0.807  13.829  0.1459  0.0532  0.1181
16748TIP3    H171659   0.403   0.866  13.892 -2.3309  0.9113 -2.1575
16748TIP3    H271660   0.530   0.847  13.812 -1.1612  2.6503 -0.7745
16749TIP3   OH271661   0.858   0.416  12.799  0.4125  0.2691  0.1181
16749TIP3    H171662   0.817   0.432  12.714 -0.3143 -0.3213  0.3521
16749TIP3    H271663   0.874   0.503  12.834  0.1188  0.5129 -0.3379
16750TIP3   OH271664   3.920   3.897  15.564  0.3997  0.0018  0.0309
16750TIP3    H171665   3.921   3.993  15.562 -0.4038  0.0362  0.6563
16750TIP3    H271666   3.847   3.875  15.621  1.9065 -0.9757  1.6743
16751TIP3   OH271667   5.746   6.300   3.613 -0.0794  0.2291  0.0580
16751TIP3    H171668   5.745   6.359   3.538 -2.4741 -0.2945 -0.4025
16751TIP3    H271669   5.685   6.231   3.589 -0.3809 -0.3096  2.2374
16752TIP3   OH271670   3.185   5.138  13.270  0.1239  0.2026  0.4164
16752TIP3    H171671   3.235   5.215  13.242 -2.7473  2.8673  2.0104
16752TIP3    H271672   3.138   5.111  13.191 -0.1846  1.2486  0.2200
16753TIP3   OH271673   4.440   0.407  13.524 -0.3845  0.2805  0.5119
16753TIP3    H171674   4.361   0.436  13.569 -0.7736  0.1368 -0.0588
16753TIP3    H271675   4.495   0.369  13.592 -1.1638 -0.3775  0.7908
16754TIP3   OH271676   5.051   4.417  11.323 -0.4597 -1.0556 -0.2310
16754TIP3    H171677   5.001   4.340  11.348 -1.3692  0.4306  3.1878
16754TIP3    H271678   4.991   4.470  11.271 -1.3072 -0.8760  0.8831
16755TIP3   OH271679   3.179   3.570   3.527  0.0288  0.2823 -0.1267
16755TIP3    H171680   3.149   3.519   3.452 -1.7496 -1.3051  1.5522
16755TIP3    H271681   3.245   3.514   3.569 -0.1325  0.4460  0.3522
16756TIP3   OH271682   1.470   1.775  13.572  0.8258 -0.0974  0.0292
16756TIP3    H171683   1.422   1.700  13.535  1.1213  0.5936 -1.8420
16756TIP3    H271684   1.407   1.817  13.630  0.3933 -1.3166  0.4878
16757TIP3   OH271685   0.879   4.974  14.440  0.3149 -0.2476 -0.8845
16757TIP3    H171686   0.906   4.923  14.516  1.0913  2.4251  0.7840
16757TIP3    H271687   0.931   4.939  14.368  0.5651 -1.9753  0.0839
16758TIP3   OH271688   1.863   5.511  16.455 -0.2054 -0.1062 -0.8295
16758TIP3    H171689   1.804   5.445  16.491 -1.5463  0.4223 -1.9892
16758TIP3    H271690   1.868   5.579  16.523 -1.3160  0.0585 -0.8976
16759TIP3   OH271691   3.532   4.559  17.076  0.4890  0.5946 -0.1165
16759TIP3    H171692   3.514   4.615  17.152 -1.3690  1.2210 -0.9636
16759TIP3    H271693   3.462   4.495  17.077 -0.3204  1.3955 -2.0081
16760TIP3   OH271694   5.500   6.717   4.582 -0.4563 -0.0788  0.3793
16760TIP3    H171695   5.511   6.645   4.520  1.2111 -0.3207  0.9122
16760TIP3    H271696   5.530   6.795   4.535  0.2518 -0.1719  0.6550
16761TIP3   OH271697   0.817   2.224   0.468 -0.6087 -0.2021 -0.0511
16761TIP3    H171698   0.832   2.175   0.549  0.9763  0.7805  0.2807
16761TIP3    H271699   0.731   2.266   0.482 -0.9084 -0.9997  0.6063
16762TIP3   OH271700   1.022   2.985  16.248 -0.1048  0.1323  0.0545
16762TIP3    H171701   1.092   2.920  16.242 -1.3424 -1.1905 -0.7510
16762TIP3    H271702   0.951   2.940  16.294 -0.7032  1.2104  0.2317
16763TIP3   OH271703   0.815   2.250  11.317 -0.4881 -0.1328 -0.1590
16763TIP3    H171704   0.814   2.345  11.330 -1.3159 -0.2997  1.2376
16763TIP3    H271705   0.905   2.230  11.293 -0.0300  0.8767  0.6297
16764TIP3   OH271706   5.775   1.717  15.829 -0.1670  0.2289 -0.1862
16764TIP3    H171707   5.834   1.765  15.771  1.1347 -1.5527 -0.4439
16764TIP3    H271708   5.801   1.742  15.917  1.0832 -0.5992 -0.2951
16765TIP3   OH271709   2.511   6.027  15.289 -0.2425  0.1709  0.2656
16765TIP3    H171710   2.583   5.993  15.342  0.5219  0.3741 -0.6089
16765TIP3    H271711   2.442   5.961  15.298 -0.0436  0.0838  1.2983
16766TIP3   OH271712   4.297   1.733   3.706  0.5108 -0.0804 -0.1287
16766TIP3    H171713   4.209   1.714   3.739 -0.5513  0.9510 -2.2072
16766TIP3    H271714   4.307   1.827   3.717  0.0281  0.3578 -2.7362
16767TIP3   OH271715   2.269   2.959  12.835 -0.0173  0.2845 -0.5623
16767TIP3    H171716   2.303   3.005  12.912 -0.8019 -0.0610  0.0099
16767TIP3    H271717   2.289   3.016  12.761  0.8814  0.5546 -0.1232
16768TIP3   OH271718   3.147   2.872   2.923  0.4315  0.1069  0.2365
16768TIP3    H171719   3.164   2.934   2.994 -0.8502  5.0671 -3.2169
16768TIP3    H271720   3.051   2.869   2.917  0.5078 -0.6211 -0.9118
16769TIP3   OH271721   1.065   5.927  17.179 -0.3361  0.1108 -0.8647
16769TIP3    H171722   1.037   5.990  17.246 -1.0647 -0.6493 -0.4396
16769TIP3    H271723   1.161   5.929  17.184 -0.3672 -0.6591  0.9268
16770TIP3   OH271724   5.330   4.206  12.064 -0.3282  0.4178 -0.9315
16770TIP3    H171725   5.394   4.148  12.103 -0.5116  1.0754  0.4073
16770TIP3    H271726   5.283   4.151  12.001 -1.4730 -1.3461  1.2909
16771TIP3   OH271727   2.687   3.878   3.026 -0.1051 -0.2730  0.0194
16771TIP3    H171728   2.649   3.792   3.041 -1.2679 -0.2819 -2.5174
16771TIP3    H271729   2.701   3.914   3.114  1.2511 -3.3280  1.1817
16772TIP3   OH271730   0.750   4.005  16.828 -0.3007  0.1176  1.1504
16772TIP3    H171731   0.770   3.952  16.750  2.1434  0.7031  1.3055
16772TIP3    H271732   0.713   3.943  16.890  0.6836 -1.0176  0.6362
16773TIP3   OH271733   5.429   0.130   1.484 -0.2593  0.1832 -0.3777
16773TIP3    H171734   5.499   0.086   1.435  1.6502  0.7597  1.7221
16773TIP3    H271735   5.401   0.066   1.549 -2.2543 -0.2900 -1.5869
16774TIP3   OH271736   1.770   6.636   5.772  0.1030 -0.1415 -0.2072
16774TIP3    H171737   1.834   6.597   5.832  0.0931 -0.2448 -0.2629
16774TIP3    H271738   1.712   6.563   5.749  0.3194 -0.1817 -0.6232
16775TIP3   OH271739   3.021   2.742   4.828  0.3588 -0.4517 -0.2654
16775TIP3    H171740   2.972   2.694   4.895  1.4172 -0.3158  0.6442
16775TIP3    H271741   3.112   2.732   4.854  0.6574  1.5013 -0.3959
16776TIP3   OH271742   1.073   1.617   1.689  0.4508  0.2498  0.2792
16776TIP3    H171743   1.017   1.684   1.729 -0.5850 -0.5209  0.1503
16776TIP3    H271744   1.161   1.638   1.721 -0.2577 -0.1199  2.7182
16777TIP3   OH271745   6.258   4.909   0.501 -0.2291 -0.7731 -0.0194
16777TIP3    H171746   6.294   4.852   0.569  0.0248 -0.5428  0.0420
16777TIP3    H271747   6.166   4.884   0.495 -0.6009  0.1602  1.3937
16778TIP3   OH271748   5.184   4.965   6.086  0.0048  0.1000  0.0474
16778TIP3    H171749   5.274   4.980   6.058  0.1122 -2.3901 -1.2358
16778TIP3    H271750   5.189   4.954   6.181  1.1275 -0.4959 -0.0734
16779TIP3   OH271751   4.512   5.445  13.689  0.3047 -0.0431  0.1515
16779TIP3    H171752   4.556   5.377  13.740  1.3481  0.8051  0.4031
16779TIP3    H271753   4.566   5.457  13.612 -1.5600 -1.7234 -1.5501
16780TIP3   OH271754   5.563   2.995   0.782 -0.5156  0.1887  0.2958
16780TIP3    H171755   5.644   3.045   0.770  0.4169 -1.3860 -0.2770
16780TIP3    H271756   5.583   2.936   0.854 -1.2935  0.0245  0.3775
16781TIP3   OH271757   0.806   0.700  13.529 -0.3679 -0.2719  0.1039
16781TIP3    H171758   0.710   0.699  13.521 -0.5666  2.4959  1.2360
16781TIP3    H271759   0.824   0.642  13.603 -1.4579  1.3478  1.7167
16782TIP3   OH271760   2.939   4.960   6.806  0.4668 -0.5066 -0.1602
16782TIP3    H171761   3.025   4.994   6.782  1.2118 -0.5684  2.1509
16782TIP3    H271762   2.935   4.874   6.764  0.4641  0.4627 -2.2800
16783TIP3   OH271763   3.194   2.885   0.955 -0.3682 -0.3716  0.0901
16783TIP3    H171764   3.137   2.857   0.883 -0.2690  1.2705 -0.6730
16783TIP3    H271765   3.156   2.968   0.984 -1.7419 -1.9818  3.4654
16784TIP3   OH271766   3.400   3.157   4.902  0.5289 -0.7090  0.5215
16784TIP3    H171767   3.461   3.151   4.829  0.4709 -2.0002  0.5647
16784TIP3    H271768   3.456   3.157   4.980  0.5296 -0.5732  0.5217
16785TIP3   OH271769   1.332   3.344   5.990 -0.1253 -0.1958 -0.0822
16785TIP3    H171770   1.336   3.255   5.957  0.2099 -0.1825 -0.0785
16785TIP3    H271771   1.331   3.334   6.085  2.1154 -0.1364 -0.0049
16786TIP3   OH271772   5.459   2.172   0.917 -0.0528  0.7735  0.1682
16786TIP3    H171773   5.463   2.121   0.836 -2.0946 -0.5594  0.8126
16786TIP3    H271774   5.443   2.107   0.986 -1.2158  2.1041  1.2356
16787TIP3   OH271775   3.021   6.236   6.026 -0.4787  0.2871 -0.1549
16787TIP3    H171776   3.112   6.211   6.009 -0.9311 -1.3306 -0.4501
16787TIP3    H271777   3.023   6.275   6.113  0.1216 -2.3640  1.1403
16788TIP3   OH271778   1.698   2.296  17.007  0.1529  0.4168 -0.5498
16788TIP3    H171779   1.723   2.208  16.977  0.7503 -0.0477  1.1669
16788TIP3    H271780   1.633   2.326  16.944  0.0300 -1.2144 -1.2403
16789TIP3   OH271781   1.442   1.326   4.605 -0.0797  0.4968  0.2539
16789TIP3    H171782   1.447   1.411   4.649 -0.6663  0.6906 -0.0384
16789TIP3    H271783   1.484   1.341   4.520 -0.3280  0.5416  0.1378
16790TIP3   OH271784   5.798   5.766   5.140  0.1995 -0.1045  0.5404
16790TIP3    H171785   5.707   5.748   5.115  0.7491 -1.0581 -0.9066
16790TIP3    H271786   5.842   5.786   5.057  1.2850  0.4610  1.2350
16791TIP3   OH271787   1.964   0.941  10.753  0.6425 -0.0253  0.7653
16791TIP3    H171788   2.011   1.024  10.768  0.8722  0.0693 -0.3904
16791TIP3    H271789   1.872   0.965  10.761  0.6774  0.5013 -0.1944
16792TIP3   OH271790   1.159   2.573  12.189 -0.0823 -0.2725 -0.0888
16792TIP3    H171791   1.090   2.507  12.185 -0.3454 -0.0154  0.1719
16792TIP3    H271792   1.118   2.653  12.156  0.7279 -0.6321 -2.1043
16793TIP3   OH271793   5.153   0.570   1.053  0.1368 -0.0975  0.1973
16793TIP3    H171794   5.141   0.558   1.148  0.8595  0.6413  0.3943
16793TIP3    H271795   5.182   0.661   1.044 -2.0202  0.5563 -0.9346
16794TIP3   OH271796   6.267   6.600   3.147  0.0841  0.4490 -0.1444
16794TIP3    H171797   6.292   6.671   3.088  0.1524 -0.7939 -1.6713
16794TIP3    H271798   6.222   6.537   3.091  0.5358 -0.9953  1.0511
16795TIP3   OH271799   2.789   4.880   4.536 -0.0910 -0.3076 -0.9118
16795TIP3    H171800   2.881   4.873   4.512  0.3306 -1.1953  0.8304
16795TIP3    H271801   2.760   4.962   4.495  1.5785  0.2189 -1.1166
16796TIP3   OH271802   0.955   3.874   4.439 -0.0459  0.3347 -0.1001
16796TIP3    H171803   0.880   3.932   4.450 -0.0559  0.0431  1.8201
16796TIP3    H271804   1.030   3.933   4.434 -0.0518  0.5838  1.8719
16797TIP3   OH271805   3.340   4.188  12.900 -0.4259 -0.6028 -0.0288
16797TIP3    H171806   3.393   4.268  12.907 -0.8222 -0.3541  0.2265
16797TIP3    H271807   3.393   4.128  12.849 -1.3781  0.9151 -3.0747
16798TIP3   OH271808   6.117   5.671  16.047 -0.1556  0.8043 -0.5932
16798TIP3    H171809   6.141   5.735  15.980  1.4327 -0.5082 -1.3695
16798TIP3    H271810   6.200   5.641  16.082 -0.9405  0.8037  1.3857
16799TIP3   OH271811   4.832   5.050   0.729  0.0901 -0.1948  0.6166
16799TIP3    H171812   4.784   5.010   0.656  0.2812 -0.0341  0.4011
16799TIP3    H271813   4.804   5.001   0.806 -1.2122  0.5549  0.6503
16800TIP3   OH271814   2.876   4.304  11.964  0.6517  0.4221  0.0105
16800TIP3    H171815   2.815   4.378  11.955 -0.9989 -0.8583  0.2411
16800TIP3    H271816   2.957   4.344  11.998 -0.2631  2.0898  0.3429
16801TIP3   OH271817   0.137   1.314   4.613 -0.0761 -0.1053  0.2888
16801TIP3    H171818   0.208   1.259   4.580 -0.4191 -2.1312  2.6318
16801TIP3    H271819   0.143   1.306   4.708 -1.5875  2.1558  0.6462
16802TIP3   OH271820   6.318   0.571   3.208  0.1412 -0.5233 -0.3783
16802TIP3    H171821   6.323   0.667   3.199 -2.8305 -0.3255 -0.7411
16802TIP3    H271822   6.341   0.555   3.300 -0.4513  0.6554 -0.0088
16803TIP3   OH271823   3.918   0.909  17.031 -0.1249 -0.0597  0.1462
16803TIP3    H171824   3.880   0.939  17.113 -0.6816 -1.9023  0.6067
16803TIP3    H271825   3.851   0.853  16.992  1.4503 -2.1517  0.2352
16804TIP3   OH271826   1.607   2.119  10.847  0.6027 -0.0117  0.6786
16804TIP3    H171827   1.696   2.125  10.880  2.2987 -0.8812 -3.1483
16804TIP3    H271828   1.594   2.201  10.798 -0.3917 -0.2521  0.5081
16805TIP3   OH271829   3.320   6.731   5.920 -0.1899 -0.1645 -0.4197
16805TIP3    H171830   3.255   6.662   5.933  0.9130 -1.4396 -1.3972
16805TIP3    H271831   3.404   6.685   5.917  0.4495  1.0117 -2.7103
16806TIP3   OH271832   2.207   5.377  13.382 -0.0877 -0.3079 -0.1381
16806TIP3    H171833   2.124   5.406  13.419  0.0306 -1.5803  1.2118
16806TIP3    H271834   2.237   5.451  13.329  0.5234  2.3883  3.5543
16807TIP3   OH271835   0.481   2.992   0.933  0.5786 -0.3057 -0.1511
16807TIP3    H171836   0.410   2.955   0.985  1.2476 -1.7050 -0.1934
16807TIP3    H271837   0.437   3.031   0.857 -0.1895 -0.5248  0.1778
16808TIP3   OH271838   5.750   5.189   5.901  0.6699 -0.2037 -0.0688
16808TIP3    H171839   5.808   5.203   5.976 -1.8894 -1.2743  2.3054
16808TIP3    H271840   5.681   5.255   5.913  0.6999  0.2625 -2.1240
16809TIP3   OH271841   1.669   5.726   2.082 -0.2788  0.0245 -0.1009
16809TIP3    H171842   1.738   5.677   2.037  0.5621  1.6135 -0.6007
16809TIP3    H271843   1.602   5.741   2.016 -1.0435 -1.3084  0.3239
16810TIP3   OH271844   2.673   0.716  16.431 -0.8368  0.5157 -0.2838
16810TIP3    H171845   2.674   0.729  16.526 -1.6350  1.3313 -0.3708
16810TIP3    H271846   2.660   0.622  16.420  0.2832  0.2542  0.3964
16811TIP3   OH271847   2.386   5.042   1.538  0.6948 -0.2585 -0.3506
16811TIP3    H171848   2.467   5.079   1.574  1.1815 -1.5723 -0.0364
16811TIP3    H271849   2.412   5.009   1.451  0.4900 -0.6063 -0.2824
16812TIP3   OH271850   3.247   5.946   2.738  0.5164  0.1751 -0.0020
16812TIP3    H171851   3.196   5.931   2.658 -0.3224 -1.7927  0.8384
16812TIP3    H271852   3.278   6.037   2.730 -0.2380  0.3018 -2.1451
16813TIP3   OH271853   4.172   5.963   0.088 -0.5111  0.3291 -0.1990
16813TIP3    H171854   4.258   5.960   0.131 -0.5139 -0.3053 -0.2288
16813TIP3    H271855   4.192   5.959  -0.006 -0.5871 -0.2952 -0.1935
16814TIP3   OH271856   3.997   4.579  13.325 -0.0213  0.2975  0.2286
16814TIP3    H171857   3.922   4.598  13.269  0.2928 -0.9721 -0.6484
16814TIP3    H271858   4.008   4.485  13.319  1.1773  0.3773  0.9686
16815TIP3   OH271859   4.479   5.204   2.816  0.3205  0.1219 -0.1971
16815TIP3    H171860   4.532   5.277   2.849 -0.2942  0.4042  0.1735
16815TIP3    H271861   4.482   5.213   2.721  2.7994 -1.1746 -0.3335
16816TIP3   OH271862   2.890   2.613  15.517 -0.2112  0.2380  0.3031
16816TIP3    H171863   2.943   2.570  15.450 -0.2105 -0.4323  0.7213
16816TIP3    H271864   2.948   2.678  15.556 -0.2817  0.7854 -0.4939
16817TIP3   OH271865   4.594   2.692  15.685  0.1192 -0.2599 -0.6813
16817TIP3    H171866   4.581   2.754  15.756  0.1824 -0.6300 -0.3464
16817TIP3    H271867   4.542   2.615  15.709 -0.8615  0.0866 -1.6443
16818TIP3   OH271868   3.643   3.297  13.659 -0.1445 -0.3924 -0.1108
16818TIP3    H171869   3.584   3.348  13.603 -0.4153 -0.3574  0.2033
16818TIP3    H271870   3.621   3.206  13.641 -1.0026 -0.3729  0.7406
16819TIP3   OH271871   1.317   1.977   0.580 -0.3831  0.8648 -0.2883
16819TIP3    H171872   1.259   2.014   0.647 -1.6470 -2.0454  0.4044
16819TIP3    H271873   1.261   1.964   0.504  0.4258  1.7720 -1.0680
16820TIP3   OH271874   2.328   5.915   3.914 -0.1715  0.6077  0.0649
16820TIP3    H171875   2.298   5.830   3.881  0.3309 -0.7469  2.8190
16820TIP3    H271876   2.388   5.947   3.847 -2.0374 -0.1067 -2.0646
16821TIP3   OH271877   6.438   1.926  10.944  0.3433 -0.3065 -0.0422
16821TIP3    H171878   6.418   2.018  10.924  0.7684 -0.3938 -0.9570
16821TIP3    H271879   6.354   1.888  10.968 -0.0056  0.1094 -0.5643
16822TIP3   OH271880   0.634   4.640  13.981 -0.2682 -0.3084 -0.0636
16822TIP3    H171881   0.702   4.646  13.914 -0.4732  0.1567 -0.2377
16822TIP3    H271882   0.568   4.582  13.943  0.1824 -1.0493  0.2502
16823TIP3   OH271883   2.086   2.564  12.476 -0.3878  0.4720 -0.1633
16823TIP3    H171884   2.123   2.648  12.449  0.3467  0.0546 -0.4774
16823TIP3    H271885   2.156   2.522  12.527  0.1216 -0.9214 -1.9123
16824TIP3   OH271886   4.236   2.917   4.170 -0.5100 -0.2628  0.2203
16824TIP3    H171887   4.314   2.874   4.205  0.1272  1.0260  0.4299
16824TIP3    H271888   4.185   2.942   4.247 -0.2065  0.5625  0.1618
16825TIP3   OH271889   4.826   0.830   4.451 -0.3214  0.0587  0.1408
16825TIP3    H171890   4.831   0.791   4.364 -0.9087 -1.0801  0.6066
16825TIP3    H271891   4.743   0.877   4.452 -0.7775 -0.7524  0.4213
16826TIP3   OH271892   0.968   0.519  12.196  0.0872 -0.2699 -0.1326
16826TIP3    H171893   1.005   0.603  12.169 -0.8763  0.1398 -0.2130
16826TIP3    H271894   0.930   0.536  12.282  1.4604 -1.0879  0.6588
16827TIP3   OH271895   3.737   0.811  11.648 -0.5836 -0.2426  0.8245
16827TIP3    H171896   3.793   0.875  11.690 -0.8219 -0.4390  1.4473
16827TIP3    H271897   3.788   0.780  11.573  0.1957 -0.5038  1.4443
16828TIP3   OH271898   0.270   5.440  13.202 -0.5241  0.1911 -0.0374
16828TIP3    H171899   0.256   5.490  13.122 -1.0297 -0.3025 -0.2660
16828TIP3    H271900   0.269   5.348  13.173 -2.0656 -0.0605  0.7181
16829TIP3   OH271901   1.889   2.880   2.889 -0.1735 -0.0584  0.0524
16829TIP3    H171902   1.847   2.794   2.893  1.9283 -1.4417 -3.3164
16829TIP3    H271903   1.955   2.871   2.820  0.3955  4.1992 -0.2087
16830TIP3   OH271904   2.687   6.717   6.205 -0.0537  0.0087 -0.2726
16830TIP3    H171905   2.731   6.794   6.168  2.6055 -1.0566  0.4467
16830TIP3    H271906   2.656   6.746   6.290 -0.6908  0.7581 -0.7467
16831TIP3   OH271907   6.403   5.924  12.059  0.2665  0.7211 -0.7589
16831TIP3    H171908   6.418   5.852  11.997 -0.9360 -0.5554  0.3449
16831TIP3    H271909   6.487   5.937  12.102  1.4366  2.3438 -3.2660
16832TIP3   OH271910   2.064   2.023  11.241 -0.3836 -0.2256 -0.4888
16832TIP3    H171911   2.032   2.098  11.192 -0.3726  0.0792 -0.0310
16832TIP3    H271912   2.125   1.980  11.181  1.7847  1.6940  0.1977
16833TIP3   OH271913   3.109   3.962  16.654  0.0607 -0.0723 -0.2440
16833TIP3    H171914   3.128   3.872  16.629  0.6530 -0.4193  1.3106
16833TIP3    H271915   3.063   3.999  16.579 -1.8527 -2.2180 -0.2084
16834TIP3   OH271916   4.515   3.745   3.570  0.9828 -0.0138 -0.1000
16834TIP3    H171917   4.471   3.827   3.546  0.1221 -0.7270 -1.0373
16834TIP3    H271918   4.593   3.742   3.514  0.4944 -0.2947 -0.7771
16835TIP3   OH271919   1.301   5.220   2.042 -0.2599 -0.4979  0.7216
16835TIP3    H171920   1.285   5.126   2.045 -1.0802 -0.5535 -2.4356
16835TIP3    H271921   1.213   5.259   2.037  0.0478  0.5199  2.3670
16836TIP3   OH271922   4.628   4.272  15.590  0.5718  0.1753  0.0984
16836TIP3    H171923   4.661   4.256  15.679 -0.6214  2.6622  1.0681
16836TIP3    H271924   4.691   4.334  15.552  0.8925 -0.6212 -0.7187
16837TIP3   OH271925   2.188   5.075   0.073 -0.5011 -0.2871 -0.5796
16837TIP3    H171926   2.181   4.986   0.107  0.3862  0.2080  1.0189
16837TIP3    H271927   2.250   5.068   0.001  3.1657 -0.4303  2.2437
16838TIP3   OH271928   3.227   2.361  13.416  0.6307  0.1218  0.0903
16838TIP3    H171929   3.155   2.423  13.429  0.2709 -0.3003  0.1194
16838TIP3    H271930   3.211   2.291  13.478  0.3367 -0.6225 -0.8016
16839TIP3   OH271931   4.165   6.129  13.080 -0.4088  0.6696  0.4125
16839TIP3    H171932   4.083   6.177  13.093 -0.4328  0.2655  2.0680
16839TIP3    H271933   4.221   6.157  13.153 -0.2840 -1.4969  1.2336
16840TIP3   OH271934   2.092   0.598  12.881 -1.2101 -0.5327 -0.1779
16840TIP3    H171935   2.152   0.529  12.911 -0.6928  0.5018  1.2710
16840TIP3    H271936   2.135   0.635  12.804  0.6191  0.8825  1.4302
16841TIP3   OH271937   1.343   1.142   3.869 -0.0406 -0.2171 -0.4833
16841TIP3    H171938   1.296   1.106   3.944 -0.1670  1.1982  0.1418
16841TIP3    H271939   1.436   1.127   3.890 -0.1110 -1.2565 -0.8189
16842TIP3   OH271940   4.727   0.378  12.342  0.6447  0.3406  0.7078
16842TIP3    H171941   4.642   0.343  12.315  0.1228  2.1724 -0.2175
16842TIP3    H271942   4.791   0.323  12.297 -0.1590  1.6243 -2.2432
16843TIP3   OH271943   5.997   4.369   4.878 -0.3221 -0.1410  0.2352
16843TIP3    H171944   5.994   4.465   4.872  1.6153 -0.0977 -4.4307
16843TIP3    H271945   5.917   4.340   4.835  0.5955 -0.4866 -1.3136
16844TIP3   OH271946   1.295   3.909   1.686 -0.1228  0.2338  0.9951
16844TIP3    H171947   1.214   3.874   1.722 -0.2468  0.0266  0.5251
16844TIP3    H271948   1.353   3.834   1.679 -0.0648  0.2902  0.8618
16845TIP3   OH271949   5.853   1.480  14.653  0.1518 -0.5989  0.2169
16845TIP3    H171950   5.919   1.472  14.722  0.4261  1.8026  0.3191
16845TIP3    H271951   5.808   1.563  14.672 -0.4401 -0.3719 -1.9211
16846TIP3   OH271952   2.050   3.862  16.425 -0.1587 -0.2474  0.0982
16846TIP3    H171953   1.969   3.833  16.466  0.7461 -1.8608  0.8401
16846TIP3    H271954   2.022   3.901  16.342 -1.7662  0.2867  0.8474
16847TIP3   OH271955   3.008   4.683  12.661  0.4153 -0.5258  0.4966
16847TIP3    H171956   2.934   4.738  12.686  1.6934  2.5129 -1.7302
16847TIP3    H271957   3.073   4.699  12.730 -0.2998 -1.8309  1.5236
16848TIP3   OH271958   6.363   2.203   2.723 -0.4152  0.1379 -0.0500
16848TIP3    H171959   6.395   2.113   2.724 -0.9107 -0.0431 -0.3412
16848TIP3    H271960   6.441   2.256   2.739 -0.3412 -0.4042  1.6303
16849TIP3   OH271961   3.855   3.385  16.410 -0.1392 -0.1381  0.4326
16849TIP3    H171962   3.808   3.380  16.326  0.7002  1.3201 -0.1722
16849TIP3    H271963   3.915   3.459  16.399  1.9737 -1.6178  1.3239
16850TIP3   OH271964   2.690   5.829   2.211  0.1063  0.7500 -0.3531
16850TIP3    H171965   2.618   5.885   2.239 -0.5384 -0.2174 -0.0161
16850TIP3    H271966   2.652   5.741   2.209  1.2565  0.2347 -0.2581
16851TIP3   OH271967   5.396   2.078   4.865  0.9387  0.4866 -0.9794
16851TIP3    H171968   5.405   2.105   4.956 -0.2117 -1.3109 -0.2879
16851TIP3    H271969   5.395   1.982   4.868  0.5202  0.3919 -2.8510
16852TIP3   OH271970   2.194   1.152   5.591  0.7615  0.2109 -0.6706
16852TIP3    H171971   2.212   1.129   5.682  0.3435 -0.6957 -0.8104
16852TIP3    H271972   2.165   1.243   5.594  1.0415  0.2791  0.0625
16853TIP3   OH271973   5.062   4.888  16.966 -0.6453 -0.7565 -0.4346
16853TIP3    H171974   5.060   4.812  16.908 -2.5623  0.0263 -1.4786
16853TIP3    H271975   4.995   4.869  17.032  0.2059 -0.7930  0.4430
16854TIP3   OH271976   6.148   4.655  16.174 -0.0453  0.0248 -0.3703
16854TIP3    H171977   6.198   4.674  16.253 -0.5164 -1.8389  0.4220
16854TIP3    H271978   6.215   4.640  16.107  0.4711 -1.4157  0.4305
16855TIP3   OH271979   0.700   2.942  12.795  0.4737  0.3745 -0.7056
16855TIP3    H171980   0.661   2.889  12.726  0.3509 -1.8438  0.9562
16855TIP3    H271981   0.643   3.018  12.802 -3.9030 -2.7023  1.6420
16856TIP3   OH271982   3.660   4.681   2.234 -0.0913  0.0762 -0.0406
16856TIP3    H171983   3.579   4.684   2.283 -0.8205 -0.9163 -1.1305
16856TIP3    H271984   3.690   4.772   2.232 -0.7553  0.3375  1.0262
16857TIP3   OH271985   2.482   0.390   6.352  0.0973  0.2755  0.6073
16857TIP3    H171986   2.400   0.439   6.343 -1.1420 -1.9333 -1.2488
16857TIP3    H271987   2.471   0.339   6.432 -0.5678 -0.3275  0.1447
16858TIP3   OH271988   1.741   0.447   3.847 -0.1109  0.0914  0.1564
16858TIP3    H171989   1.760   0.418   3.757 -2.8251 -0.4266 -0.3362
16858TIP3    H271990   1.791   0.527   3.857  1.0724 -0.3922 -1.4405
16859TIP3   OH271991   4.865   3.891   2.379  0.5604 -0.0252 -0.0915
16859TIP3    H171992   4.885   3.832   2.306  0.0956  0.7166 -0.8168
16859TIP3    H271993   4.893   3.977   2.349  0.6786  0.2376  0.7442
16860TIP3   OH271994   0.811   1.349   5.243  0.1570 -0.3297  0.2914
16860TIP3    H171995   0.747   1.348   5.315  0.4332  3.5489  0.8008
16860TIP3    H271996   0.895   1.364   5.286  0.7003 -0.4857 -0.6893
16861TIP3   OH271997   3.576   6.659   6.295 -1.1158 -0.0072 -0.1291
16861TIP3    H171998   3.655   6.613   6.321 -1.9055 -2.2645 -1.4570
16861TIP3    H271999   3.574   6.737   6.351 -0.0853 -1.9146  2.7452
16862TIP3   OH272000   6.445   0.696  10.215  0.6007  0.2262 -0.5326
16862TIP3    H172001   6.439   0.787  10.243  1.2750 -0.1846  1.0881
16862TIP3    H272002   6.415   0.645  10.291 -1.2908 -0.8908 -1.9416
16863TIP3   OH272003   2.803   6.009  14.976  0.0455  0.3161 -0.3205
16863TIP3    H172004   2.869   5.974  15.037 -1.0786  2.0272  2.0526
16863TIP3    H272005   2.847   6.009  14.891  2.3306 -0.6277  0.7555
16864TIP3   OH272006   6.311   5.555  14.867 -0.3834 -0.5766 -0.1219
16864TIP3    H172007   6.269   5.484  14.819 -0.6285 -2.1533  2.2238
16864TIP3    H272008   6.404   5.531  14.870 -0.0271  0.5521 -1.4584
16865TIP3   OH272009   5.449   1.214  14.513  0.1560 -0.6473 -0.4491
16865TIP3    H172010   5.466   1.248  14.426  1.6958  0.2365  0.1602
16865TIP3    H272011   5.525   1.159  14.533  0.7053  0.5785  0.9985
16866TIP3   OH272012   5.876   4.480   1.108  0.0270  0.4682 -0.2834
16866TIP3    H172013   5.880   4.388   1.081  0.2790 -0.2845  2.0829
16866TIP3    H272014   5.790   4.510   1.078  0.1867 -0.3322 -1.6266
16867TIP3   OH272015   1.617   6.530   4.710 -0.1239 -0.5801  0.1815
16867TIP3    H172016   1.539   6.541   4.764 -0.5902 -1.7132 -0.2380
16867TIP3    H272017   1.653   6.618   4.702 -2.7360  0.4471 -1.7055
16868TIP3   OH272018   4.825   6.338  11.368 -0.2068  0.3211  0.3671
16868TIP3    H172019   4.913   6.322  11.334 -1.0470 -2.8465 -0.6484
16868TIP3    H272020   4.768   6.334  11.291 -1.4147  0.7651  1.2007
16869TIP3   OH272021   0.102   6.772   4.166  0.0122 -0.3408  0.2893
16869TIP3    H172022   0.120   6.695   4.221  1.1955  0.1268  0.5773
16869TIP3    H272023   0.110   6.739   4.077  0.0173 -0.6550  0.4017
16870TIP3   OH272024   1.248   2.549   6.492  0.0798  0.4120 -0.5587
16870TIP3    H172025   1.338   2.552   6.524 -0.1973  0.2732  0.2387
16870TIP3    H272026   1.250   2.480   6.424 -0.0702 -1.8236  1.5677
16871TIP3   OH272027   1.301   4.663   5.385 -0.0919 -0.8031 -0.6949
16871TIP3    H172028   1.375   4.720   5.406  1.0025 -1.7543 -1.8828
16871TIP3    H272029   1.260   4.704   5.310 -0.1127 -0.8679 -0.7188
16872TIP3   OH272030   6.448   1.203   5.143 -0.3847  0.4369  0.7286
16872TIP3    H172031   6.385   1.253   5.092 -0.5512 -1.7428 -1.3867
16872TIP3    H272032   6.531   1.250   5.131 -0.8541  1.1697  0.2823
16873TIP3   OH272033   0.818   2.351  15.835 -0.0014 -0.1062 -0.2442
16873TIP3    H172034   0.748   2.414  15.852 -1.0698 -1.1997 -0.4624
16873TIP3    H272035   0.783   2.267  15.864  2.0040 -0.3959  1.5694
16874TIP3   OH272036   1.790   1.573   1.980 -0.3545  0.2818 -0.1368
16874TIP3    H172037   1.739   1.521   1.918  0.2998  1.4632 -1.7655
16874TIP3    H272038   1.725   1.615   2.036 -1.0886  0.4775 -1.1088
16875TIP3   OH272039   1.998   4.993  12.770  0.0163  0.1852 -0.1915
16875TIP3    H172040   2.037   4.995  12.858 -0.2374 -0.4771 -0.0581
16875TIP3    H272041   2.067   4.957  12.714  0.6680  1.8846 -0.5362
16876TIP3   OH272042   2.691   2.519   0.142  0.2023  0.4805  0.0240
16876TIP3    H172043   2.634   2.472   0.203  1.9873 -1.2446  0.4698
16876TIP3    H272044   2.724   2.593   0.193  0.6367 -0.1957  0.7486
16877TIP3   OH272045   4.403   3.894  14.839  0.3976  0.3964 -0.3435
16877TIP3    H172046   4.482   3.904  14.786 -0.6241  0.5446 -1.9143
16877TIP3    H272047   4.332   3.883  14.775 -0.9545  0.9611  0.9843
16878TIP3   OH272048   0.101   6.465  13.531 -0.5236  1.0940  0.2177
16878TIP3    H172049   0.153   6.402  13.580  0.7063  1.0335 -1.0800
16878TIP3    H272050   0.021   6.476  13.582  0.4902  0.7194  1.9750
16879TIP3   OH272051   2.348   5.871  13.328 -0.0627  0.2734 -0.3591
16879TIP3    H172052   2.382   5.902  13.245 -0.9738  0.0171 -0.8449
16879TIP3    H272053   2.417   5.891  13.392  0.9573 -0.1765 -1.2829
16880TIP3   OH272054   4.161   6.627   0.987  0.0293 -0.1789 -0.0681
16880TIP3    H172055   4.066   6.610   0.986 -0.3050  1.1148  2.1217
16880TIP3    H272056   4.173   6.697   0.922 -0.4850 -0.4615 -0.4747
16881TIP3   OH272057   3.995   1.110  15.245 -0.5522 -0.3850 -0.3160
16881TIP3    H172058   4.035   1.197  15.253 -3.4093  1.1617 -1.3977
16881TIP3    H272059   4.057   1.051  15.288  2.2442  1.9220 -0.8480
16882TIP3   OH272060   2.568   6.236  16.639 -0.3689  0.0507  0.3441
16882TIP3    H172061   2.564   6.257  16.732  1.2925 -1.6640  0.8700
16882TIP3    H272062   2.661   6.235  16.619 -0.5753 -1.8590 -0.7456
16883TIP3   OH272063   4.952   4.354   3.664 -0.2960  0.4801 -0.3928
16883TIP3    H172064   4.899   4.334   3.587 -1.8492  0.5744  0.5998
16883TIP3    H272065   5.011   4.279   3.673 -0.6301  0.1098 -1.2170
16884TIP3   OH272066   1.760   6.231  14.434  0.7675  0.1183  0.3308
16884TIP3    H172067   1.729   6.301  14.491  0.3519  0.6427 -0.5251
16884TIP3    H272068   1.740   6.150  14.482 -0.0990  0.5277  0.6716
16885TIP3   OH272069   2.023   6.108   5.927  0.3488 -0.3952  0.2678
16885TIP3    H172070   2.037   6.175   5.861  2.2109 -1.2659 -0.2645
16885TIP3    H272071   2.018   6.026   5.878 -0.4278 -0.8273  1.0376
16886TIP3   OH272072   0.039   1.251   1.021  0.2026 -0.0318  0.5406
16886TIP3    H172073  -0.053   1.229   1.008  0.1194  0.2751  0.5829
16886TIP3    H272074   0.037   1.322   1.086  0.4969 -0.3320  0.8770
16887TIP3   OH272075   3.469   3.464   5.804  0.2908  0.0646  0.3636
16887TIP3    H172076   3.492   3.550   5.768 -0.0477  0.0321  0.0697
16887TIP3    H272077   3.374   3.464   5.807  0.2214 -0.8833 -1.0810
16888TIP3   OH272078   4.975   6.773  14.469  0.1665  0.0592  0.2489
16888TIP3    H172079   4.918   6.703  14.437 -0.6367 -0.1333  1.9700
16888TIP3    H272080   4.970   6.841  14.402  0.7139 -1.3804 -1.3011
16889TIP3   OH272081   4.286   1.977   5.523 -0.7844 -0.2802 -0.0077
16889TIP3    H172082   4.221   1.941   5.584 -0.3742 -2.2812 -0.6994
16889TIP3    H272083   4.234   2.035   5.466 -1.3004  1.0199  1.6824
16890TIP3   OH272084   5.259   4.874   5.118  0.1845 -0.3194 -0.7154
16890TIP3    H172085   5.320   4.884   5.192  1.5426  0.5897 -1.8914
16890TIP3    H272086   5.192   4.813   5.150  0.2020  0.7656  1.5672
16891TIP3   OH272087   1.425   4.125   1.266 -0.1980  0.0775 -0.5163
16891TIP3    H172088   1.469   4.094   1.346  0.9145  0.3368 -1.0156
16891TIP3    H272089   1.403   4.045   1.219  3.1920 -0.1135 -2.0835
16892TIP3   OH272090   5.024   4.010   0.450 -0.7149 -0.0263  0.3319
16892TIP3    H172091   4.930   4.008   0.433 -1.1736 -1.1232  2.5698
16892TIP3    H272092   5.044   3.923   0.484  1.2058  0.0619 -0.4454
16893TIP3   OH272093   2.611   0.506  16.142  0.3562  0.1799 -0.1610
16893TIP3    H172094   2.621   0.484  16.235 -0.3341  0.6849  0.0450
16893TIP3    H272095   2.626   0.600  16.138 -0.4006  0.2984 -0.4232
16894TIP3   OH272096   6.442   3.239   4.621  0.4756 -0.2885 -0.0403
16894TIP3    H172097   6.394   3.258   4.540  1.4148  0.7498 -0.3810
16894TIP3    H272098   6.400   3.293   4.687  1.8958  1.5903 -0.5976
16895TIP3   OH272099   2.706   2.312   1.605  0.3455  0.7175  0.4936
16895TIP3    H172100   2.775   2.298   1.670  0.1083  0.5202  0.7007
16895TIP3    H272101   2.706   2.407   1.590  1.8081  0.5729 -0.7557
16896TIP3   OH272102   4.856   4.453  15.630  0.3413  0.3068 -0.0735
16896TIP3    H172103   4.910   4.375  15.621 -0.0622  0.1837 -1.7628
16896TIP3    H272104   4.898   4.504  15.699  0.7477 -1.2769  0.8990
16897TIP3   OH272105   0.744   3.705  13.309 -0.0266 -0.5901  0.6136
16897TIP3    H172106   0.812   3.719  13.375 -0.5823 -2.0180  1.5457
16897TIP3    H272107   0.793   3.682  13.230  0.6438  0.9302  0.5563
16898TIP3   OH272108   6.196   5.408   5.435  0.2292  0.5736  0.1700
16898TIP3    H172109   6.199   5.496   5.397  1.5990  1.2194  1.6694
16898TIP3    H272110   6.141   5.358   5.375  0.6909  2.0479 -1.5729
16899TIP3   OH272111   1.727   3.736  10.763 -0.1133 -0.2287  0.0584
16899TIP3    H172112   1.806   3.790  10.769 -1.2712  1.5518 -0.0021
16899TIP3    H272113   1.672   3.781  10.699 -1.4530 -1.0496  0.5928
16900TIP3   OH272114   3.757   0.183   3.157  0.0900 -0.2387 -0.2422
16900TIP3    H172115   3.705   0.176   3.077 -2.6816  0.0506  1.4284
16900TIP3    H272116   3.786   0.094   3.175 -1.5399 -0.7806 -0.1681
16901TIP3   OH272117   4.341   5.679   2.275 -0.9774 -0.0866  0.3391
16901TIP3    H172118   4.250   5.695   2.299 -0.3100  1.0169  2.3243
16901TIP3    H272119   4.378   5.633   2.349 -0.0254 -1.0064 -0.6756
16902TIP3   OH272120   4.581   1.255   4.457 -0.3941  0.3750  0.3760
16902TIP3    H172121   4.575   1.160   4.457 -1.1516  0.3842  2.2569
16902TIP3    H272122   4.637   1.276   4.532  1.4890  1.3866 -1.2047
16903TIP3   OH272123   3.884   1.588  16.186  0.2804 -0.1726 -0.1267
16903TIP3    H172124   3.863   1.641  16.263 -0.7674  0.0570 -0.5563
16903TIP3    H272125   3.936   1.516  16.221 -0.1002 -0.0201  0.7909
16904TIP3   OH272126   4.788   1.258  15.943  0.1989  0.6968  0.1811
16904TIP3    H172127   4.721   1.271  16.010 -0.3148 -0.6617 -0.0347
16904TIP3    H272128   4.802   1.345  15.906  0.5336  1.4994  2.0641
16905TIP3   OH272129   0.606   4.478   0.062 -0.5190 -0.0309 -0.4786
16905TIP3    H172130   0.585   4.544  -0.003 -1.1055 -0.7683 -1.0530
16905TIP3    H272131   0.573   4.514   0.144  0.0202  0.7990 -0.6148
16906TIP3   OH272132   2.245   0.486   3.421  0.0609  0.0748  0.0766
16906TIP3    H172133   2.289   0.405   3.447  0.7592  0.3009 -0.3868
16906TIP3    H272134   2.274   0.550   3.485  1.1529  0.4428 -0.7635
16907TIP3   OH272135   5.030   3.628  11.366  0.5202  0.1271  0.6510
16907TIP3    H172136   4.934   3.629  11.368  0.4954 -0.6568  0.2836
16907TIP3    H272137   5.054   3.700  11.307  0.1345 -0.0657  0.2552
16908TIP3   OH272138   5.032   4.262  15.514 -0.1903  0.0341  0.8232
16908TIP3    H172139   5.124   4.268  15.489 -0.3337 -1.4830 -0.2161
16908TIP3    H272140   5.029   4.187  15.574 -0.6590  0.4605  1.3382
16909TIP3   OH272141   4.959   3.513   0.055  0.4551  0.5520  0.1616
16909TIP3    H172142   5.013   3.544   0.128  0.1391  0.0178  0.6351
16909TIP3    H272143   4.891   3.460   0.097  1.2343 -1.1656 -0.6540
16910TIP3   OH272144   3.925   4.500   4.122 -0.3916 -0.1605 -0.5220
16910TIP3    H172145   3.920   4.587   4.160 -4.4080 -1.3095  2.2628
16910TIP3    H272146   3.849   4.494   4.064  1.4897 -0.9456 -3.0921
16911TIP3   OH272147   2.482   3.006   3.515  0.0728 -0.0065  0.4010
16911TIP3    H172148   2.574   3.028   3.502  0.6399 -2.6387 -0.6985
16911TIP3    H272149   2.468   3.012   3.609  1.9824 -1.5652  0.8342
16912TIP3   OH272150   1.131   1.117  13.372 -0.1181 -0.4755 -0.2342
16912TIP3    H172151   1.059   1.176  13.349 -0.0636 -0.9198 -1.5708
16912TIP3    H272152   1.152   1.141  13.463 -0.9183  0.7125 -0.3325
16913TIP3   OH272153   5.296   2.232  15.698 -0.2594  0.4333 -0.3943
16913TIP3    H172154   5.203   2.231  15.673 -0.5159  0.9490  0.4936
16913TIP3    H272155   5.298   2.280  15.781  0.7799  0.2410 -0.2953
16914TIP3   OH272156   4.076   2.879   5.926 -0.2666 -0.0577 -0.0963
16914TIP3    H172157   4.090   2.795   5.883 -2.9688 -0.4033 -0.5040
16914TIP3    H272158   4.096   2.945   5.859 -0.7341 -0.4864 -0.6684
16915TIP3   OH272159   5.159   6.577   4.331  0.0173 -0.6236 -0.6117
16915TIP3    H172160   5.091   6.513   4.350 -0.5979  0.2087  0.0594
16915TIP3    H272161   5.215   6.535   4.265  0.4330 -2.3822  0.8102
16916TIP3   OH272162   5.840   3.672  10.609  0.2961  0.3749  0.6344
16916TIP3    H172163   5.883   3.703  10.530 -1.0187 -1.0354 -0.7019
16916TIP3    H272164   5.806   3.585  10.586 -2.1962  0.8928  1.9404
16917TIP3   OH272165   5.741   2.008   0.665 -0.7468 -0.3166 -0.4762
16917TIP3    H172166   5.734   2.005   0.570 -1.1559  1.0082 -0.5151
16917TIP3    H272167   5.654   1.984   0.696 -0.6320 -0.6821 -0.4324
16918TIP3   OH272168   5.846   2.570   3.979  0.0313  0.2817 -0.2754
16918TIP3    H172169   5.772   2.623   3.950  0.1152  0.1453 -0.7378
16918TIP3    H272170   5.817   2.480   3.970 -0.1197  0.2413  0.5414
16919TIP3   OH272171   0.124   4.202   3.997  0.4268 -0.1875  0.1815
16919TIP3    H172172   0.075   4.243   3.926  1.8114  0.4924 -0.4289
16919TIP3    H272173   0.075   4.224   4.076 -1.0620 -0.8337 -0.5216
16920TIP3   OH272174   6.130   6.279  15.417 -0.1115 -0.0917  0.2723
16920TIP3    H172175   6.141   6.246  15.506 -0.1184 -3.9979 -0.9663
16920TIP3    H272176   6.150   6.372  15.423 -1.1050  0.0453  4.4839
16921TIP3   OH272177   5.089   6.544   4.851 -0.3997 -0.0804  0.2146
16921TIP3    H172178   5.136   6.610   4.901  0.2823 -0.4110  0.0288
16921TIP3    H272179   5.072   6.473   4.913 -1.1692  0.2792  0.4248
16922TIP3   OH272180   1.370   0.930  16.260  0.5477 -0.5659  0.2814
16922TIP3    H172181   1.289   0.937  16.310  0.5939  0.5199  0.2101
16922TIP3    H272182   1.374   0.837  16.235 -0.9762 -0.5246 -0.2168
16923TIP3   OH272183   6.344   0.573   0.476  0.6751 -0.5751 -0.2120
16923TIP3    H172184   6.288   0.523   0.536  1.1609 -0.9456 -0.0554
16923TIP3    H272185   6.433   0.548   0.501  1.0844  2.1641  1.4995
16924TIP3   OH272186   6.788   2.866   5.698  0.4579  0.0297 -0.3827
16924TIP3    H172187   6.772   2.864   5.792  0.4949  0.4124 -0.3664
16924TIP3    H272188   6.872   2.821   5.686  1.9683  2.5094  0.0977
16925TIP3   OH272189   4.653   5.375  10.885 -0.9477  0.0133 -0.3012
16925TIP3    H172190   4.580   5.431  10.859 -2.0142  0.2512  2.7820
16925TIP3    H272191   4.612   5.294  10.913 -0.0641  0.1559  1.5077
16926TIP3   OH272192   4.152   2.170   5.387 -0.2144  0.6412 -0.1025
16926TIP3    H172193   4.081   2.186   5.324 -0.4225  0.5984  0.1206
16926TIP3    H272194   4.190   2.256   5.402 -0.4939  0.7324  0.1014
16927TIP3   OH272195   0.021   5.268   4.085 -0.2224 -0.2541 -0.4969
16927TIP3    H172196   0.002   5.210   4.159 -2.2337  1.2310  0.2656
16927TIP3    H272197   0.094   5.321   4.114 -2.1111  1.5461  1.2833
16928TIP3   OH272198   1.431   5.934   3.682  0.8819 -0.2273 -0.6099
16928TIP3    H172199   1.501   5.966   3.625  0.6323 -1.8067 -1.8500
16928TIP3    H272200   1.379   5.876   3.627 -1.2861  0.6731  0.3513
16929TIP3   OH272201   2.845   6.408   1.896 -0.1849 -0.4158  0.2862
16929TIP3    H172202   2.831   6.346   1.968  0.6739 -0.4240  0.4495
16929TIP3    H272203   2.938   6.428   1.899 -0.4916  1.0887  0.3809
16930TIP3   OH272204   4.350   0.491   3.092 -0.0810  0.2470 -0.1570
16930TIP3    H172205   4.315   0.463   3.176  2.4845  1.0632  1.2805
16930TIP3    H272206   4.390   0.413   3.054 -0.4735  0.0824 -0.2417
16931TIP3   OH272207   5.414   1.000   5.666  0.2353  0.1597  0.0335
16931TIP3    H172208   5.347   0.932   5.674 -0.2084  0.7378  1.5168
16931TIP3    H272209   5.468   0.971   5.593 -0.9967 -0.8703 -0.5110
16932TIP3   OH272210   5.839   1.040  16.190 -0.6219 -0.3356  0.5897
16932TIP3    H172211   5.808   1.087  16.268 -1.4256  0.3128 -0.0998
16932TIP3    H272212   5.786   1.075  16.119  0.7403 -0.2486 -0.4159
16933TIP3   OH272213   0.867   2.875   2.455  0.6700  0.2640  0.2732
16933TIP3    H172214   0.894   2.784   2.446 -0.4208 -0.2038  1.5323
16933TIP3    H272215   0.934   2.924   2.408  0.9659 -1.2138 -0.9266
16934TIP3   OH272216   1.855   5.135  12.569 -0.1495 -0.0977  0.4021
16934TIP3    H172217   1.845   5.222  12.608  0.6855 -0.0926  0.6184
16934TIP3    H272218   1.895   5.082  12.637  0.9607 -0.1889 -0.2970
16935TIP3   OH272219   1.242   5.634   2.405  1.0097 -0.6300 -0.0012
16935TIP3    H172220   1.182   5.573   2.361  0.1746  0.1995 -0.0431
16935TIP3    H272221   1.312   5.648   2.341  0.6154 -0.6553 -0.4466
16936TIP3   OH272222   6.116   1.261   0.927  0.0633 -0.4698 -0.4519
16936TIP3    H172223   6.166   1.340   0.904  1.4585 -1.0346  0.5086
16936TIP3    H272224   6.180   1.205   0.972 -1.3640 -1.3747  0.5071
16937TIP3   OH272225   2.436   6.107   1.398 -0.2892 -0.3071 -0.1805
16937TIP3    H172226   2.356   6.152   1.424  0.9090  1.5729  0.4778
16937TIP3    H272227   2.456   6.048   1.472  0.4971  1.4481  1.0857
16938TIP3   OH272228   4.832   4.388   1.287  0.0575 -0.2844  0.3044
16938TIP3    H172229   4.770   4.409   1.218 -0.3036 -0.5282  0.5506
16938TIP3    H272230   4.909   4.356   1.241 -0.4134 -1.0562  0.0263
16939TIP3   OH272231   0.056   2.778  15.477 -0.1220 -0.2442 -0.1649
16939TIP3    H172232   0.005   2.790  15.557 -0.7465  0.1561 -0.6137
16939TIP3    H272233   0.121   2.849  15.480  0.2200 -0.5704  0.2596
16940TIP3   OH272234   6.285   3.816   5.808 -0.2816 -0.1220  0.5434
16940TIP3    H172235   6.366   3.765   5.817 -0.7542 -0.8616  0.7091
16940TIP3    H272236   6.315   3.906   5.795  0.5612 -0.2135  1.6903
16941TIP3   OH272237   2.551   0.813  12.083 -0.1589 -0.3005  0.1113
16941TIP3    H172238   2.467   0.832  12.126 -0.6722 -0.9809 -0.5590
16941TIP3    H272239   2.611   0.795  12.155  0.0288  2.3445  0.7494
16942TIP3   OH272240   4.910   1.885   0.559  0.0787 -0.3397 -0.0124
16942TIP3    H172241   4.904   1.839   0.475 -0.9978 -0.3672  0.0640
16942TIP3    H272242   4.895   1.977   0.537 -0.5685 -0.3903  0.1787
16943TIP3   OH272243   4.221   3.766  17.178 -0.3209  0.0122 -0.4712
16943TIP3    H172244   4.148   3.768  17.116 -1.6573 -1.7101  0.9439
16943TIP3    H272245   4.274   3.692  17.149 -0.1145  0.1454 -0.4351
16944TIP3   OH272246   5.766   6.101   5.207 -0.5203  0.0570  0.0311
16944TIP3    H172247   5.839   6.093   5.146  0.6973  1.4299  1.2198
16944TIP3    H272248   5.704   6.035   5.179  1.6801 -1.9800 -0.3452
16945TIP3   OH272249   5.638   3.686   5.675  0.2627  0.6866 -0.2061
16945TIP3    H172250   5.680   3.601   5.683  0.6396  0.7917 -0.9360
16945TIP3    H272251   5.560   3.680   5.730  0.7780  0.1933  0.4752
16946TIP3   OH272252   0.114   5.091   1.668 -0.7502  0.5281 -0.5012
16946TIP3    H172253   0.120   5.071   1.575 -0.6747  2.3520 -0.9277
16946TIP3    H272254   0.117   5.187   1.673  2.9814  0.5392  1.5921
16947TIP3   OH272255   4.790   5.264  16.108 -1.0812  0.5892  0.1005
16947TIP3    H172256   4.854   5.312  16.160  1.1110 -0.9468 -1.0575
16947TIP3    H272257   4.747   5.206  16.172 -0.2081  0.5253  0.6470
16948TIP3   OH272258   5.961   0.132   4.566 -0.4095  0.0016 -0.2515
16948TIP3    H172259   5.914   0.050   4.545  2.7389 -1.7348 -1.1675
16948TIP3    H272260   5.927   0.157   4.651 -2.3289 -1.5986 -0.4532
16949TIP3   OH272261   2.298   5.123   4.885  0.1194  0.3428 -0.1040
16949TIP3    H172262   2.207   5.101   4.866 -0.3123 -0.2278  2.2760
16949TIP3    H272263   2.293   5.205   4.934  0.9848  0.9216 -0.9708
16950TIP3   OH272264   3.628   4.536  13.532  0.0568  0.0942 -0.1218
16950TIP3    H172265   3.537   4.517  13.510 -0.1268  1.7245 -0.9261
16950TIP3    H272266   3.679   4.483  13.471 -0.3247 -1.0413  0.5178
16951TIP3   OH272267   0.002   1.151  12.868  0.1631 -0.2308 -0.1459
16951TIP3    H172268  -0.006   1.244  12.848 -1.4650 -0.3073 -0.0309
16951TIP3    H272269  -0.057   1.138  12.942 -0.8847 -1.6233 -1.1621
16952TIP3   OH272270   2.607   2.225  15.080  0.2236 -0.2439  0.9189
16952TIP3    H172271   2.649   2.286  15.020  0.3390 -0.7849  0.4455
16952TIP3    H272272   2.655   2.143  15.069 -0.6614 -0.7484  0.6891
16953TIP3   OH272273   2.440   5.673   1.290 -0.4458  0.2291 -0.2864
16953TIP3    H172274   2.402   5.740   1.234 -2.6029  0.5039  1.3815
16953TIP3    H272275   2.366   5.619   1.318  0.8474 -1.1661  0.6371
16954TIP3   OH272276   5.776   3.326   3.975 -0.1682 -0.7862 -0.0800
16954TIP3    H172277   5.785   3.418   4.001  0.2091 -0.3425 -1.6721
16954TIP3    H272278   5.683   3.307   3.987 -0.4512  0.1257 -0.6862
16955TIP3   OH272279   3.847   0.294   4.964  0.3930 -0.7469  0.0413
16955TIP3    H172280   3.870   0.252   5.047  0.4183 -1.2999 -0.2388
16955TIP3    H272281   3.855   0.224   4.900  1.1584 -0.1261 -0.5508
16956TIP3   OH272282   3.403   2.883   0.698  0.3169  0.3009  0.6930
16956TIP3    H172283   3.341   2.822   0.738 -0.2301  0.1858 -0.2950
16956TIP3    H272284   3.412   2.852   0.608  1.3889  0.6509  0.6643
16957TIP3   OH272285   0.262   5.679   0.800 -0.3180 -0.9801 -0.1830
16957TIP3    H172286   0.240   5.746   0.735  0.6317 -0.5006 -0.0285
16957TIP3    H272287   0.186   5.676   0.858  0.0899  0.8032  0.4932
16958TIP3   OH272288   4.140   2.816  15.564 -0.3734 -0.3902 -0.6580
16958TIP3    H172289   4.163   2.724  15.554 -1.6363 -0.6963 -1.0000
16958TIP3    H272290   4.223   2.860  15.582  0.4375 -1.4006 -1.7566
16959TIP3   OH272291   2.302   3.664  14.124  0.4475  0.1132  0.1254
16959TIP3    H172292   2.275   3.585  14.076  1.3967  1.1253 -2.2273
16959TIP3    H272293   2.321   3.728  14.056  0.2754  2.2302  1.9513
16960TIP3   OH272294   2.571   5.167  16.982 -0.0199 -0.6605 -0.0793
16960TIP3    H172295   2.502   5.212  17.031  0.1336 -0.7646  0.2344
16960TIP3    H272296   2.532   5.150  16.896 -0.2494 -0.3691 -0.0342
16961TIP3   OH272297   3.364   3.714   6.618 -0.7848 -0.2769  0.3290
16961TIP3    H172298   3.298   3.645   6.604 -0.1812 -1.2190  1.9273
16961TIP3    H272299   3.426   3.676   6.680 -0.5638  1.8125  1.4693
16962TIP3   OH272300   6.074   3.426   2.489 -0.1983  0.4868  0.2558
16962TIP3    H172301   6.026   3.345   2.472  1.7260 -0.5308 -0.5708
16962TIP3    H272302   6.080   3.469   2.404  1.0524  0.1768  0.1705
16963TIP3   OH272303   1.745   3.077  16.381 -0.0845 -0.4243 -0.3384
16963TIP3    H172304   1.835   3.078  16.414  0.1024 -1.1139 -0.7865
16963TIP3    H272305   1.754   3.086  16.286 -0.5667  0.7384 -0.2857
16964TIP3   OH272306   1.598   2.513   4.609 -0.1840 -0.3211 -0.1750
16964TIP3    H172307   1.684   2.549   4.591 -0.3324  0.0117 -0.2312
16964TIP3    H272308   1.565   2.485   4.524 -0.8027  1.0669 -0.4267
16965TIP3   OH272309   0.995   5.156   0.267 -0.4111  0.0605  0.3992
16965TIP3    H172310   0.996   5.150   0.362 -3.2755  2.6245  0.7474
16965TIP3    H272311   0.936   5.086   0.239  0.4251 -0.6879  0.4849
16966TIP3   OH272312   0.172   1.304   6.119  0.3094 -0.4203 -0.7297
16966TIP3    H172313   0.249   1.282   6.066  0.1579 -0.8037 -0.7888
16966TIP3    H272314   0.115   1.227   6.113  0.6804 -0.8400  0.7024
16967TIP3   OH272315   1.865   4.027   3.477  0.2465 -0.2717 -0.1757
16967TIP3    H172316   1.797   3.973   3.436 -0.4104 -1.7729  2.5852
16967TIP3    H272317   1.938   3.967   3.491  0.2525  0.0028  1.1765
16968TIP3   OH272318   2.169   3.258  13.003  0.1731 -0.2898 -0.2616
16968TIP3    H172319   2.262   3.243  13.023  0.2740  3.1399  3.1072
16968TIP3    H272320   2.122   3.195  13.057  0.5640 -0.1149  0.2948
16969TIP3   OH272321   6.771   4.614   2.819  0.6477 -0.4036  0.2586
16969TIP3    H172322   6.777   4.519   2.828 -0.9691 -0.4543  1.2059
16969TIP3    H272323   6.858   4.646   2.844  1.3549 -1.6218 -0.4919
16970TIP3   OH272324   0.491   6.224  15.542 -0.0831 -0.1454  0.5157
16970TIP3    H172325   0.490   6.141  15.495 -0.8463 -0.0800  0.4110
16970TIP3    H272326   0.458   6.288  15.479 -0.6798  0.0186  0.9857
16971TIP3   OH272327   5.202   4.851  14.412  0.0137 -0.1403 -0.4030
16971TIP3    H172328   5.203   4.941  14.379 -1.7699 -0.8130 -2.5119
16971TIP3    H272329   5.115   4.818  14.389  1.3291 -3.0762 -1.5967
16972TIP3   OH272330   6.318   4.685   5.074 -0.5709  0.5380  0.8868
16972TIP3    H172331   6.328   4.670   5.168  2.7819 -1.4416  0.3747
16972TIP3    H272332   6.280   4.605   5.040 -0.3035  0.6188  0.3824
16973TIP3   OH272333   4.735   2.062  13.752 -0.2456  0.5193  0.0035
16973TIP3    H172334   4.687   2.129  13.800 -0.1760  0.0680  0.7119
16973TIP3    H272335   4.748   1.991  13.815  0.5168  0.2379 -0.4497
16974TIP3   OH272336   2.785   1.547   2.900  0.0217 -0.0770  0.5668
16974TIP3    H172337   2.839   1.582   2.830  1.5928 -1.5349  0.9967
16974TIP3    H272338   2.824   1.583   2.980 -0.0104 -0.6543  0.8458
16975TIP3   OH272339   6.232   2.612  16.954 -0.3157  0.4618 -0.2974
16975TIP3    H172340   6.193   2.584  16.872  0.5976  0.5848 -0.7806
16975TIP3    H272341   6.275   2.695  16.934  0.5738  0.1096  0.1037
16976TIP3   OH272342   6.771   4.245  15.817 -0.1018  0.1469 -0.0376
16976TIP3    H172343   6.712   4.199  15.877 -1.0468  0.7894 -0.4561
16976TIP3    H272344   6.780   4.187  15.742  0.0555 -0.0871  0.1600
16977TIP3   OH272345   5.295   3.836   1.654 -0.5200 -0.1202 -0.3877
16977TIP3    H172346   5.243   3.813   1.577 -1.2220  0.4568 -0.1002
16977TIP3    H272347   5.362   3.895   1.620 -0.3234 -0.5152 -0.6909
16978TIP3   OH272348   5.399   6.189  14.876  0.6079  0.4218  1.1379
16978TIP3    H172349   5.307   6.206  14.856  0.6975 -0.9572 -0.7740
16978TIP3    H272350   5.398   6.119  14.941  0.2611 -0.4927  0.1815
16979TIP3   OH272351   5.034   3.262   3.746 -0.4587  0.4105 -0.4399
16979TIP3    H172352   5.009   3.243   3.656 -1.7608 -1.1264  0.1866
16979TIP3    H272353   4.982   3.339   3.770  1.7695  2.4436 -1.7177
16980TIP3   OH272354   2.884   3.763   6.383  0.5854  0.1284  0.6161
16980TIP3    H172355   2.823   3.788   6.452 -1.5896 -1.0225 -0.7579
16980TIP3    H272356   2.873   3.830   6.316 -2.2744 -1.9722 -1.3198
16981TIP3   OH272357   4.973   6.291   1.659 -0.1414  0.5107  0.2150
16981TIP3    H172358   4.981   6.322   1.750 -1.0068 -0.3011  0.5890
16981TIP3    H272359   5.008   6.202   1.662 -0.3387  0.4188 -0.2059
16982TIP3   OH272360   3.368   5.673   3.939 -0.0675 -0.2801 -0.2960
16982TIP3    H172361   3.315   5.611   3.890 -1.3655 -0.0117  0.7109
16982TIP3    H272362   3.330   5.673   4.027  2.4013 -1.0415  0.8677
16983TIP3   OH272363   6.635   4.852   2.037  0.1878  0.0973  0.7612
16983TIP3    H172364   6.561   4.905   2.066 -1.4941 -2.2661  1.0532
16983TIP3    H272365   6.711   4.891   2.080 -0.8571  2.5569  0.4997
16984TIP3   OH272366   0.464   5.037  12.684 -0.0309  0.0885 -0.4594
16984TIP3    H172367   0.547   5.014  12.725 -0.4601  1.6590  1.3990
16984TIP3    H272368   0.401   4.977  12.723 -0.0039 -0.3012 -0.9891
16985TIP3   OH272369   6.125   1.269   1.879 -0.0976  0.3598 -0.1168
16985TIP3    H172370   6.112   1.325   1.956  0.5335 -0.6666  0.7744
16985TIP3    H272371   6.114   1.328   1.805 -0.9754  1.3382  0.7408
16986TIP3   OH272372   6.017   5.676   5.483 -0.0475 -0.5035 -0.0489
16986TIP3    H172373   6.075   5.741   5.524 -0.1998 -0.6762  0.4395
16986TIP3    H272374   6.050   5.669   5.393 -1.1810  1.6530 -0.7157
16987TIP3   OH272375   5.426   0.487  13.231  0.1634 -1.1615  0.4571
16987TIP3    H172376   5.399   0.439  13.153  2.0446  1.5284 -2.0719
16987TIP3    H272377   5.368   0.563  13.234  1.2042 -0.3524  0.6315
16988TIP3   OH272378   5.773   0.814  11.716 -0.2051 -0.3429  0.0775
16988TIP3    H172379   5.790   0.826  11.622 -2.9794  2.9453 -0.1740
16988TIP3    H272380   5.733   0.728  11.722 -0.0504 -0.5912 -1.7778
16989TIP3   OH272381   3.491   4.782  15.884  0.4268 -0.2500 -0.1813
16989TIP3    H172382   3.419   4.774  15.946  0.6824  0.8028  0.2555
16989TIP3    H272383   3.449   4.777  15.798 -0.0697 -0.4146  0.0665
16990TIP3   OH272384   0.295   3.370   1.423 -0.0114  0.0808  0.7413
16990TIP3    H172385   0.280   3.434   1.353 -0.4146 -0.3344  0.4419
16990TIP3    H272386   0.370   3.405   1.472 -0.6384  1.1095  0.9803
16991TIP3   OH272387   3.964   5.756   3.816  0.0497 -0.1925  0.1883
16991TIP3    H172388   3.907   5.765   3.740  0.5410  1.2247 -0.0467
16991TIP3    H272389   4.016   5.836   3.816  1.4064 -1.0373  0.9134
16992TIP3   OH272390   6.229   3.096  12.489  0.3687  0.4567 -0.5579
16992TIP3    H172391   6.234   3.155  12.564  0.6792 -0.2082 -0.0509
16992TIP3    H272392   6.156   3.038  12.508  0.3748  0.3579 -0.8253
16993TIP3   OH272393   5.720   1.190   3.851  0.3038 -0.1752 -0.0178
16993TIP3    H172394   5.807   1.203   3.814  0.9483  0.2904  1.5681
16993TIP3    H272395   5.691   1.106   3.815  0.1706  0.9565 -2.8058
16994TIP3   OH272396   2.921   1.208   1.973 -0.1000  0.3589  0.0210
16994TIP3    H172397   2.928   1.225   1.879  1.0058 -2.1843 -0.4357
16994TIP3    H272398   2.857   1.138   1.980 -0.0603  0.4190  1.1707
16995TIP3   OH272399   6.621   3.126  17.078  0.2313  0.5928  0.2277
16995TIP3    H172400   6.658   3.172  17.003  0.6318  0.8172  0.5541
16995TIP3    H272401   6.561   3.190  17.118 -0.9608  0.0358 -0.6248
16996TIP3   OH272402   1.348   1.620  13.337  0.3844 -0.5846 -0.2730
16996TIP3    H172403   1.422   1.650  13.284  0.0257 -1.3205 -1.2186
16996TIP3    H272404   1.288   1.581  13.273 -0.9767  0.2987  0.4217
16997TIP3   OH272405   0.833   2.778  13.652 -0.0167 -0.1504 -0.0753
16997TIP3    H172406   0.798   2.789  13.564  0.5766 -0.3656 -0.3459
16997TIP3    H272407   0.825   2.685  13.671  0.8507 -0.2903 -0.3420
16998TIP3   OH272408   1.448   0.630   3.014 -0.0460 -0.7451  0.6341
16998TIP3    H172409   1.464   0.578   2.935 -1.0091 -1.7868  1.0850
16998TIP3    H272410   1.355   0.653   3.008  0.1600  0.1717  0.8943
16999TIP3   OH272411   3.877   3.830   2.010  0.0076  0.0367  0.3821
16999TIP3    H172412   3.964   3.857   2.038  0.3406 -0.6647  0.0513
16999TIP3    H272413   3.849   3.767   2.076 -0.0937 -0.0156  0.2890
17000TIP3   OH272414   0.439   5.562  15.469  0.0324  1.1993  0.3041
17000TIP3    H172415   0.506   5.547  15.535 -0.6434  0.0485  0.7484
17000TIP3    H272416   0.461   5.501  15.398 -0.1673  1.2937  0.1593
17001TIP3   OH272417   2.205   4.518  15.912 -0.3504  0.2571  0.3759
17001TIP3    H172418   2.143   4.518  15.839 -0.6279  0.7019  0.6101
17001TIP3    H272419   2.152   4.499  15.989  0.0588 -0.9536  0.3752
17002TIP3   OH272420   0.105   0.355   0.265 -0.0106  0.0211 -0.3908
17002TIP3    H172421   0.143   0.267   0.269  0.0548  0.0766  0.1909
17002TIP3    H272422   0.026   0.345   0.212 -0.5911 -0.6016  0.5799
17003TIP3   OH272423   3.842   6.472  14.752 -0.6735  0.0112  0.4775
17003TIP3    H172424   3.824   6.436  14.839 -0.1517 -1.2860  0.0791
17003TIP3    H272425   3.829   6.398  14.693  0.3898  0.4940 -0.3947
17004TIP3   OH272426   5.845   1.784   2.477 -0.3303 -0.2395 -0.3276
17004TIP3    H172427   5.856   1.803   2.383  1.2999 -1.2884 -0.3893
17004TIP3    H272428   5.803   1.698   2.479  1.9483 -1.4148 -0.1679
17005TIP3   OH272429   1.795   4.563   1.088 -0.4854 -0.3786 -0.8620
17005TIP3    H172430   1.784   4.579   0.994 -0.4932 -3.3975 -1.4663
17005TIP3    H272431   1.709   4.583   1.125 -0.8658 -0.3790 -1.6993
17006TIP3   OH272432   5.278   6.114   1.943  0.2070  0.8417  0.0320
17006TIP3    H172433   5.245   6.070   2.022  1.4401 -1.2954 -0.5563
17006TIP3    H272434   5.200   6.133   1.892 -0.4276 -0.6161  0.3925
17007TIP3   OH272435   0.657   0.393  11.768  0.2534  0.3727 -0.7739
17007TIP3    H172436   0.578   0.380  11.821  1.0511 -0.4602  0.2646
17007TIP3    H272437   0.720   0.432  11.829  1.2169 -0.6574 -1.0944
17008TIP3   OH272438   1.617   3.953   5.387 -0.5169 -0.1898  0.3007
17008TIP3    H172439   1.626   4.049   5.384  0.9075 -0.3086 -1.1004
17008TIP3    H272440   1.708   3.921   5.386 -0.9743 -1.5606  0.6509
17009TIP3   OH272441   1.436   5.958  15.831  0.0853  0.5617  0.0364
17009TIP3    H172442   1.355   5.940  15.785  1.9002 -1.8778 -2.5017
17009TIP3    H272443   1.452   5.881  15.885 -0.4451  2.0986  2.5944
17010TIP3   OH272444   5.990   5.628   4.644 -0.0742 -0.0269 -0.2111
17010TIP3    H172445   5.982   5.612   4.550 -0.5052 -1.1619  0.0109
17010TIP3    H272446   5.905   5.601   4.680  0.4282 -0.5244  0.6251
17011TIP3   OH272447   5.793   3.275  15.982 -0.2451 -0.3327  0.4184
17011TIP3    H172448   5.883   3.244  15.990 -0.5701 -1.4527 -0.0602
17011TIP3    H272449   5.800   3.360  15.938  0.4989 -0.9423 -0.6707
17012TIP3   OH272450   2.912   1.948   1.219 -0.2167  0.2831 -0.5418
17012TIP3    H172451   2.979   1.941   1.150  0.3401  2.5202 -0.3012
17012TIP3    H272452   2.887   1.857   1.237  2.3518 -0.6220 -1.0455
17013TIP3   OH272453   4.722   5.449   1.224  0.1731  0.3358  0.1166
17013TIP3    H172454   4.768   5.444   1.307  1.8292 -0.7713 -0.8192
17013TIP3    H272455   4.712   5.358   1.196  0.8096  0.7309 -1.4935
17014TIP3   OH272456   4.168   6.367  13.723 -0.6511 -0.0892  0.0001
17014TIP3    H172457   4.080   6.372  13.760 -0.4485 -0.7246  0.5827
17014TIP3    H272458   4.158   6.315  13.643 -0.4857 -1.9802  1.1505
17015TIP3   OH272459   3.307   2.675  15.788  0.1074  0.2010 -0.6549
17015TIP3    H172460   3.362   2.604  15.756  0.2690  0.4793 -0.9891
17015TIP3    H272461   3.301   2.659  15.883  0.3578 -0.1052 -0.6889
17016TIP3   OH272462   0.597   5.210  15.323  0.0899 -0.1298 -0.4295
17016TIP3    H172463   0.514   5.238  15.283  0.1415 -1.8039 -1.8235
17016TIP3    H272464   0.657   5.201  15.249  0.7184 -1.6063  0.2346
17017TIP3   OH272465   6.610   2.988  13.713 -0.2282 -0.2234 -0.5356
17017TIP3    H172466   6.534   3.040  13.688  0.2905  0.5309 -0.5801
17017TIP3    H272467   6.647   3.033  13.789 -0.1896 -0.9463 -0.1106
17018TIP3   OH272468   6.601   0.633  15.079 -0.4573 -0.8852 -0.2912
17018TIP3    H172469   6.655   0.638  15.000 -0.5468 -0.0327 -0.3102
17018TIP3    H272470   6.521   0.589  15.051 -1.0150  0.5078 -0.9958
17019TIP3   OH272471   0.204   4.071   5.709  1.3473 -0.0043 -0.1651
17019TIP3    H172472   0.289   4.094   5.747  2.2356 -2.5495 -0.3929
17019TIP3    H272473   0.225   4.008   5.641 -0.7919 -1.7655  0.6794
17020TIP3   OH272474   3.169   2.400  14.852 -0.5218  0.0705 -0.0290
17020TIP3    H172475   3.123   2.482  14.835  0.0295  0.3725 -0.0617
17020TIP3    H272476   3.215   2.381  14.770 -0.5695 -0.2238  0.0094
17021TIP3   OH272477   5.485   6.334   2.027  0.0308  0.4282 -0.2817
17021TIP3    H172478   5.450   6.261   2.078  1.3345 -0.0469 -0.0327
17021TIP3    H272479   5.418   6.351   1.961 -1.0849  0.1718  0.7373
17022TIP3   OH272480   6.770   2.250  15.573 -0.1227  0.6306  0.8333
17022TIP3    H172481   6.806   2.246  15.661  0.2836  1.2134  0.7013
17022TIP3    H272482   6.763   2.344  15.554  1.5507  0.5407 -0.4610
17023TIP3   OH272483   2.647   1.183   0.684  0.4812 -0.2984 -0.0786
17023TIP3    H172484   2.568   1.237   0.683  0.0911 -0.8409 -1.3374
17023TIP3    H272485   2.689   1.202   0.600  0.1075 -2.2442 -0.7549
17024TIP3   OH272486   0.944   6.595  11.776  0.3225  0.2133  0.9892
17024TIP3    H172487   0.890   6.524  11.812  1.6031 -1.4443 -0.1656
17024TIP3    H272488   0.967   6.649  11.851 -1.6227  0.0555  1.7313
17025TIP3   OH272489   2.721   6.173   0.102 -1.1116  0.3181  0.4245
17025TIP3    H172490   2.775   6.111   0.053 -0.3694  0.6837  0.7457
17025TIP3    H272491   2.746   6.258   0.066 -0.4635  0.5997  1.4986
17026TIP3   OH272492   3.847   3.625  16.929  0.0196 -0.4553 -0.0909
17026TIP3    H172493   3.895   3.605  16.849 -0.6984  0.0358 -0.6593
17026TIP3    H272494   3.906   3.682  16.979 -0.1354  0.5131 -0.9896
17027TIP3   OH272495   5.002   6.459  14.107 -0.1473  0.1607  0.0501
17027TIP3    H172496   5.086   6.490  14.072 -1.4157  3.5629 -0.3082
17027TIP3    H272497   5.022   6.433  14.197  1.2412  1.2649  0.0889
17028TIP3   OH272498   4.235   3.324   1.849 -0.3289 -0.2451 -0.0848
17028TIP3    H172499   4.211   3.416   1.857  0.2223  0.0610 -1.5877
17028TIP3    H272500   4.153   3.279   1.830 -0.5163  0.0028  0.1265
17029TIP3   OH272501   6.654   6.063  16.632  0.0102  0.1906  0.4701
17029TIP3    H172502   6.735   6.014  16.620 -0.0605  0.2618 -0.3852
17029TIP3    H272503   6.658   6.095  16.722  2.7549  3.3943 -0.5712
17030TIP3   OH272504   1.610   1.078   3.967  0.2833 -0.2697 -0.4405
17030TIP3    H172505   1.676   1.012   3.949 -0.8315 -1.8160  0.8150
17030TIP3    H272506   1.623   1.101   4.059 -0.2300  0.2085 -0.4792
17031TIP3   OH272507   4.420   1.338   6.144 -0.0369  0.0278  0.3093
17031TIP3    H172508   4.434   1.243   6.141  1.9214  0.3046 -2.3093
17031TIP3    H272509   4.478   1.368   6.214  0.2840 -0.5771  0.3078
17032TIP3   OH272510   3.441   5.447   2.336 -0.1575 -0.3442  0.4971
17032TIP3    H172511   3.488   5.376   2.293  0.3536 -0.1722  0.7671
17032TIP3    H272512   3.473   5.527   2.295 -0.4254 -0.2413  0.4830
17033TIP3   OH272513   6.074   3.043   0.907  0.2118 -0.5109  0.5657
17033TIP3    H172514   6.061   3.003   0.822  0.3082 -0.1800  0.3907
17033TIP3    H272515   6.144   3.107   0.893 -0.8152  0.6366  0.5297
17034TIP3   OH272516   5.675   4.071   3.918  0.1622  0.0526 -0.0642
17034TIP3    H172517   5.653   4.089   3.827  2.0828 -0.1058 -0.5923
17034TIP3    H272518   5.658   4.153   3.963 -0.6231  0.1892 -0.5833
17035TIP3   OH272519   1.752   1.124   0.308  0.3575 -0.1465 -0.3119
17035TIP3    H172520   1.802   1.196   0.346  0.9523 -1.7330  2.1726
17035TIP3    H272521   1.700   1.090   0.382  0.2296 -2.3434 -1.3376
17036TIP3   OH272522   4.296   3.934   0.859 -0.3452  0.1051 -0.3247
17036TIP3    H172523   4.240   3.959   0.785 -0.0608  2.0208  0.0623
17036TIP3    H272524   4.261   3.850   0.888 -0.3744 -0.7940 -2.7211
17037TIP3   OH272525   3.725   4.338  15.832 -0.1141  0.2558 -0.3551
17037TIP3    H172526   3.795   4.394  15.799 -0.6056  1.3529  0.3797
17037TIP3    H272527   3.671   4.320  15.755  0.1437  0.6581 -0.6378
17038TIP3   OH272528   1.037   0.520  14.061 -0.0930  0.0587  0.0622
17038TIP3    H172529   1.005   0.430  14.055  0.9682 -0.3181 -0.1921
17038TIP3    H272530   1.011   0.550  14.149  0.8484 -1.0325  0.7429
17039TIP3   OH272531   1.697   3.317   5.223  0.3218  0.0707 -0.3124
17039TIP3    H172532   1.749   3.396   5.207 -1.3772  1.2777 -0.2819
17039TIP3    H272533   1.688   3.277   5.136  2.5578 -1.0403 -0.0763
17040TIP3   OH272534   1.336   0.275   2.089 -0.1127  0.0467 -0.2144
17040TIP3    H172535   1.255   0.319   2.064  0.4164  0.6199 -0.9655
17040TIP3    H272536   1.328   0.186   2.054 -2.8422 -1.9359  4.4567
17041TIP3   OH272537   3.320   3.050   5.791 -0.2033 -0.9769  0.3943
17041TIP3    H172538   3.386   3.118   5.775 -1.6375  0.5016  0.5624
17041TIP3    H272539   3.348   3.011   5.874 -0.7763  1.2522  1.7289
17042TIP3   OH272540   1.518   0.924  14.869 -0.4662  0.0503  0.2722
17042TIP3    H172541   1.580   0.855  14.846 -0.4598  0.2221 -0.2365
17042TIP3    H272542   1.444   0.910  14.810 -0.9895 -0.2628  0.9967
17043TIP3   OH272543   3.237   4.226   5.688 -0.3904  1.0559 -0.2228
17043TIP3    H172544   3.200   4.252   5.604  0.8651  3.0270 -0.2175
17043TIP3    H272545   3.161   4.219   5.746 -1.0984  1.3630 -1.0950
17044TIP3   OH272546   3.518   6.604  12.366  0.5842 -0.2753  0.5580
17044TIP3    H172547   3.491   6.552  12.442  1.6765 -0.7354  0.6628
17044TIP3    H272548   3.470   6.686  12.374 -0.9626 -1.1483  0.5578
17045TIP3   OH272549   2.526   4.371   4.326  1.5663  0.3267  0.2534
17045TIP3    H172550   2.586   4.302   4.296  0.8729 -0.4264  0.5520
17045TIP3    H272551   2.503   4.345   4.415  0.0498  0.0760 -0.1907
17046TIP3   OH272552   1.494   4.642  15.855  0.5001 -0.5299  0.4856
17046TIP3    H172553   1.507   4.617  15.764  2.0797 -1.0577  0.8236
17046TIP3    H272554   1.581   4.669  15.885 -0.1537  0.4553  1.6010
17047TIP3   OH272555   5.909   1.741   3.238  0.4903 -0.3574  0.0128
17047TIP3    H172556   5.966   1.706   3.169 -0.1963 -1.3768 -0.0540
17047TIP3    H272557   5.860   1.811   3.196  2.2246  1.0866  0.2676
17048TIP3   OH272558   0.573   3.714   4.861  0.1960  0.6008 -0.3682
17048TIP3    H172559   0.541   3.661   4.934  2.6272  1.1705  1.2021
17048TIP3    H272560   0.601   3.796   4.901  0.9857  1.2023 -2.0601
17049TIP3   OH272561   0.130   6.204   5.650 -0.4937  0.8517  0.1721
17049TIP3    H172562   0.208   6.185   5.597 -0.6221  0.3331  0.1554
17049TIP3    H272563   0.117   6.298   5.641 -0.9511  0.6695 -1.3353
17050TIP3   OH272564   4.475   4.671  12.582 -0.6949 -0.1620 -0.0178
17050TIP3    H172565   4.450   4.699  12.670  2.4509 -0.8010  1.2401
17050TIP3    H272566   4.566   4.641  12.592  0.2535  0.9408 -3.7513
17051TIP3   OH272567   1.378   2.599  16.160  0.5402 -0.4080 -0.1133
17051TIP3    H172568   1.395   2.675  16.216  0.1923 -1.1617  1.0482
17051TIP3    H272569   1.465   2.571  16.132  0.5996  1.4820 -2.0867
17052TIP3   OH272570   2.922   0.039  13.560 -0.1211  0.1947 -0.2612
17052TIP3    H172571   2.888   0.037  13.471 -0.6734 -1.9440 -0.0652
17052TIP3    H272572   3.014   0.014  13.551 -0.4555 -1.1716 -0.1798
17053TIP3   OH272573   1.765   0.976  14.589  0.6562  0.4661 -0.7949
17053TIP3    H172574   1.804   0.900  14.632 -2.5809 -0.4163  0.8176
17053TIP3    H272575   1.784   1.049  14.648 -2.5211 -0.4908  1.6792
17054TIP3   OH272576   3.448   1.244   0.422  0.4617 -0.4751  0.2383
17054TIP3    H172577   3.355   1.222   0.429  0.1489  0.0288 -1.6959
17054TIP3    H272578   3.486   1.173   0.371  0.5287  0.7189 -1.4402
17055TIP3   OH272579   1.240   5.849  16.339 -0.7600 -0.1718  0.2196
17055TIP3    H172580   1.247   5.923  16.279 -0.0670 -1.6823 -1.6768
17055TIP3    H272581   1.328   5.811  16.339 -1.8176 -2.8706 -1.4601
17056TIP3   OH272582   5.313   2.486  14.834 -0.5420  0.2528  0.1387
17056TIP3    H172583   5.340   2.403  14.794 -1.2756  0.0751 -0.0059
17056TIP3    H272584   5.270   2.460  14.916 -1.9302  0.3870 -0.5230
17057TIP3   OH272585   0.989   0.984  12.581 -0.0624 -0.0836  0.5045
17057TIP3    H172586   1.042   0.905  12.572 -1.3953 -0.8922 -0.6592
17057TIP3    H272587   0.948   0.996  12.495  0.9178  2.5053  0.3027
17058TIP3   OH272588   1.487   5.738  14.364 -0.3588 -1.0477  0.1120
17058TIP3    H172589   1.581   5.753  14.356 -0.4936  0.4391  0.9746
17058TIP3    H272590   1.448   5.806  14.309 -0.9392 -1.3869  0.1011
17059TIP3   OH272591   4.546   6.689  11.454  0.3623 -0.3022  0.1017
17059TIP3    H172592   4.493   6.765  11.429  0.3196 -0.7361 -1.2176
17059TIP3    H272593   4.574   6.708  11.543 -1.1325  0.4347  0.4502
17060TIP3   OH272594   3.122   4.275   1.436 -0.4608 -0.2918 -0.9868
17060TIP3    H172595   3.061   4.345   1.415 -0.4798 -0.2998 -0.9597
17060TIP3    H272596   3.091   4.200   1.386 -0.8603 -0.4785 -0.4725
17061TIP3   OH272597   4.611   0.514   3.882 -0.1168  0.0482  0.1264
17061TIP3    H172598   4.649   0.453   3.819 -1.1080 -0.7410  0.2727
17061TIP3    H272599   4.645   0.600   3.856  1.8815 -0.6246  0.3697
17062TIP3   OH272600   2.444   6.469  12.443 -0.8467  0.2993 -0.1626
17062TIP3    H172601   2.517   6.485  12.502  1.4064 -2.0597 -2.0677
17062TIP3    H272602   2.379   6.422  12.497  0.9642 -1.4211  0.6376
17063TIP3   OH272603   2.239   2.842  16.476 -0.0653  0.5675  0.3941
17063TIP3    H172604   2.271   2.752  16.471  1.5250  1.0675  0.7902
17063TIP3    H272605   2.285   2.887  16.405 -0.2551  1.2283  0.6871
17064TIP3   OH272606   2.386   3.781   5.760  0.5958 -0.3781 -0.3211
17064TIP3    H172607   2.369   3.851   5.823 -0.5565 -0.4293 -0.5474
17064TIP3    H272608   2.339   3.705   5.794  0.0697 -0.4440 -1.1499
17065TIP3   OH272609   2.953   5.398  15.321 -0.2362 -0.0303 -0.6551
17065TIP3    H172610   2.887   5.330  15.317 -2.4768  2.0321 -1.4455
17065TIP3    H272611   2.966   5.415  15.414 -2.4486  0.9135 -0.4593
17066TIP3   OH272612   6.370   4.458   4.910  0.0311  0.2076 -0.1941
17066TIP3    H172613   6.416   4.431   4.831  1.7139  0.0195  0.8020
17066TIP3    H272614   6.410   4.407   4.980 -1.7547  0.0132  0.7431
17067TIP3   OH272615   3.165   0.457  13.667  0.9986  0.2066  0.1928
17067TIP3    H172616   3.107   0.489  13.599  1.0189  0.3209  0.2290
17067TIP3    H272617   3.117   0.471  13.749  0.6571 -0.6284  0.1459
17068TIP3   OH272618   1.674   1.873   4.559 -0.5617  0.8585 -0.4842
17068TIP3    H172619   1.731   1.796   4.555  0.9848  1.9724 -0.7942
17068TIP3    H272620   1.733   1.945   4.581 -1.9451  1.9989 -0.3713
17069TIP3   OH272621   5.399   4.477   4.146  0.0512 -0.4833  0.2904
17069TIP3    H172622   5.412   4.419   4.221  2.6248  0.0409  0.3412
17069TIP3    H272623   5.313   4.453   4.112 -0.0381 -2.5887  1.7855
17070TIP3   OH272624   5.079   5.755  13.277 -0.1041 -0.0785  0.2417
17070TIP3    H172625   5.023   5.724  13.348 -1.4736  0.3051 -0.6231
17070TIP3    H272626   5.063   5.695  13.205  1.6825 -0.7826  0.3941
17071TIP3   OH272627   5.552   2.964   3.053 -0.0558  0.3198 -0.5211
17071TIP3    H172628   5.533   3.032   3.118  1.3168 -0.2598  0.5352
17071TIP3    H272629   5.481   2.900   3.064  0.4510 -0.0408  0.8292
17072TIP3   OH272630   4.594   4.597  11.124 -0.0551 -0.0248 -0.2132
17072TIP3    H172631   4.578   4.669  11.063  0.6558 -0.1723 -0.5888
17072TIP3    H272632   4.560   4.520  11.078  2.9803 -0.6222 -1.7573
17073TIP3   OH272633   0.554   2.316  13.280  0.4805  0.2814 -0.2338
17073TIP3    H172634   0.470   2.361  13.275  1.1689  1.6880  0.2464
17073TIP3    H272635   0.542   2.251  13.349  0.1343  1.3114  0.7161
17074TIP3   OH272636   2.109   4.580  13.243 -0.2030 -0.2853 -0.3438
17074TIP3    H172637   2.121   4.566  13.149  0.9241 -1.8719 -0.0085
17074TIP3    H272638   2.175   4.645  13.267  1.8660 -2.3334 -0.1212
17075TIP3   OH272639   3.949   6.332   1.254  0.5527 -0.1964 -0.6310
17075TIP3    H172640   4.000   6.251   1.246  0.6167 -0.4179  1.5018
17075TIP3    H272641   4.015   6.401   1.264  0.5072 -0.4123  1.5453
17076TIP3   OH272642   4.268   3.298   5.303 -0.6283  0.0598  0.8464
17076TIP3    H172643   4.242   3.344   5.224  0.7844  1.2930  1.0499
17076TIP3    H272644   4.353   3.336   5.326 -0.2267 -1.4405  2.0186
17077TIP3   OH272645   1.414   1.815  12.323 -0.1793 -0.0259  0.1014
17077TIP3    H172646   1.403   1.737  12.268  2.2147  0.3364 -1.0121
17077TIP3    H272647   1.418   1.781  12.412 -1.0947 -0.9635 -0.2014
17078TIP3   OH272648   2.453   5.095   2.372  0.1954 -0.1704 -0.5449
17078TIP3    H172649   2.471   5.023   2.311 -1.6938  0.0679 -1.4566
17078TIP3    H272650   2.426   5.052   2.453  3.1078 -0.5008  0.3570
17079TIP3   OH272651   3.613   5.808  12.255 -0.0574  0.0835 -0.0467
17079TIP3    H172652   3.707   5.802  12.274  0.4003  1.6917 -1.5973
17079TIP3    H272653   3.588   5.717  12.235  1.3145 -0.2772 -0.2661
17080TIP3   OH272654   1.932   0.294  11.720  0.0651  0.7109  0.3436
17080TIP3    H172655   1.943   0.269  11.811 -2.9409 -1.3340  0.2732
17080TIP3    H272656   1.894   0.382  11.724 -1.2229  0.1493  1.1709
17081TIP3   OH272657   0.017   3.438  11.962  0.0177  0.2265  0.7496
17081TIP3    H172658   0.100   3.473  11.928 -0.1097 -0.4278 -0.2678
17081TIP3    H272659  -0.016   3.507  12.019  0.8492  0.8455  0.5101
17082TIP3   OH272660   2.934   1.603   2.631 -0.6221  0.9714 -0.4625
17082TIP3    H172661   2.992   1.578   2.703 -1.2456  1.0815  0.0866
17082TIP3    H272662   2.979   1.571   2.552  0.0633  0.8397 -0.0320
17083TIP3   OH272663   5.770   0.156   3.560  0.0478 -0.1687  0.3778
17083TIP3    H172664   5.713   0.225   3.527  0.0006 -0.7933 -0.9129
17083TIP3    H272665   5.796   0.108   3.482 -0.5301 -2.0860  1.3248
17084TIP3   OH272666   5.916   5.074   0.461 -0.1857  0.6293  0.0506
17084TIP3    H172667   5.904   4.980   0.474 -1.5192  0.5946 -1.1547
17084TIP3    H272668   5.972   5.081   0.383  1.5958  0.8561  1.2971
17085TIP3   OH272669   1.902   2.203   4.915 -0.0898 -0.3190 -0.0734
17085TIP3    H172670   1.974   2.209   4.978  0.7663 -1.3744 -0.9214
17085TIP3    H272671   1.835   2.262   4.950  1.5697  1.5161  0.1953
17086TIP3   OH272672   0.082   3.175  12.676 -0.0389  0.0937 -0.1089
17086TIP3    H172673   0.083   3.095  12.728 -1.7102  0.1349  0.0418
17086TIP3    H272674   0.171   3.211  12.686  0.7752 -1.7547 -0.2705
17087TIP3   OH272675   1.720   4.548   0.330 -0.1154 -0.2225 -0.2287
17087TIP3    H172676   1.762   4.482   0.275  0.7223  0.0639  0.0523
17087TIP3    H272677   1.641   4.573   0.282 -0.1532 -1.0241 -0.5989
17088TIP3   OH272678   2.118   1.820   0.700  0.1920  0.5499 -0.8967
17088TIP3    H172679   2.079   1.869   0.772 -0.6242 -0.6460 -0.5029
17088TIP3    H272680   2.043   1.779   0.655  0.9039 -1.1833 -0.5765
17089TIP3   OH272681   5.933   4.942  13.736 -0.2277 -0.0463 -0.0292
17089TIP3    H172682   5.851   4.986  13.714 -0.6188 -0.5153  0.4800
17089TIP3    H272683   5.942   4.953  13.831  2.5593  3.9152 -0.4928
17090TIP3   OH272684   1.081   3.910  14.983  0.0074 -0.1742 -0.0619
17090TIP3    H172685   1.058   4.002  14.994  0.7545 -0.0506  0.5454
17090TIP3    H272686   1.155   3.896  15.042 -1.1552 -1.5934  1.1363
17091TIP3   OH272687   4.664   5.112  15.330 -0.0817 -0.1427 -0.2930
17091TIP3    H172688   4.640   5.201  15.302 -4.1507 -0.6350  0.9021
17091TIP3    H272689   4.734   5.124  15.394 -1.7513  2.4726  1.2229
17092TIP3   OH272690   0.468   6.028   2.404  0.0910 -0.3874 -0.0584
17092TIP3    H172691   0.378   6.002   2.424  0.6900 -2.2069  0.4839
17092TIP3    H272692   0.510   6.040   2.489  0.6819 -0.7982 -0.2786
17093TIP3   OH272693   4.048   4.811   1.230 -0.1281  0.2148  0.1063
17093TIP3    H172694   4.116   4.748   1.256 -0.0898 -0.5806 -1.7584
17093TIP3    H272695   3.978   4.798   1.294  1.3260  0.9037  1.9536
17094TIP3   OH272696   6.236   6.581   4.171 -0.4204  0.0459 -0.0573
17094TIP3    H172697   6.264   6.503   4.218 -0.9831 -0.7519 -1.0112
17094TIP3    H272698   6.314   6.610   4.123  0.1043  0.7600  1.1955
17095TIP3   OH272699   6.688   0.528   5.214 -0.0470 -0.1970  0.7531
17095TIP3    H172700   6.607   0.496   5.254  0.0957  0.4733  1.5783
17095TIP3    H272701   6.664   0.611   5.172 -0.2142 -0.9155 -0.6521
17096TIP3   OH272702   4.979   3.349   4.356 -0.0996 -0.2787 -0.5753
17096TIP3    H172703   4.980   3.263   4.398  0.2200 -1.3107 -2.5475
17096TIP3    H272704   4.970   3.411   4.428  0.1994 -1.9258  0.9600
17097TIP3   OH272705   5.304   1.454  12.649  0.2359 -0.7123 -0.2357
17097TIP3    H172706   5.268   1.438  12.561 -0.9443  0.9056 -0.0927
17097TIP3    H272707   5.252   1.527  12.683  0.5860 -1.3835  1.8786
17098TIP3   OH272708   2.056   4.098  11.194  0.7539 -0.4814  0.2015
17098TIP3    H172709   2.111   4.149  11.134  1.0431 -1.0089  0.0162
17098TIP3    H272710   2.016   4.031  11.139  0.4496 -0.5136  0.4647
17099TIP3   OH272711   3.583   6.128  11.897 -0.0200  0.0926  0.3429
17099TIP3    H172712   3.538   6.062  11.950  0.3170 -0.9547 -0.6310
17099TIP3    H272713   3.663   6.085  11.868  0.7584  1.3262  0.5953
17100TIP3   OH272714   3.146   2.367   6.501 -0.9166  0.2868  0.3102
17100TIP3    H172715   3.051   2.370   6.490 -1.0271  3.4535  1.0414
17100TIP3    H272716   3.161   2.301   6.568 -2.8697  1.4134  1.9663
17101TIP3   OH272717   2.885   6.608   0.541  0.0246  0.2017  0.1602
17101TIP3    H172718   2.967   6.560   0.556 -0.4395 -0.3926  0.8017
17101TIP3    H272719   2.817   6.541   0.541 -0.5090  0.7324 -0.0458
17102TIP3   OH272720   1.344   5.000  16.172  0.0783 -0.4762 -0.1732
17102TIP3    H172721   1.272   4.942  16.196  0.5897 -1.7138 -1.4617
17102TIP3    H272722   1.356   5.057  16.248 -0.6682 -1.8478  1.0167
17103TIP3   OH272723   0.809   5.778   5.322 -0.4247  0.0736 -0.2564
17103TIP3    H172724   0.847   5.727   5.250  1.6727  1.2337 -0.0582
17103TIP3    H272725   0.767   5.852   5.280 -0.0189  0.2553 -0.3469
17104TIP3   OH272726   5.136   3.815   3.134 -0.4876 -0.4024 -0.2665
17104TIP3    H172727   5.228   3.795   3.153 -0.6761 -0.1622  1.0480
17104TIP3    H272728   5.139   3.896   3.083  0.0133 -0.0270  0.3415
17105TIP3   OH272729   6.389   3.801  14.500 -0.9494 -0.0259 -0.8199
17105TIP3    H172730   6.313   3.743  14.493 -0.7274 -0.2679 -1.2931
17105TIP3    H272731   6.423   3.785  14.588 -1.3602 -0.0159 -0.6526
17106TIP3   OH272732   2.628   0.035  13.710 -0.0150 -0.1417  0.4056
17106TIP3    H172733   2.632   0.092  13.787  1.5963  0.9054 -0.3948
17106TIP3    H272734   2.629   0.095  13.635 -2.1778 -1.1027 -0.4828
17107TIP3   OH272735   5.171   6.024   3.819 -0.4116 -0.1125 -0.2353
17107TIP3    H172736   5.147   6.116   3.827 -1.6276 -0.3862 -0.5810
17107TIP3    H272737   5.164   6.005   3.725  2.4079  0.0809 -0.5917
17108TIP3   OH272738   3.334   2.129  11.334  0.2441  0.0819  0.0136
17108TIP3    H172739   3.320   2.224  11.333 -0.5895  0.0341 -3.1276
17108TIP3    H272740   3.260   2.093  11.285  1.3768 -2.0346 -0.2742
17109TIP3   OH272741   1.158   0.368   0.911 -0.3586  0.5892 -0.9179
17109TIP3    H172742   1.157   0.297   0.847 -3.5099 -1.0340  0.6992
17109TIP3    H272743   1.080   0.421   0.890 -2.7001 -1.1311  2.4786
17110TIP3   OH272744   0.736   4.990   4.379  0.5346 -0.1442 -0.0961
17110TIP3    H172745   0.648   4.956   4.396  0.1220 -0.4144 -2.4678
17110TIP3    H272746   0.790   4.912   4.365  0.5535  0.0498 -1.2019
17111TIP3   OH272747   2.182   1.309  17.194  0.1536  0.2806  0.3688
17111TIP3    H172748   2.115   1.350  17.139 -0.5400  1.5490  2.0613
17111TIP3    H272749   2.198   1.373  17.264  3.7088  0.3581 -0.3240
17112TIP3   OH272750   6.013   6.065   5.092  0.0555  0.4052  0.2562
17112TIP3    H172751   6.001   6.133   5.026  2.6090  1.9020  1.1900
17112TIP3    H272752   6.027   5.984   5.042  1.7583  1.4716 -1.0999
17113TIP3   OH272753   1.496   1.354  11.951  1.0772  0.0312 -0.8846
17113TIP3    H172754   1.490   1.278  11.893  1.2636 -0.4288 -0.3234
17113TIP3    H272755   1.405   1.382  11.962  1.0129 -0.0656 -1.1594
17114TIP3   OH272756   6.716   2.046  16.565 -0.2656  0.4222  0.2035
17114TIP3    H172757   6.651   1.996  16.514  0.2393 -0.4515  0.3938
17114TIP3    H272758   6.663   2.101  16.623 -0.8931  2.1753 -1.8718
17115TIP3   OH272759   5.731   5.433  11.676 -0.3197 -0.0143 -0.2537
17115TIP3    H172760   5.636   5.422  11.682 -0.5024  0.9278 -1.1040
17115TIP3    H272761   5.756   5.477  11.757 -0.4337 -1.2795  0.4824
17116TIP3   OH272762   5.338   1.467   0.499 -0.5097  0.4537 -0.0092
17116TIP3    H172763   5.272   1.402   0.474  0.1139 -0.7239  1.2626
17116TIP3    H272764   5.360   1.445   0.589 -0.3142  2.4988  0.5025
17117TIP3   OH272765   3.676   0.096  12.310  0.4870  0.2575 -0.3601
17117TIP3    H172766   3.723   0.048  12.378 -0.0650  0.8840  0.4710
17117TIP3    H272767   3.641   0.027  12.252 -0.4464 -0.3702  0.9127
17118TIP3   OH272768   5.696   5.819  13.066 -0.2521  0.3915  0.2509
17118TIP3    H172769   5.725   5.768  12.990  0.0867  1.0096 -0.0377
17118TIP3    H272770   5.678   5.753  13.133 -0.5205 -0.1542 -0.3531
17119TIP3   OH272771   2.516   6.431  16.237  1.1466  0.2005  0.1347
17119TIP3    H172772   2.607   6.460  16.242  1.8339 -1.8781  0.5540
17119TIP3    H272773   2.503   6.378  16.315 -0.2360 -0.0548 -0.2444
17120TIP3   OH272774   3.732   1.248  16.467  0.5890  0.2351 -0.1113
17120TIP3    H172775   3.792   1.188  16.422  1.2178  1.6697 -1.2919
17120TIP3    H272776   3.703   1.308  16.399 -0.9954  0.5323  0.7764
17121TIP3   OH272777   5.692   5.053   4.132 -0.2436 -0.8362  0.4372
17121TIP3    H172778   5.781   5.084   4.149  1.4195 -4.9391  0.4573
17121TIP3    H272779   5.696   4.958   4.148 -3.9644 -1.6633 -2.1175
17122TIP3   OH272780   6.028   2.258   3.230 -0.3461 -0.1749  0.8579
17122TIP3    H172781   6.021   2.170   3.268 -0.7588 -1.0567 -1.1247
17122TIP3    H272782   6.119   2.284   3.245  0.4478 -1.9550 -0.5310
17123TIP3   OH272783   6.629   1.861   2.731 -0.2319 -0.3274 -0.0546
17123TIP3    H172784   6.600   1.774   2.760 -0.4930 -0.5629 -0.9652
17123TIP3    H272785   6.575   1.922   2.780 -1.2366 -0.7304 -0.6161
17124TIP3   OH272786   2.362   6.322   3.456 -0.1456  0.3262 -0.9722
17124TIP3    H172787   2.379   6.285   3.369 -0.3885 -1.8257 -0.1762
17124TIP3    H272788   2.449   6.345   3.490  0.2128 -0.9725 -0.9380
17125TIP3   OH272789   6.181   1.178  13.324 -0.2798  0.1009  0.5650
17125TIP3    H172790   6.228   1.236  13.264 -1.7045  0.8743  0.1753
17125TIP3    H272791   6.251   1.131  13.370  0.8647  0.3708 -0.8196
17126TIP3   OH272792   4.016   3.425   4.098 -0.2040  0.4076 -0.6986
17126TIP3    H172793   4.093   3.373   4.075 -0.4616 -0.2899 -0.0204
17126TIP3    H272794   3.943   3.363   4.098 -0.3758  0.5477  0.9981
17127TIP3   OH272795   1.249   2.264   2.890 -0.4171 -0.4661 -0.2434
17127TIP3    H172796   1.326   2.283   2.945  0.3518 -0.3067 -1.3480
17127TIP3    H272797   1.249   2.168   2.883 -0.0134 -0.4369 -0.6638
17128TIP3   OH272798   4.103   3.171  13.244 -0.3554  0.5608  0.4896
17128TIP3    H172799   4.158   3.097  13.270 -0.6221 -0.7147 -2.1605
17128TIP3    H272800   4.157   3.221  13.182 -1.3952  0.4965 -0.5118
17129TIP3   OH272801   5.662   6.163  10.351 -0.7906  0.2624  0.8708
17129TIP3    H172802   5.733   6.162  10.286 -0.3672  2.0211  1.2619
17129TIP3    H272803   5.619   6.078  10.340  0.4658 -0.2597 -0.3783
17130TIP3   OH272804   1.928   4.429   2.518  0.4110 -0.7315  0.0707
17130TIP3    H172805   1.961   4.477   2.594 -0.3092 -1.2682  0.7245
17130TIP3    H272806   1.995   4.363   2.500  0.2992 -0.9877  0.6002
17131TIP3   OH272807   6.578   4.112  15.967  0.3067 -0.5173 -0.3834
17131TIP3    H172808   6.518   4.165  16.019  0.8715 -0.7241  0.5063
17131TIP3    H272809   6.576   4.026  16.009 -0.2247 -1.0664 -1.5167
17132TIP3   OH272810   0.949   4.764  11.839  0.5296 -0.2043  0.2386
17132TIP3    H172811   1.020   4.700  11.843 -1.0912 -2.0659  0.6319
17132TIP3    H272812   0.869   4.712  11.845 -0.8883  1.8326  0.0336
17133TIP3   OH272813   4.381   6.573   0.200  0.1616 -1.0731 -0.4070
17133TIP3    H172814   4.337   6.517   0.136 -0.6444  0.8865 -1.6803
17133TIP3    H272815   4.437   6.631   0.147 -2.2992  2.2056  0.2521
17134TIP3   OH272816   6.189   0.902  15.770 -0.6626 -0.2355  0.4343
17134TIP3    H172817   6.268   0.935  15.813 -0.1750  0.7073 -1.1072
17134TIP3    H272818   6.212   0.812  15.745 -1.0380 -0.8823  2.2728
17135TIP3   OH272819   1.259   3.238   0.138 -0.3222 -0.4611 -0.5515
17135TIP3    H172820   1.334   3.273   0.185 -0.2003 -0.7534 -0.5287
17135TIP3    H272821   1.183   3.277   0.182 -0.1951 -0.4214 -0.3675
17136TIP3   OH272822   4.215   5.510  16.368  0.2739 -0.1132  0.2256
17136TIP3    H172823   4.257   5.521  16.454  1.2104  0.6717 -0.3144
17136TIP3    H272824   4.134   5.462  16.387  0.9901 -0.8972  1.4077
17137TIP3   OH272825   5.375   1.507   5.851  0.6548 -0.1151 -0.0969
17137TIP3    H172826   5.369   1.445   5.778  0.8897  0.0355 -0.2457
17137TIP3    H272827   5.380   1.593   5.809 -0.5794  0.0834  0.1287
17138TIP3   OH272828   0.882   0.198   3.832 -0.0729 -0.2198 -0.3780
17138TIP3    H172829   0.963   0.162   3.869  0.0821 -1.3260 -1.7083
17138TIP3    H272830   0.896   0.197   3.737 -0.7053  1.9099 -0.5426
17139TIP3   OH272831   5.236   4.798   0.711  0.3051 -0.6309 -0.1160
17139TIP3    H172832   5.156   4.746   0.718  0.6248 -1.0215  0.8912
17139TIP3    H272833   5.261   4.815   0.802  1.0877 -0.0820 -0.4225
17140TIP3   OH272834   0.246   3.234  11.676 -0.1587  0.0588  0.6288
17140TIP3    H172835   0.295   3.291  11.735 -0.6973 -1.2148  2.3621
17140TIP3    H272836   0.210   3.165  11.732 -0.5161 -1.3360 -1.2161
17141TIP3   OH272837   2.848   2.967  14.216  0.3343  0.8215 -0.1097
17141TIP3    H172838   2.820   2.926  14.134  1.3834 -1.8673  0.8051
17141TIP3    H272839   2.796   2.923  14.284  1.5759  0.9173  0.9294
17142TIP3   OH272840   3.410   6.465  14.115  0.3002 -0.7308  0.2337
17142TIP3    H172841   3.490   6.502  14.078  1.2375 -1.8625  1.0612
17142TIP3    H272842   3.404   6.378  14.076 -0.1765 -0.8893  0.6536
17143TIP3   OH272843   1.322   3.040  10.811 -0.6430  0.4280 -0.1811
17143TIP3    H172844   1.355   2.982  10.743 -0.0553 -0.0994  0.5291
17143TIP3    H272845   1.394   3.044  10.875 -1.1351  1.0016  0.3437
17144TIP3   OH272846   4.671   2.995  15.554  0.2866 -0.5793  0.3383
17144TIP3    H172847   4.736   2.967  15.490  0.4118  0.5697 -0.0687
17144TIP3    H272848   4.722   3.012  15.634  0.0510 -2.5956  0.9699
17145TIP3   OH272849   5.281   1.841   3.698 -0.4992  0.5211  0.2162
17145TIP3    H172850   5.278   1.918   3.754  0.5990  0.4994  0.3263
17145TIP3    H272851   5.263   1.875   3.610 -0.0585  0.9091  0.2699
17146TIP3   OH272852   1.661   6.167   6.759 -0.4440 -0.4193  0.2513
17146TIP3    H172853   1.619   6.186   6.675  0.4287 -1.4799 -0.4544
17146TIP3    H272854   1.741   6.219   6.759 -0.0969 -0.9412  0.1076
17147TIP3   OH272855   3.799   0.706  11.365  0.3524  0.0098 -0.6403
17147TIP3    H172856   3.879   0.733  11.411  0.3042 -1.6407  0.4762
17147TIP3    H272857   3.810   0.741  11.276  2.8226 -1.0580 -0.8351
17148TIP3   OH272858   0.548   0.371   5.264 -0.3304 -0.6449  0.2651
17148TIP3    H172859   0.635   0.410   5.251 -0.6079 -0.3336 -0.7955
17148TIP3    H272860   0.536   0.316   5.186 -1.5739  0.2690 -0.2159
17149TIP3   OH272861   2.957   3.615  10.396  0.2557  0.5601 -0.6564
17149TIP3    H172862   2.940   3.708  10.381  1.0855  1.0874  1.3372
17149TIP3    H272863   3.006   3.588  10.319 -3.2814  0.6883 -3.1990
17150TIP3   OH272864   4.298   0.875  11.337 -0.0062 -0.2958  0.3719
17150TIP3    H172865   4.210   0.865  11.299  0.1300  0.2728 -0.0971
17150TIP3    H272866   4.288   0.843  11.427 -1.4420  2.4526  1.2982
17151TIP3   OH272867   4.442   2.370  15.210 -0.1218  0.6949 -0.4375
17151TIP3    H172868   4.374   2.304  15.196 -0.0743  0.7059 -0.7272
17151TIP3    H272869   4.425   2.437  15.145 -1.6563  2.2070  1.4159
17152TIP3   OH272870   2.816   6.162  11.017  0.2202 -0.3816  0.2225
17152TIP3    H172871   2.882   6.092  11.012 -0.3820 -0.9357 -0.1294
17152TIP3    H272872   2.785   6.172  10.927 -0.4090 -0.3524  0.4370
17153TIP3   OH272873   0.188   4.019   6.237  0.4401  0.1790  0.1686
17153TIP3    H172874   0.100   3.980   6.246  1.3564 -1.5609  2.7809
17153TIP3    H272875   0.210   4.048   6.325  1.9209  2.0554 -0.7556
17154TIP3   OH272876   4.790   1.038   2.081  0.3123 -0.3199 -0.4436
17154TIP3    H172877   4.864   1.013   2.025 -0.4817  0.0633 -1.7168
17154TIP3    H272878   4.717   1.049   2.020 -0.4459  0.7262  0.6020
17155TIP3   OH272879   6.327   3.988  16.349 -0.3436  0.0200  0.3138
17155TIP3    H172880   6.347   3.948  16.434 -3.5848 -2.3162  0.1655
17155TIP3    H272881   6.234   4.008  16.353  0.4239  4.9644 -0.8853
17156TIP3   OH272882   1.901   0.956   4.605  0.2022 -0.3975  0.0721
17156TIP3    H172883   1.923   1.011   4.680 -0.9689 -0.2653  0.3312
17156TIP3    H272884   1.871   1.018   4.538 -4.0154 -0.7751  1.3456
17157TIP3   OH272885   5.912   5.121  14.439  0.2013  0.4857  0.0589
17157TIP3    H172886   5.845   5.082  14.383  0.1490 -1.1589  1.1894
17157TIP3    H272887   5.906   5.073  14.521  1.2518  1.8461  0.9892
17158TIP3   OH272888   3.236   0.832  14.888  0.0974  0.0328 -0.6081
17158TIP3    H172889   3.324   0.851  14.857 -0.5796  2.6355 -1.1827
17158TIP3    H272890   3.247   0.757  14.947  2.3988 -0.7521 -1.9097
17159TIP3   OH272891   2.026   4.642   6.649 -0.1944 -0.0170 -0.1213
17159TIP3    H172892   2.023   4.550   6.676  1.0993 -0.3895 -1.1190
17159TIP3    H272893   2.091   4.681   6.708  0.4876 -0.1581 -0.7541
17160TIP3   OH272894   4.517   4.225   4.551  0.2298  0.5592  0.3072
17160TIP3    H172895   4.423   4.214   4.562  0.5423 -1.6336  1.2066
17160TIP3    H272896   4.531   4.320   4.557 -2.0993  1.1449 -1.8053
17161TIP3   OH272897   1.331   4.609   4.637 -0.0507  0.7216 -0.8309
17161TIP3    H172898   1.283   4.691   4.631 -0.2158  0.5955 -1.2966
17161TIP3    H272899   1.352   4.587   4.546 -1.2817 -0.4787 -0.8702
17162TIP3   OH272900   2.791   2.738   1.296 -0.0196 -0.1928 -0.6284
17162TIP3    H172901   2.810   2.822   1.337  0.6741 -0.7449  0.2370
17162TIP3    H272902   2.858   2.728   1.229 -1.2125  0.7553 -2.0388
17163TIP3   OH272903   5.436   1.055   3.623  0.1823  0.0226  0.1166
17163TIP3    H172904   5.436   1.147   3.646  0.2394  0.2393 -0.7199
17163TIP3    H272905   5.528   1.032   3.615  0.1753  0.5374 -2.0845
17164TIP3   OH272906   5.511   3.744   2.808  0.0377  0.1762 -0.2018
17164TIP3    H172907   5.451   3.671   2.789  0.8734 -0.2354 -1.4649
17164TIP3    H272908   5.468   3.794   2.877 -1.0736 -0.9093 -0.0715
17165TIP3   OH272909   4.757   6.330  15.163 -0.0619  0.2164 -0.3813
17165TIP3    H172910   4.745   6.341  15.069  0.5010  1.7246 -0.2979
17165TIP3    H272911   4.688   6.382  15.203  0.5966  0.7981  0.0268
17166TIP3   OH272912   0.964   0.426   2.223  0.3489 -0.1459  0.4387
17166TIP3    H172913   1.020   0.420   2.145  1.2583 -1.1654  1.1532
17166TIP3    H272914   0.900   0.356   2.212 -0.5166  0.7043 -0.1331
17167TIP3   OH272915   5.970   1.151   1.637  0.8178  0.0764  0.2285
17167TIP3    H172916   5.911   1.144   1.712  1.0925 -1.0448  0.3644
17167TIP3    H272917   5.980   1.245   1.623 -0.4163  0.2893  0.6557
17168TIP3   OH272918   2.636   4.978   6.102 -0.0318  0.0780  0.2572
17168TIP3    H172919   2.633   4.882   6.094  0.8947  0.0892 -0.5004
17168TIP3    H272920   2.545   5.005   6.105 -0.3224 -0.7789 -0.3553
17169TIP3   OH272921   4.946   5.170   3.313 -0.8817  0.2204 -0.1995
17169TIP3    H172922   4.929   5.078   3.295 -0.8454  0.4991 -1.7836
17169TIP3    H272923   4.965   5.209   3.227 -0.2750  1.5760  0.5088
17170TIP3   OH272924   4.109   1.377  15.248  0.1325  0.0603  0.2043
17170TIP3    H172925   4.050   1.408  15.179  0.2520  1.9570  0.8882
17170TIP3    H272926   4.167   1.451  15.265  1.7563 -1.2312  0.6153
17171TIP3   OH272927   4.020   0.952  12.859 -0.8708 -0.4977  0.3702
17171TIP3    H172928   3.959   0.890  12.900  0.2185 -3.2509 -1.9203
17171TIP3    H272929   3.985   0.966  12.771  0.5302 -0.2355 -0.1679
17172TIP3   OH272930   4.656   4.136  10.793 -0.6141  0.2745  0.0698
17172TIP3    H172931   4.587   4.108  10.732 -0.9965 -3.2263  1.9064
17172TIP3    H272932   4.612   4.142  10.878  1.0510 -0.7621  1.0495
17173TIP3   OH272933   1.760   2.313  16.076  0.0944 -0.1040  0.1314
17173TIP3    H172934   1.714   2.393  16.051 -0.8955 -0.5944  0.3070
17173TIP3    H272935   1.719   2.286  16.159 -1.3222 -2.0820 -1.1066
17174TIP3   OH272936   2.861   1.842  11.799  0.1189  0.3479  0.4196
17174TIP3    H172937   2.817   1.928  11.799  0.6674  0.7303 -2.6214
17174TIP3    H272938   2.954   1.862  11.788  0.2645 -0.6131 -0.2442
17175TIP3   OH272939   1.080   4.973  11.310 -0.3212  0.1563  0.2303
17175TIP3    H172940   1.169   4.996  11.339 -0.3648 -0.7121  1.0970
17175TIP3    H272941   1.083   4.878  11.298 -0.6111  0.3641 -1.6272
17176TIP3   OH272942   3.560   1.395   0.875  0.2053 -0.2951  0.4735
17176TIP3    H172943   3.540   1.335   0.804  1.1013  1.5839 -1.4839
17176TIP3    H272944   3.547   1.482   0.838  2.4545  0.8115  2.0067
17177TIP3   OH272945   4.269   1.909   2.243 -0.1505  0.2917  0.0417
17177TIP3    H172946   4.305   1.821   2.254  1.3859  0.9300  0.4143
17177TIP3    H272947   4.221   1.905   2.160  0.3863 -0.7401 -0.2415
17178TIP3   OH272948   3.391   2.987  12.327  0.9533 -0.1196 -0.4687
17178TIP3    H172949   3.427   3.009  12.241 -0.5586 -0.1218 -1.1453
17178TIP3    H272950   3.313   2.934  12.307  1.4669 -1.4808  0.9685
17179TIP3   OH272951   6.162   5.626   1.414 -0.1376 -0.2629  0.3439
17179TIP3    H172952   6.126   5.669   1.336  0.0354 -1.9321 -0.7305
17179TIP3    H272953   6.108   5.547   1.424 -0.6185  0.2664  2.3877
17180TIP3   OH272954   1.045   4.389  12.636  0.1236  0.0820 -0.0750
17180TIP3    H172955   1.093   4.447  12.695 -0.4527 -0.4394  0.9516
17180TIP3    H272956   0.984   4.447  12.590 -0.1789  0.3588  0.6537
17181TIP3   OH272957   5.817   4.447  11.154 -0.2820  0.1268 -0.0858
17181TIP3    H172958   5.774   4.531  11.143  0.1753  0.3514 -0.1620
17181TIP3    H272959   5.748   4.389  11.188 -0.4552  0.6646  0.4948
17182TIP3   OH272960   5.024   3.255   0.408 -0.5547  0.2277 -0.3281
17182TIP3    H172961   5.003   3.242   0.315 -3.1597 -1.4004  0.3864
17182TIP3    H272962   5.101   3.311   0.407  1.2520 -1.9968 -3.5355
17183TIP3   OH272963   5.335   6.249  15.683 -0.3862  0.6015 -0.3001
17183TIP3    H172964   5.337   6.184  15.752 -0.0683  0.8621 -0.0617
17183TIP3    H272965   5.242   6.269  15.670 -0.4128  1.0073  0.4813
17184TIP3   OH272966   6.614   0.960   3.139 -0.2448 -0.2753 -0.6972
17184TIP3    H172967   6.704   0.945   3.109  0.7530  1.5370  1.1255
17184TIP3    H272968   6.564   0.968   3.058  1.3761 -0.5534 -1.7873
17185TIP3   OH272969   1.259   2.472   3.785  0.2498  0.2692 -0.0167
17185TIP3    H172970   1.311   2.394   3.803  2.2455  1.6381  0.5520
17185TIP3    H272971   1.236   2.465   3.693  1.9691 -0.1335 -0.4575
17186TIP3   OH272972   3.146   5.767   2.242 -0.1330  0.5833 -0.3445
17186TIP3    H172973   3.054   5.777   2.216 -0.3943  0.6711  0.5759
17186TIP3    H272974   3.168   5.677   2.220  0.1901  1.1134 -2.4418
17187TIP3   OH272975   0.927   6.017   2.961 -0.2338 -0.4327  0.5288
17187TIP3    H172976   0.859   5.953   2.982 -2.2790  0.4423 -2.6639
17187TIP3    H272977   0.912   6.089   3.023 -2.5749 -0.1139 -0.2926
17188TIP3   OH272978   0.390   3.204  16.364 -0.5695 -0.0852  0.1090
17188TIP3    H172979   0.446   3.154  16.305 -0.4058 -0.1209  0.2950
17188TIP3    H272980   0.433   3.289  16.371  1.6865 -1.3050  3.3669
17189TIP3   OH272981   4.893   2.820  15.414 -0.4328 -0.4131 -1.2546
17189TIP3    H172982   4.829   2.750  15.412 -1.6696  0.5403  1.1360
17189TIP3    H272983   4.870   2.876  15.340 -2.4053 -0.1108 -0.4762
17190TIP3   OH272984   4.438   5.292   5.828 -0.1841 -0.0825 -0.7350
17190TIP3    H172985   4.393   5.363   5.782 -0.5512  0.2472  0.1115
17190TIP3    H272986   4.471   5.333   5.908  0.3586 -0.6665 -0.6576
17191TIP3   OH272987   3.161   1.780  16.633  0.4465 -0.4416 -0.3489
17191TIP3    H172988   3.257   1.783  16.641  0.5449 -0.6438 -1.3857
17191TIP3    H272989   3.140   1.844  16.566 -0.4792  2.1078  2.1568
17192TIP3   OH272990   0.300   4.128   5.043 -0.8301  0.0758  0.1702
17192TIP3    H172991   0.264   4.133   4.954 -0.4778  1.7459  0.0935
17192TIP3    H272992   0.321   4.035   5.054 -2.5077 -0.4710 -0.8164
17193TIP3   OH272993   3.166   2.314  13.937 -0.4743 -0.2446 -0.4473
17193TIP3    H172994   3.157   2.392  13.992 -0.6492  0.1645 -1.0453
17193TIP3    H272995   3.108   2.330  13.862 -2.6364 -2.1225  0.6979
17194TIP3   OH272996   1.072   0.457  13.340  0.1704  0.2604 -0.3395
17194TIP3    H172997   1.128   0.475  13.415 -0.0592 -2.0640  0.4936
17194TIP3    H272998   1.056   0.542  13.300  3.2421  1.1528  0.1031
17195TIP3   OH272999   2.207   5.654   3.444 -0.2958  0.0560 -0.1943
17195TIP3    H173000   2.244   5.571   3.476  2.2894  0.7603 -1.0762
17195TIP3    H273001   2.218   5.715   3.517 -0.9859 -0.0544  0.0039
17196TIP3   OH273002   4.212   0.090   4.276  0.2813  0.0293 -0.7069
17196TIP3    H173003   4.232   0.014   4.221  1.7910 -0.8838  0.9711
17196TIP3    H273004   4.237   0.062   4.364 -1.8183  1.4888  0.4462
17197TIP3   OH273005   2.908   1.861  16.715  0.3893 -0.0889  0.5624
17197TIP3    H173006   2.989   1.811  16.718  0.8571  0.6128 -0.1220
17197TIP3    H273007   2.843   1.799  16.682  1.2544  0.0702 -1.6610
17198TIP3   OH273008   2.861   1.665   5.876  0.4038  0.4703 -0.4558
17198TIP3    H173009   2.819   1.735   5.826 -0.4702  1.3269  1.3731
17198TIP3    H273010   2.937   1.707   5.918  0.6688 -0.0240 -0.4340
17199TIP3   OH273011   5.060   5.576   3.525 -0.3294  0.3918  0.0989
17199TIP3    H173012   5.101   5.642   3.580  0.7565 -1.0955  1.1566
17199TIP3    H273013   5.132   5.542   3.471 -0.7252 -0.3461  0.0222
17200TIP3   OH273014   3.868   6.359   4.799  0.3082  0.0198 -0.3519
17200TIP3    H173015   3.887   6.428   4.863 -2.4275 -0.2170  0.8751
17200TIP3    H273016   3.911   6.281   4.833 -1.4298 -0.2030  1.5707
17201TIP3   OH273017   1.983   4.905   0.921  0.2027 -0.0401 -0.0457
17201TIP3    H173018   2.069   4.923   0.958  0.9745  1.3851 -2.3238
17201TIP3    H273019   1.992   4.925   0.828 -2.4679 -0.3633 -0.4609
17202TIP3   OH273020   4.773   5.343  14.172 -0.1339 -0.6514  0.5984
17202TIP3    H173021   4.771   5.407  14.243  0.0154  1.4299 -1.1642
17202TIP3    H273022   4.773   5.396  14.092 -1.3607 -2.9043 -1.0026
17203TIP3   OH273023   3.244   0.660  14.235 -0.1385 -0.1877 -0.5354
17203TIP3    H173024   3.232   0.752  14.214 -0.4786  0.0722  0.7332
17203TIP3    H273025   3.338   0.651  14.253  0.5808 -0.8412 -3.9745
17204TIP3   OH273026   3.581   1.381   5.145 -0.1433 -0.0510  0.3401
17204TIP3    H173027   3.514   1.387   5.077 -1.3172  0.1121  1.4464
17204TIP3    H273028   3.532   1.357   5.224  0.9410  1.1282  1.4318
17205TIP3   OH273029   2.636   4.076  15.831  0.5984  0.1177  0.0148
17205TIP3    H173030   2.625   4.070  15.925  0.3307 -0.5327 -0.0518
17205TIP3    H273031   2.731   4.076  15.818  0.6682  1.6266  0.3541
17206TIP3   OH273032   1.441   2.587  15.335  0.2536  0.7329 -0.6544
17206TIP3    H173033   1.439   2.547  15.423  0.0481 -0.1997 -1.0676
17206TIP3    H273034   1.497   2.529  15.284 -0.3311  0.7845 -1.3679
17207TIP3   OH273035   3.657   2.042  12.307 -0.3438  0.6763 -0.3616
17207TIP3    H173036   3.635   1.988  12.383 -0.6153  1.2664 -0.0131
17207TIP3    H273037   3.689   2.124  12.345  2.7167 -0.1627 -0.8173
17208TIP3   OH273038   2.152   5.896  12.643 -0.2708  0.3061 -0.3876
17208TIP3    H173039   2.077   5.848  12.677  1.4732 -2.5244 -0.1953
17208TIP3    H273040   2.134   5.987  12.665 -1.4913 -0.7510  3.9411
17209TIP3   OH273041   0.977   5.334   0.755 -0.2063  0.0340  0.0817
17209TIP3    H173042   0.886   5.345   0.729 -0.4971 -2.2024 -0.0191
17209TIP3    H273043   1.016   5.283   0.684  0.9694  0.4209  0.4272
17210TIP3   OH273044   0.408   2.131  13.534  0.2611  0.0590 -0.1771
17210TIP3    H173045   0.329   2.086  13.564  0.2229 -1.2996 -2.1367
17210TIP3    H273046   0.475   2.062  13.531  2.2153  1.5024  3.3516
17211TIP3   OH273047   1.048   6.334  13.630  0.3239 -0.1753  0.9488
17211TIP3    H173048   1.076   6.418  13.595  0.4135 -1.3608 -2.1121
17211TIP3    H273049   1.129   6.287  13.650  0.4904 -1.1055 -1.5730
17212TIP3   OH273050   4.209   0.320  15.055 -0.4429 -0.0867 -0.6855
17212TIP3    H173051   4.155   0.247  15.086 -1.2279  0.4369 -0.7909
17212TIP3    H273052   4.146   0.389  15.034  0.3536  1.1454  0.7596
17213TIP3   OH273053   2.511   5.687  12.392  0.5438 -0.7034 -0.1693
17213TIP3    H173054   2.471   5.606  12.362 -1.1914  0.6164 -1.6286
17213TIP3    H273055   2.601   5.662  12.416 -0.2675 -3.2288  0.5561
17214TIP3   OH273056   4.041   0.423  15.666 -0.2489 -0.0425 -0.7670
17214TIP3    H173057   4.039   0.518  15.674 -2.7918  0.1145 -2.0513
17214TIP3    H273058   4.096   0.406  15.589  0.7996  0.3011 -0.1143
17215TIP3   OH273059   5.713   4.462   1.399 -0.2624  0.1432  0.0773
17215TIP3    H173060   5.654   4.506   1.337  1.0165 -0.1089 -1.3705
17215TIP3    H273061   5.744   4.385   1.351  1.7913  0.6574  0.5238
17216TIP3   OH273062   6.344   2.203   3.586 -0.1138 -0.2166 -0.4651
17216TIP3    H173063   6.429   2.217   3.543 -0.7100  1.0230 -1.2999
17216TIP3    H273064   6.340   2.108   3.600  1.6184 -0.2540  0.0717
17217TIP3   OH273065   0.238   5.723  15.173 -0.7070  0.3962  0.3072
17217TIP3    H173066   0.306   5.789  15.191 -0.0483 -0.3142  0.4846
17217TIP3    H273067   0.233   5.719  15.078  0.0542 -0.0976  0.2837
17218TIP3   OH273068   5.092   2.412  12.338 -0.3111  0.2841  0.0291
17218TIP3    H173069   5.144   2.470  12.393 -0.0646  0.9601 -0.8959
17218TIP3    H273070   5.027   2.469  12.298 -0.6778 -0.2548 -0.1511
17219TIP3   OH273071   1.945   0.366  14.496  0.2147 -0.4885  0.2654
17219TIP3    H173072   1.890   0.332  14.567  2.3940  0.1670  2.3859
17219TIP3    H273073   1.999   0.292  14.469 -0.1110 -0.5503 -0.2305
17220TIP3   OH273074   6.397   1.542   3.385 -0.1407  0.0553  0.7283
17220TIP3    H173075   6.404   1.524   3.291  2.6243  0.0406  0.8405
17220TIP3    H273076   6.314   1.503   3.411 -0.9156 -0.0592 -1.6774
17221TIP3   OH273077   6.283   2.291  14.088  0.0127 -0.7599 -0.0158
17221TIP3    H173078   6.346   2.260  14.153  0.8955 -1.5580 -1.2042
17221TIP3    H273079   6.218   2.221  14.081  0.6284 -1.2701 -0.8876
17222TIP3   OH273080   2.476   2.440   4.020  0.6980  0.0643  0.4378
17222TIP3    H173081   2.462   2.418   3.928 -0.1497  0.9112  0.3548
17222TIP3    H273082   2.426   2.520   4.034 -1.0354 -1.2185  2.2095
17223TIP3   OH273083   4.444   4.900  11.786 -0.3101 -0.4105  0.3306
17223TIP3    H173084   4.388   4.851  11.726  1.8329  0.9676 -3.1026
17223TIP3    H273085   4.392   4.977  11.808 -0.4024  0.1641 -1.6498
17224TIP3   OH273086   1.068   1.200  15.083  0.0130  0.3405  0.5438
17224TIP3    H173087   1.101   1.257  15.153 -1.6958 -0.2371  1.9018
17224TIP3    H273088   1.072   1.112  15.120  1.8485 -0.3966 -1.2305
17225TIP3   OH273089   5.916   3.401  13.542  0.2582  0.2951 -0.2113
17225TIP3    H173090   5.947   3.485  13.507 -2.5650  3.2465  3.4386
17225TIP3    H273091   5.825   3.395  13.511  0.0700 -0.8047  0.5106
17226TIP3   OH273092   0.248   3.932  15.565 -0.0470  0.0019  0.1579
17226TIP3    H173093   0.294   4.012  15.592 -0.5279  0.8678 -1.4843
17226TIP3    H273094   0.174   3.963  15.513 -0.9247 -1.4883  0.4695
17227TIP3   OH273095   0.683   5.951  11.842 -0.0996  0.1327  0.1872
17227TIP3    H173096   0.706   5.960  11.934  0.1481 -2.7627  0.4908
17227TIP3    H273097   0.594   5.914  11.843 -0.6036  1.2337 -0.7917
17228TIP3   OH273098   3.400   3.865   1.383  0.0906 -0.1880 -0.4263
17228TIP3    H173099   3.316   3.832   1.350  0.0783  0.2617 -0.8576
17228TIP3    H273100   3.382   3.957   1.403  0.3903 -0.1817 -0.1919
17229TIP3   OH273101   2.623   1.907  15.830 -0.3477 -0.1922  0.4443
17229TIP3    H173102   2.598   1.852  15.756  0.6599 -1.5218  1.0519
17229TIP3    H273103   2.540   1.943  15.862 -1.0841 -1.5070  0.1229
17230TIP3   OH273104   5.611   2.210   3.615  0.1472 -0.3172  0.5896
17230TIP3    H173105   5.700   2.239   3.635 -0.2516  0.3238  1.5195
17230TIP3    H273106   5.557   2.250   3.684 -0.2499 -4.6611  3.1734
17231TIP3   OH273107   6.009   2.336  12.874 -0.4320  0.1305  0.1287
17231TIP3    H173108   5.954   2.356  12.950 -0.4545  1.6440 -0.2614
17231TIP3    H273109   6.080   2.400  12.879  1.3861 -1.8119  0.6646
17232TIP3   OH273110   6.614   4.739  16.600 -0.4595  0.8205 -0.6054
17232TIP3    H173111   6.692   4.712  16.649 -1.5337  1.1392  1.3554
17232TIP3    H273112   6.590   4.663  16.548  1.2179  0.7657 -1.3626
17233TIP3   OH273113   1.461   6.368  13.179  0.1455 -0.4406 -0.1109
17233TIP3    H173114   1.514   6.320  13.116  0.2831 -0.3314 -0.0791
17233TIP3    H273115   1.437   6.303  13.245  0.3193 -0.4691 -0.0754
17234TIP3   OH273116   2.663   6.513  16.750 -1.0881 -0.0787  0.6073
17234TIP3    H173117   2.709   6.431  16.768 -1.2582 -0.2139  0.4407
17234TIP3    H273118   2.693   6.573  16.818 -1.7972 -0.6058  1.4225
17235TIP3   OH273119   0.950   3.677   3.037 -0.3076  0.5265 -0.3438
17235TIP3    H173120   1.022   3.642   3.089 -1.7751 -1.9186  0.1937
17235TIP3    H273121   0.923   3.756   3.085  0.8800  0.5084  0.3934
17236TIP3   OH273122   0.309   6.058   1.818 -0.2004 -0.5253 -0.1546
17236TIP3    H173123   0.238   6.064   1.882 -0.6424  1.3291 -0.7796
17236TIP3    H273124   0.355   5.977   1.842 -2.0445 -1.3826  0.7336
17237TIP3   OH273125   5.192   4.818   6.357 -0.6527 -0.7569 -0.2922
17237TIP3    H173126   5.211   4.873   6.432 -1.4174 -0.4314 -0.3272
17237TIP3    H273127   5.277   4.783   6.330 -0.1670  0.3071 -0.1937
17238TIP3   OH273128   4.662   4.248  14.441 -0.0832  0.1069  0.4292
17238TIP3    H173129   4.747   4.209  14.460  1.1370  2.3819  0.0252
17238TIP3    H273130   4.671   4.340  14.467 -1.9155  0.7797 -1.0658
17239TIP3   OH273131   3.926   5.757  11.154 -0.6220 -0.2685  0.1378
17239TIP3    H173132   3.997   5.695  11.145 -0.3415 -0.2713  1.9586
17239TIP3    H273133   3.895   5.772  11.064  2.0225  0.1976 -0.7882
17240TIP3   OH273134   6.510   1.553  15.935  0.7511  0.0916 -0.3237
17240TIP3    H173135   6.585   1.500  15.963  0.0130 -1.3422 -1.0133
17240TIP3    H273136   6.517   1.557  15.840  0.4430  0.7083 -0.3269
17241TIP3   OH273137   1.240   0.018  12.843  0.6355  0.7232 -0.6268
17241TIP3    H173138   1.219   0.098  12.891  0.7967  0.1255  0.4481
17241TIP3    H273139   1.227  -0.053  12.906  1.4465 -0.0260 -1.2780
17242TIP3   OH273140   3.470   2.956   3.711  0.2750 -0.7249 -0.3561
17242TIP3    H173141   3.413   3.019   3.757  2.6248  0.3811  1.2323
17242TIP3    H273142   3.452   2.872   3.754 -1.7172 -0.9075 -1.4090
17243TIP3   OH273143   4.460   1.517   2.815  0.2688  0.4727  0.2523
17243TIP3    H173144   4.454   1.597   2.867 -2.2965  1.3028 -1.1200
17243TIP3    H273145   4.382   1.467   2.837  1.3344 -1.2383  0.3547
17244TIP3   OH273146   4.300   0.276   4.098 -0.1132 -0.2246  0.3908
17244TIP3    H173147   4.258   0.198   4.133 -0.0570 -0.6306 -0.4426
17244TIP3    H273148   4.354   0.245   4.026 -2.3320  0.8884 -1.9040
17245TIP3   OH273149   0.845   3.333  14.253  0.3885  0.0781  0.6960
17245TIP3    H173150   0.891   3.259  14.291  0.0676  0.0312  1.0022
17245TIP3    H273151   0.823   3.305  14.164 -0.1994 -0.4064  0.9854
17246TIP3   OH273152   4.337   0.667  11.855 -0.5806 -0.3171 -0.4269
17246TIP3    H173153   4.320   0.704  11.769 -1.2907  0.1957 -0.0777
17246TIP3    H273154   4.250   0.645  11.889 -0.3055 -0.5172  0.1615
17247TIP3   OH273155   6.567   5.295  14.534  0.1174 -0.2306  0.6833
17247TIP3    H173156   6.584   5.321  14.624  0.9715 -0.6015  0.6409
17247TIP3    H273157   6.486   5.339  14.511  0.8329  1.3455  1.0318
17248TIP3   OH273158   0.592   2.860  13.502  0.3119  0.3678 -0.3959
17248TIP3    H173159   0.524   2.924  13.481  0.1615  0.1137 -0.6805
17248TIP3    H273160   0.555   2.809  13.574  0.6618  0.9676  0.2297
17249TIP3   OH273161   3.789   5.783   5.653  0.4979  0.9566  0.4332
17249TIP3    H173162   3.858   5.845   5.630  1.8772 -0.8396 -0.5518
17249TIP3    H273163   3.792   5.717   5.584  0.1698 -1.0276  2.2074
17250TIP3   OH273164   6.750   2.853  15.749 -0.2305 -0.0337  0.2962
17250TIP3    H173165   6.834   2.857  15.794 -0.8363 -0.6733  1.5574
17250TIP3    H273166   6.719   2.764  15.764 -0.5699 -0.2031 -1.2489
17251TIP3   OH273167   1.837   1.167  11.286  0.4712 -0.2880 -0.8767
17251TIP3    H173168   1.828   1.262  11.290  0.2030 -0.3299 -0.2285
17251TIP3    H273169   1.753   1.137  11.252  0.6935 -0.2701 -1.4398
17252TIP3   OH273170   2.443   2.092   3.190  0.3274 -0.1516  0.1308
17252TIP3    H173171   2.532   2.062   3.211  0.6682 -1.1033 -2.4140
17252TIP3    H273172   2.443   2.103   3.095 -1.7726  1.6151  0.2625
17253TIP3   OH273173   2.201   2.661  11.681 -0.3472 -0.7418 -0.1225
17253TIP3    H173174   2.243   2.610  11.751  1.0916  0.1336 -0.3132
17253TIP3    H273175   2.119   2.691  11.720 -0.0452 -1.1082  0.8397
17254TIP3   OH273176   5.072   4.180   4.574  0.0102  0.2203 -0.5786
17254TIP3    H173177   4.980   4.155   4.572  0.5523 -1.9430 -0.9801
17254TIP3    H273178   5.119   4.102   4.544  2.0224  1.0435  0.2430
17255TIP3   OH273179   4.995   5.759  16.583  0.6968  0.3811  0.1633
17255TIP3    H173180   4.902   5.750  16.562  0.4669  2.1155  0.3327
17255TIP3    H273181   5.039   5.699  16.523 -0.5493 -0.9051  0.4678
17256TIP3   OH273182   4.316   0.185   1.886  0.2480  0.4862  0.4642
17256TIP3    H173183   4.280   0.215   1.803 -0.6077 -0.0580  0.6232
17256TIP3    H273184   4.240   0.179   1.945  0.6756 -0.1363  0.9738
17257TIP3   OH273185   0.974   0.965  15.201 -0.2486 -0.0054 -0.2829
17257TIP3    H173186   1.040   0.933  15.263 -0.2679 -1.4299 -0.9542
17257TIP3    H273187   0.892   0.960  15.250 -0.3874 -1.8910 -0.6116
17258TIP3   OH273188   2.629   3.609   2.421 -0.7735  0.1512 -0.4745
17258TIP3    H173189   2.659   3.581   2.335 -1.3780 -0.6803 -0.4281
17258TIP3    H273190   2.706   3.599   2.478 -0.1786  1.3565 -1.0336
17259TIP3   OH273191   3.890   6.518   3.989  0.7229 -0.1597 -0.2845
17259TIP3    H173192   3.841   6.570   4.052  1.6003 -0.6603  0.8434
17259TIP3    H273193   3.830   6.447   3.965  0.3095  0.1477 -0.1674
17260TIP3   OH273194   6.278   1.258  15.432 -0.4029  0.1088 -0.0833
17260TIP3    H173195   6.236   1.274  15.348 -0.2297 -0.5139 -0.2918
17260TIP3    H273196   6.253   1.333  15.486  0.5306  1.1636 -1.0788
17261TIP3   OH273197   4.697   0.545   4.794  0.0005  0.0466  0.1561
17261TIP3    H173198   4.695   0.450   4.796 -1.1291  0.0610  0.2032
17261TIP3    H273199   4.748   0.570   4.871  0.8881 -0.5214 -0.2301
17262TIP3   OH273200   2.964   4.490   2.650 -0.3105 -0.1100 -0.5387
17262TIP3    H173201   2.951   4.406   2.604  0.6074 -0.1452 -0.7590
17262TIP3    H273202   2.970   4.554   2.580  1.2915 -0.1891 -0.4982
17263TIP3   OH273203   0.599   2.538  14.960  0.0708 -0.0733 -0.5322
17263TIP3    H173204   0.533   2.521  14.894 -0.6219  0.2409  0.0602
17263TIP3    H273205   0.669   2.585  14.914 -0.8428  1.0190 -0.8523
17264TIP3   OH273206   2.895   0.067  16.835  0.2876  0.1187 -0.0385
17264TIP3    H173207   2.910   0.157  16.866  1.6067 -0.0493 -0.1286
17264TIP3    H273208   2.933   0.066  16.747  0.1668 -0.4909 -0.0840
17265TIP3   OH273209   2.078   6.288   3.077 -0.0699 -0.5379  0.2023
17265TIP3    H173210   2.111   6.307   2.990  0.1320 -1.5373  0.0390
17265TIP3    H273211   2.021   6.212   3.065 -1.5113  0.4240  0.6651
17266TIP3   OH273212   6.243   5.265  11.580 -0.2655  0.1760 -0.5850
17266TIP3    H173213   6.242   5.341  11.639 -0.8538  0.7144 -1.2587
17266TIP3    H273214   6.306   5.205  11.619 -1.8637 -0.2427  1.5512
17267TIP3   OH273215   2.312   3.334   0.251  0.1034  0.1911 -0.0615
17267TIP3    H173216   2.237   3.383   0.219  0.4974  1.8482  1.3815
17267TIP3    H273217   2.343   3.384   0.326  0.9260 -1.9636  1.1398
17268TIP3   OH273218   0.232   0.681   4.470  0.0650 -0.4527  0.2030
17268TIP3    H173219   0.220   0.745   4.399 -1.9007 -1.5400 -0.5162
17268TIP3    H273220   0.144   0.656   4.495  0.7469 -0.8211  2.4332
17269TIP3   OH273221   3.606   0.798   2.343 -0.1742  1.1241 -0.3289
17269TIP3    H173222   3.621   0.892   2.349  0.4723  1.0168 -0.2486
17269TIP3    H273223   3.658   0.770   2.268  3.1164  0.1347  2.0974
17270TIP3   OH273224   6.734   1.494  11.645  0.1363 -0.3311  0.4789
17270TIP3    H173225   6.724   1.558  11.716 -1.8122 -1.0470  0.9368
17270TIP3    H273226   6.644   1.479  11.615  0.6669 -2.0121 -0.3609
17271TIP3   OH273227   1.475   2.521   3.392 -0.0403 -0.0363 -0.5633
17271TIP3    H173228   1.525   2.464   3.451 -0.2439 -0.1787 -0.5311
17271TIP3    H273229   1.407   2.465   3.356 -0.0138  0.0921 -0.8155
17272TIP3   OH273230   3.482   6.516   3.346  0.1266 -0.3798  0.1749
17272TIP3    H173231   3.510   6.604   3.370  1.6974 -0.3240 -1.5654
17272TIP3    H273232   3.409   6.530   3.286 -0.0963 -0.2819  0.4718
17273TIP3   OH273233   0.650   2.072   1.068 -1.0104 -0.3480 -0.6174
17273TIP3    H173234   0.691   2.094   0.984  2.1446 -2.3147  0.2625
17273TIP3    H273235   0.599   1.993   1.049 -0.1118 -0.9288 -0.6888
17274TIP3   OH273236   2.859   5.200   2.405 -0.5254  0.3422  0.4342
17274TIP3    H173237   2.872   5.108   2.382 -0.4469 -0.2426  2.6380
17274TIP3    H273238   2.865   5.246   2.321 -1.2512 -1.7008 -0.8228
17275TIP3   OH273239   5.331   0.355  15.447 -0.3336  0.3426  0.2068
17275TIP3    H173240   5.242   0.345  15.482 -0.7898 -0.7721 -1.1970
17275TIP3    H273241   5.372   0.270  15.460  0.4883  0.8061  0.7024
17276TIP3   OH273242   3.995   3.269  13.489  0.2054  0.5049  0.0828
17276TIP3    H173243   3.955   3.194  13.534 -0.4956  1.4048  1.0012
17276TIP3    H273244   4.005   3.239  13.398 -0.2232 -0.6373  0.3834
17277TIP3   OH273245   1.043   5.703   2.061 -0.0082  0.0901 -0.2431
17277TIP3    H173246   1.076   5.669   1.978 -0.8123 -1.4579  0.0270
17277TIP3    H273247   1.028   5.624   2.114  1.2405  1.0748  1.6725
17278TIP3   OH273248   0.285   1.841   2.039  0.0259 -0.0816 -0.4783
17278TIP3    H173249   0.346   1.867   2.108 -0.8046  0.6392  0.0042
17278TIP3    H273250   0.265   1.749   2.058  0.9456 -0.3228 -0.6441
17279TIP3   OH273251   6.035   1.209  16.002  0.0461  0.2255 -0.3356
17279TIP3    H173252   5.974   1.255  16.059  0.0668  1.5274 -1.3166
17279TIP3    H273253   5.989   1.129  15.976  0.1952 -0.5921  1.7674
17280TIP3   OH273254   2.054   3.140  14.525  0.0456  0.3499 -0.6666
17280TIP3    H173255   2.122   3.206  14.535  1.0459 -0.5698 -1.1570
17280TIP3    H273256   2.102   3.059  14.507 -1.0906 -0.7059  0.8013
17281TIP3   OH273257   3.038   3.927   4.853  0.0963 -0.3944 -0.3727
17281TIP3    H173258   3.055   3.957   4.942 -1.6883  0.8484 -0.4027
17281TIP3    H273259   3.059   4.002   4.798 -1.8694 -0.0148 -0.6792
17282TIP3   OH273260   2.352   5.711  15.036  0.0808 -0.1202 -0.3165
17282TIP3    H173261   2.361   5.646  14.966  1.1412 -0.0718 -0.2446
17282TIP3    H273262   2.350   5.795  14.991  1.6123 -0.0316 -0.2708
17283TIP3   OH273263   3.144   5.309  17.054 -0.1550  0.5664  0.2678
17283TIP3    H173264   3.165   5.217  17.069 -1.2103  0.3587  0.5309
17283TIP3    H273265   3.225   5.356  17.075  0.6313 -0.3522 -0.6137
17284TIP3   OH273266   6.396   0.305   0.247  0.2287 -0.3286  0.0039
17284TIP3    H173267   6.324   0.339   0.299 -0.5906 -1.2150 -0.5141
17284TIP3    H273268   6.432   0.234   0.301  1.9808  1.2958  1.1179
17285TIP3   OH273269   3.829   5.798   3.593  0.3911 -0.3173 -0.1747
17285TIP3    H173270   3.770   5.735   3.551 -0.0521  0.2961 -0.4786
17285TIP3    H273271   3.908   5.795   3.540  0.6447 -1.1337  0.2253
17286TIP3   OH273272   0.497   6.159   3.343  0.7558  0.3993  0.6771
17286TIP3    H173273   0.536   6.209   3.414 -0.9121  1.3433  0.9887
17286TIP3    H273274   0.403   6.156   3.365  0.1759  0.7714 -1.4919
17287TIP3   OH273275   5.464   5.771  11.738 -0.4653  0.4504  0.3357
17287TIP3    H173276   5.409   5.692  11.743 -0.1781  0.2945  1.3756
17287TIP3    H273277   5.419   5.834  11.795  0.7836  0.0844  1.7804
17288TIP3   OH273278   0.977   2.680  13.404  0.2338  0.3333 -0.3434
17288TIP3    H173279   1.054   2.653  13.354  0.3659 -1.1527  0.5886
17288TIP3    H273280   0.918   2.605  13.399 -0.3314  0.7097  0.5329
17289TIP3   OH273281   6.446   0.346   5.247  0.0080  0.0491 -0.3527
17289TIP3    H173282   6.401   0.288   5.185 -0.2053  2.2143 -2.3423
17289TIP3    H273283   6.524   0.298   5.273  0.4170 -0.7024 -2.7845
17290TIP3   OH273284   3.621   5.972   3.680 -0.6546 -0.4656  0.1332
17290TIP3    H173285   3.679   5.903   3.648 -0.0363 -0.2258  0.7357
17290TIP3    H273286   3.637   5.976   3.774 -2.0917 -0.8199  0.4285
17291TIP3   OH273287   4.277   6.712  11.232 -0.2908  0.2023  0.0408
17291TIP3    H173288   4.214   6.711  11.160  0.2043  0.0510 -0.3975
17291TIP3    H273289   4.247   6.783  11.289 -0.2693  0.8046 -0.6834
17292TIP3   OH273290   1.038   3.167  15.267  0.0704  0.2806  0.2645
17292TIP3    H173291   1.022   3.257  15.295  0.8767 -0.0365  1.8104
17292TIP3    H273292   1.129   3.149  15.291 -0.1935 -1.0781  0.3635
17293TIP3   OH273293   1.422   4.039   0.194  0.2581 -0.6353  0.0830
17293TIP3    H173294   1.510   4.037   0.231 -0.4772 -0.9162  1.9223
17293TIP3    H273295   1.384   3.954   0.218 -0.7611 -0.2344 -0.0534
17294TIP3   OH273296   5.687   5.884  14.982  0.2851 -0.4948  0.4732
17294TIP3    H173297   5.601   5.926  14.989 -0.5078 -1.8867 -0.1557
17294TIP3    H273298   5.671   5.810  14.923  2.0871 -0.3987 -0.1872
17295TIP3   OH273299   6.758   5.587  13.109  0.4484  0.3035 -0.9085
17295TIP3    H173300   6.781   5.544  13.192 -0.1806 -1.8011 -1.7573
17295TIP3    H273301   6.685   5.535  13.076  0.6210  1.1770 -2.7443
17296TIP3   OH273302   1.426   2.752   4.825  0.3392  0.0667  0.1102
17296TIP3    H173303   1.440   2.661   4.800 -0.5328 -0.3923  1.2281
17296TIP3    H273304   1.482   2.765   4.902 -0.9971 -0.1334  1.1601
17297TIP3   OH273305   4.095   2.202  16.346  0.2749 -0.2500  0.0637
17297TIP3    H173306   4.081   2.130  16.284  1.2160 -0.5593  0.1865
17297TIP3    H273307   4.056   2.172  16.428  0.3783 -0.4938  0.0252
17298TIP3   OH273308   5.000   3.663  11.761  0.5367 -0.6109  0.4352
17298TIP3    H173309   5.034   3.580  11.727 -1.7504 -0.7975 -1.6739
17298TIP3    H273310   4.942   3.637  11.833  1.1394 -0.6878  0.8962
17299TIP3   OH273311   5.061   0.267  11.586 -0.1423  0.0354  0.6123
17299TIP3    H173312   5.089   0.184  11.547  0.3786 -0.2197  1.5137
17299TIP3    H273313   5.087   0.333  11.522  0.2065 -0.4190  0.2723
17300TIP3   OH273314   2.732   1.081  15.098 -0.2583 -0.4164  0.2169
17300TIP3    H173315   2.783   1.110  15.022  0.0255  0.0350  0.5810
17300TIP3    H273316   2.795   1.080  15.170 -0.1986 -2.1126  0.1930
17301TIP3   OH273317   1.122   5.918  11.890 -0.0621  0.3607 -0.1984
17301TIP3    H173318   1.182   5.938  11.962  1.2737  0.8190 -1.3861
17301TIP3    H273319   1.125   5.823  11.883 -0.3800  0.2935  0.4917
17302TIP3   OH273320   5.859   0.422  14.168  0.2622 -0.5181 -0.0555
17302TIP3    H173321   5.848   0.362  14.093  1.3475  0.7466 -1.2787
17302TIP3    H273322   5.917   0.490  14.135  3.0589 -1.3168  2.7834
17303TIP3   OH273323   3.812   5.142  16.038  0.0866 -0.2977 -0.2935
17303TIP3    H173324   3.728   5.096  16.043  0.5690 -1.1311  0.7698
17303TIP3    H273325   3.830   5.150  15.945 -0.9892 -0.4450 -0.5302
17304TIP3   OH273326   0.866   3.234  12.807 -0.9336  0.4346  0.3123
17304TIP3    H173327   0.936   3.232  12.741 -1.5146  1.6040 -0.3661
17304TIP3    H273328   0.854   3.142  12.831  0.4113  0.1517  0.0021
17305TIP3   OH273329   1.048   1.232  15.817 -0.3726 -0.4039  0.7783
17305TIP3    H173330   1.021   1.312  15.862  1.8046  1.1241 -0.4128
17305TIP3    H273331   1.090   1.179  15.885  0.3643  0.5983  1.1334
17306TIP3   OH273332   2.522   6.657   3.083  0.0310 -0.3371  0.9108
17306TIP3    H173333   2.567   6.573   3.069  0.2242 -0.0935  0.0134
17306TIP3    H273334   2.577   6.703   3.146 -0.6425 -1.3005  2.2648
17307TIP3   OH273335   1.895   2.493  16.425 -0.1669 -0.5743  0.2394
17307TIP3    H173336   1.816   2.477  16.375 -0.5520 -1.8973  1.2040
17307TIP3    H273337   1.864   2.521  16.511  0.3894 -1.2490  0.6715
17308TIP3   OH273338   0.765   2.450   6.470  0.2578 -0.3880  0.2118
17308TIP3    H173339   0.763   2.356   6.487  0.0148 -0.3297  0.5052
17308TIP3    H273340   0.858   2.473   6.476  0.2144 -0.4263  1.1467
17309TIP3   OH273341   0.361   4.784   1.461 -0.0879 -0.4857 -0.1750
17309TIP3    H173342   0.289   4.753   1.516  0.9028 -4.3253 -0.7318
17309TIP3    H273343   0.332   4.767   1.371  0.0350  1.6245 -0.6601
17310TIP3   OH273344   5.984   4.607  12.615 -0.0038  0.7948 -0.1932
17310TIP3    H173345   5.954   4.577  12.528  0.4901  1.8870 -0.7544
17310TIP3    H273346   6.070   4.567  12.625  0.2720  1.2857 -0.5535
17311TIP3   OH273347   1.164   2.901   2.657  0.0796 -0.1673  0.6399
17311TIP3    H173348   1.167   2.911   2.752  1.0802 -0.3055  0.6286
17311TIP3    H273349   1.135   2.811   2.643  0.4475 -0.3147  0.8191
17312TIP3   OH273350   1.412   2.259  13.779 -0.1284  0.4710  0.0226
17312TIP3    H173351   1.387   2.169  13.758 -0.9369  0.7087 -0.0817
17312TIP3    H273352   1.330   2.308  13.774 -0.7756  0.3918  4.7250
17313TIP3   OH273353   5.368   5.303   1.523  0.1239  0.0926  0.2416
17313TIP3    H173354   5.366   5.313   1.619  0.6015 -0.6743  0.3359
17313TIP3    H273355   5.289   5.349   1.493  1.1462  2.3648  0.8044
17314TIP3   OH273356   6.314   2.860  11.543 -0.6869 -0.7082 -0.0713
17314TIP3    H173357   6.304   2.769  11.518 -0.8348 -0.8806  0.6084
17314TIP3    H273358   6.233   2.883  11.587  0.2571 -0.9620  1.9174
17315TIP3   OH273359   2.146   5.715   4.512 -0.1753  0.0333  0.0424
17315TIP3    H173360   2.099   5.799   4.510 -0.2734 -0.0326 -1.0996
17315TIP3    H273361   2.218   5.729   4.574 -0.7489  0.6442  0.5916
17316TIP3   OH273362   1.007   0.282  16.628  0.3461  0.0265  0.4639
17316TIP3    H173363   0.997   0.229  16.707  0.0634 -1.5354 -0.5600
17316TIP3    H273364   0.927   0.334  16.623  0.1825 -0.1677  0.9780
17317TIP3   OH273365   0.471   5.811   3.567  0.2655  0.0419 -0.5015
17317TIP3    H173366   0.507   5.831   3.481 -0.7688  0.5726 -0.8243
17317TIP3    H273367   0.448   5.897   3.604 -1.3689 -0.3000 -0.6362
17318TIP3   OH273368   4.066   6.285  14.544 -0.4071 -0.4570 -0.2658
17318TIP3    H173369   3.975   6.310  14.554 -0.3553  0.1241 -1.1211
17318TIP3    H273370   4.063   6.192  14.519 -0.8495 -0.1034 -1.6324
17319TIP3   OH273371   6.212   3.913   4.400  0.1928 -0.1930 -0.3064
17319TIP3    H173372   6.238   4.004   4.386  1.6964 -0.6527 -0.6744
17319TIP3    H273373   6.211   3.903   4.495 -3.0290  0.9897 -0.0724
17320TIP3   OH273374   3.212   5.513  14.810  0.1580 -0.7314 -0.5557
17320TIP3    H173375   3.269   5.437  14.822  0.6136 -0.5612 -1.5864
17320TIP3    H273376   3.270   5.582  14.778  0.0552  0.5370  1.7707
17321TIP3   OH273377   6.710   3.319   4.521  0.4344  0.2570  0.3693
17321TIP3    H173378   6.668   3.264   4.586  0.0702  1.5645  1.2704
17321TIP3    H273379   6.724   3.260   4.446 -0.8187 -0.7987  0.9196
17322TIP3   OH273380   3.831   2.885  10.604  0.6398  0.1713  0.1213
17322TIP3    H173381   3.764   2.817  10.606  1.6056 -0.8073  2.2682
17322TIP3    H273382   3.791   2.957  10.556 -0.0497 -2.2269 -3.2117
17323TIP3   OH273383   2.529   5.602   0.153 -0.3728 -0.4108  0.2151
17323TIP3    H173384   2.501   5.591   0.062 -0.4401  0.4666  0.1265
17323TIP3    H273385   2.455   5.571   0.205 -0.2099 -1.2196 -0.0227
17324TIP3   OH273386   3.506   0.977  13.433  0.1353  0.1689  0.2205
17324TIP3    H173387   3.521   1.061  13.477 -3.0001  1.6528 -1.2259
17324TIP3    H273388   3.582   0.967  13.374  1.0250  1.4930  1.0932
17325TIP3   OH273389   4.999   2.269  13.894  0.2654  0.5216  0.2471
17325TIP3    H173390   4.976   2.176  13.901  0.9082  0.2478 -1.0735
17325TIP3    H273391   5.047   2.288  13.974  0.2525 -0.3189  0.4606
17326TIP3   OH273392   5.711   4.375  12.241 -0.9090 -0.3026  0.2709
17326TIP3    H173393   5.646   4.336  12.300  0.4535 -0.6101  1.6369
17326TIP3    H273394   5.750   4.300  12.196 -0.4470 -0.2596  0.5942
17327TIP3   OH273395   0.538   2.938  11.622  0.0360 -0.2507  0.1224
17327TIP3    H173396   0.620   2.944  11.671 -0.8724 -1.2046  1.8491
17327TIP3    H273397   0.524   3.027  11.588  2.1454 -0.2533 -0.8875
17328TIP3   OH273398   4.585   5.687   4.923 -0.0861  0.1752  0.4964
17328TIP3    H173399   4.546   5.628   4.858  1.1317  1.3192 -1.3651
17328TIP3    H273400   4.677   5.661   4.927 -0.0604  0.3806  1.5045
17329TIP3   OH273401   5.545   6.144  12.271 -0.8355  0.2913  0.2977
17329TIP3    H173402   5.537   6.228  12.317  1.4610  0.2144  0.9829
17329TIP3    H273403   5.456   6.121  12.247 -1.6135  2.5398  0.7975
17330TIP3   OH273404   2.255   5.435   6.155 -0.4412  0.3375  0.2104
17330TIP3    H173405   2.201   5.385   6.216  1.2889 -0.7337  0.9503
17330TIP3    H273406   2.319   5.479   6.210  1.4953 -1.0803 -0.7877
17331TIP3   OH273407   6.283   2.852  16.515 -0.2034  0.3023  0.1523
17331TIP3    H173408   6.268   2.903  16.435 -1.0703 -1.1838 -0.6981
17331TIP3    H273409   6.195   2.833  16.548  0.0956 -0.4810  0.5291
17332TIP3   OH273410   0.542   0.680  10.917 -0.0211 -0.1456  0.7013
17332TIP3    H173411   0.500   0.598  10.939  2.3667 -1.9507 -0.9387
17332TIP3    H273412   0.527   0.690  10.822  0.0865  1.0960  0.7921
17333TIP3   OH273413   2.445   0.702  13.439 -0.2207 -0.3510 -0.0666
17333TIP3    H173414   2.462   0.764  13.510  0.6995 -0.5240 -0.1234
17333TIP3    H273415   2.380   0.746  13.383  2.0786  1.6170 -1.3882
17334TIP3   OH273416   4.363   6.786  15.263 -0.0386 -0.1704  0.1028
17334TIP3    H173417   4.320   6.807  15.346 -1.3042  1.8772 -1.0028
17334TIP3    H273418   4.333   6.854  15.202 -0.3266 -2.4245 -2.4532
17335TIP3   OH273419   3.791   1.848  16.112 -0.3339  0.0899  0.0605
17335TIP3    H173420   3.797   1.922  16.052  0.1897  0.3619  0.4399
17335TIP3    H273421   3.756   1.777  16.059 -0.7025  0.5671 -0.3460
17336TIP3   OH273422   5.442   6.734  13.965  0.3505 -0.1838  0.1938
17336TIP3    H173423   5.382   6.775  13.903  0.5288 -0.0949  0.0794
17336TIP3    H273424   5.386   6.679  14.019  0.1887 -0.2347 -0.0232
17337TIP3   OH273425   0.573   6.704   2.171 -0.1662  0.1779  0.2231
17337TIP3    H173426   0.528   6.760   2.108  0.7211  0.5943 -0.0628
17337TIP3    H273427   0.643   6.662   2.121 -0.2819 -0.5302  0.6348
17338TIP3   OH273428   5.855   2.726   5.677  0.2011  0.5809  0.0393
17338TIP3    H173429   5.947   2.732   5.703  0.0367 -1.6901  1.4078
17338TIP3    H273430   5.857   2.729   5.581  1.7660  0.0395  0.0279
17339TIP3   OH273431   5.130   5.533  14.250 -0.6722 -0.6511  0.1524
17339TIP3    H173432   5.174   5.508  14.169  0.8045 -1.2589  1.0987
17339TIP3    H273433   5.089   5.452  14.281 -1.6435 -0.3114 -0.2154
17340TIP3   OH273434   4.350   4.860   5.344  0.5631  0.6926 -0.0737
17340TIP3    H173435   4.375   4.952   5.356  0.3131  0.6536  0.8702
17340TIP3    H273436   4.433   4.812   5.341  0.6690  0.7833  1.0259
17341TIP3   OH273437   2.236   6.548   2.201 -0.2217  0.7247 -0.1179
17341TIP3    H173438   2.240   6.511   2.113 -1.3466 -0.2489  0.2178
17341TIP3    H273439   2.217   6.641   2.188  0.0909  0.6817 -0.9015
17342TIP3   OH273440   2.908   4.255   3.967  0.2644  0.4342  0.7920
17342TIP3    H173441   2.973   4.284   3.903 -2.0491  2.0191 -0.9926
17342TIP3    H273442   2.946   4.177   4.006  2.6280  0.5192 -1.1284
17343TIP3   OH273443   0.140   6.361  16.691  0.1639  0.2125  0.3717
17343TIP3    H173444   0.218   6.370  16.746  0.5923  0.0060 -0.1862
17343TIP3    H273445   0.106   6.274  16.713 -0.6773  0.8140  1.5716
17344TIP3   OH273446   5.821   1.353  16.093 -0.4856 -0.2312  0.1144
17344TIP3    H173447   5.748   1.302  16.059 -0.4700  0.3956 -0.9021
17344TIP3    H273448   5.781   1.433  16.127 -0.4307 -0.5770  1.0208
17345TIP3   OH273449   0.896   3.990  14.738 -0.4215  0.5229  0.3910
17345TIP3    H173450   0.856   3.932  14.803 -1.5892  0.9102  0.0425
17345TIP3    H273451   0.990   3.981  14.753 -0.5796 -1.2714  0.4955
17346TIP3   OH273452   5.549   3.439  12.228  0.7219  0.3700  0.6718
17346TIP3    H173453   5.511   3.405  12.148  2.6980  1.7923 -0.9686
17346TIP3    H273454   5.476   3.444  12.290 -1.2731  0.9758 -1.6047
17347TIP3   OH273455   1.962   2.236  13.126  0.2931  0.5484 -0.4827
17347TIP3    H173456   1.923   2.160  13.082  0.2462 -1.4034  2.6051
17347TIP3    H273457   2.054   2.212  13.138  0.0867  0.5140  1.2941
17348TIP3   OH273458   3.949   4.048  15.899  0.1310  0.3539  0.1634
17348TIP3    H173459   3.970   4.053  15.806  1.9550  2.4157  0.6058
17348TIP3    H273460   3.857   4.021  15.901 -0.1414  0.8432 -2.2294
17349TIP3   OH273461   1.711   0.636  16.387 -0.0348 -0.3286  0.1890
17349TIP3    H173462   1.673   0.612  16.472 -0.8475 -1.9807 -0.5858
17349TIP3    H273463   1.777   0.568  16.371  1.1172  0.7855  0.1243
17350TIP3   OH273464   0.884   1.778  12.083  0.2706 -0.1612 -0.1744
17350TIP3    H173465   0.856   1.856  12.132  2.4508 -0.7024  2.1716
17350TIP3    H273466   0.980   1.784  12.082  0.4962 -2.6585 -0.1669
17351TIP3   OH273467   3.423   2.890   1.108  0.0555 -0.0887  0.0781
17351TIP3    H173468   3.345   2.915   1.059 -0.7452 -0.5765  1.0641
17351TIP3    H273469   3.470   2.972   1.121  0.3118  0.0448 -1.5047
17352TIP3   OH273470   5.419   6.703   1.684  0.4785 -0.1717  0.0666
17352TIP3    H173471   5.383   6.618   1.659  1.7470 -1.3830  2.0795
17352TIP3    H273472   5.511   6.686   1.701  1.3411  2.1404 -1.7097
17353TIP3   OH273473   6.717   1.873   1.216  0.2992 -0.3851  0.0924
17353TIP3    H173474   6.754   1.813   1.280  0.4336 -0.3384  0.0584
17353TIP3    H273475   6.787   1.935   1.197  0.4123 -0.6674 -0.4409
17354TIP3   OH273476   5.055   3.036  16.185 -0.1789 -0.4165  0.2893
17354TIP3    H173477   5.104   3.103  16.232  0.7124 -1.1143  0.3824
17354TIP3    H273478   5.104   2.955  16.200 -1.2754 -1.1109  0.2392
17355TIP3   OH273479   1.511   6.326   1.657  0.1902  0.4834  0.4886
17355TIP3    H173480   1.519   6.397   1.720  0.4162 -0.1733  1.2176
17355TIP3    H273481   1.547   6.249   1.702  0.6225  0.0592 -0.5397
17356TIP3   OH273482   3.825   6.263   3.558 -0.1413  0.3392  0.2610
17356TIP3    H173483   3.749   6.264   3.616 -0.5758  0.6154 -0.3047
17356TIP3    H273484   3.814   6.342   3.504  0.4120  0.2398  0.0022
17357TIP3   OH273485   4.906   2.820  11.658  0.7148 -0.3331 -0.1900
17357TIP3    H173486   4.957   2.763  11.600 -0.8535  0.2559 -2.2304
17357TIP3    H273487   4.846   2.867  11.601  0.1311  1.4659  1.7403
17358TIP3   OH273488   6.590   3.999  16.652  0.2096  0.5665 -0.5030
17358TIP3    H173489   6.513   3.956  16.614 -0.9543  0.8540  1.4027
17358TIP3    H273490   6.554   4.072  16.704  1.3569 -1.2760  3.2518
17359TIP3   OH273491   1.575   4.653   5.215 -0.5452 -0.3714 -0.3911
17359TIP3    H173492   1.595   4.564   5.244  0.5644  0.2574  0.9005
17359TIP3    H273493   1.650   4.677   5.159 -0.4411  0.0268 -0.0830
17360TIP3   OH273494   6.093   3.007   2.020  0.1151 -0.1413 -0.3492
17360TIP3    H173495   6.103   3.097   2.052  0.4213  0.0085 -0.8582
17360TIP3    H273496   6.037   3.014   1.943  1.5691 -0.1501 -1.4420
17361TIP3   OH273497   6.062   3.491   0.064 -0.0643  0.4080  0.2709
17361TIP3    H173498   6.104   3.553   0.004 -1.2026  0.4420 -0.5264
17361TIP3    H273499   6.134   3.454   0.115  0.8748  0.7715 -0.7538
17362TIP3   OH273500   0.992   5.127  16.026 -0.8095  0.5633  0.0308
17362TIP3    H173501   1.008   5.042  16.068 -2.0306 -0.0153 -0.6283
17362TIP3    H273502   1.040   5.190  16.080 -1.5622 -0.2829  1.7512
17363TIP3   OH273503   3.345   2.553   0.561 -0.5671  0.5213 -0.5007
17363TIP3    H173504   3.301   2.557   0.646 -0.1750  0.6841 -0.3022
17363TIP3    H273505   3.278   2.521   0.501 -1.1220  1.2924 -0.3129
17364TIP3   OH273506   1.140   5.366   0.959  0.4359 -0.5564 -0.0536
17364TIP3    H173507   1.092   5.393   0.880  1.7917 -0.1632 -0.7664
17364TIP3    H273508   1.152   5.272   0.949 -0.0081 -0.6275  0.0418
17365TIP3   OH273509   5.334   5.715  13.363 -0.4417  0.3372  0.5289
17365TIP3    H173510   5.250   5.733  13.319  0.2157 -0.2730 -1.0642
17365TIP3    H273511   5.367   5.636  13.319  2.2496  2.0624 -0.8125
17366TIP3   OH273512   5.298   0.592  13.568 -0.3116  0.3916 -0.2686
17366TIP3    H173513   5.263   0.511  13.531  1.3196 -0.1686 -0.6931
17366TIP3    H273514   5.262   0.596  13.656 -1.2900 -0.2143 -0.6274
17367TIP3   OH273515   6.612   0.491   1.095  0.5346  0.2074 -0.3617
17367TIP3    H173516   6.542   0.448   1.044  0.4634 -0.7755  0.5394
17367TIP3    H273517   6.647   0.422   1.150  2.0064  0.7799 -0.5506
17368TIP3   OH273518   6.491   4.409   1.490  0.0428 -0.4764 -0.1951
17368TIP3    H173519   6.404   4.394   1.527 -0.3220  2.0230  0.1691
17368TIP3    H273520   6.481   4.490   1.439  2.5192  0.9279  1.3349
17369TIP3   OH273521   5.659   2.561   5.416  0.6517  0.7936 -0.3313
17369TIP3    H173522   5.631   2.518   5.335  0.8222 -1.4008  0.7062
17369TIP3    H273523   5.725   2.625   5.388  1.0986 -0.2935 -1.8891
17370TIP3   OH273524   1.699   0.335  13.444  0.4790  0.1314  0.1516
17370TIP3    H173525   1.746   0.292  13.372  2.4227  0.6381  1.0493
17370TIP3    H273526   1.768   0.363  13.505 -0.9803  1.2692  1.3746
17371TIP3   OH273527   2.383   5.987   5.623  0.7487  0.1116 -0.0606
17371TIP3    H173528   2.327   6.035   5.683  1.8420 -0.3563  1.3814
17371TIP3    H273529   2.324   5.926   5.579 -0.0525  0.3625  0.6429
17372TIP3   OH273530   0.705   2.827   5.804  0.2423 -0.0372  0.2973
17372TIP3    H173531   0.720   2.897   5.867  1.7799 -0.2154  0.1601
17372TIP3    H273532   0.616   2.842   5.772  0.7546  2.2495 -0.2129
17373TIP3   OH273533   5.008   6.219   4.660 -0.5627 -0.1795 -0.1185
17373TIP3    H173534   5.089   6.197   4.614 -1.2114 -0.2812 -1.2561
17373TIP3    H273535   4.999   6.314   4.650 -1.5922 -0.4029 -1.7959
17374TIP3   OH273536   6.535   6.344  12.742 -0.3968  0.3307 -0.2472
17374TIP3    H173537   6.448   6.362  12.706 -0.2482 -0.1960 -0.8840
17374TIP3    H273538   6.523   6.268  12.799 -0.1156 -0.5670 -1.3653
17375TIP3   OH273539   4.019   3.086  12.274 -0.1344  0.1536 -0.5041
17375TIP3    H173540   4.042   3.010  12.328 -0.9451 -1.8834 -2.7945
17375TIP3    H273541   3.997   3.154  12.337  1.1177 -1.3225  1.6988
17376TIP3   OH273542   5.368   2.733  12.330 -0.3877 -0.3476 -0.5797
17376TIP3    H173543   5.456   2.716  12.295 -0.2137  0.6343 -0.6683
17376TIP3    H273544   5.333   2.647  12.351  1.9143 -0.7094  2.6174
17377TIP3   OH273545   1.804   1.138  11.853 -0.1882  0.2512  0.3845
17377TIP3    H173546   1.800   1.212  11.913 -0.5663  0.1706  0.4606
17377TIP3    H273547   1.713   1.110  11.844 -0.0804 -0.0139  0.1207
17378TIP3   OH273548   4.208   4.068   4.126  0.2619  0.4436 -0.0707
17378TIP3    H173549   4.178   4.073   4.216  0.6140 -0.9088  0.1488
17378TIP3    H273550   4.189   4.154   4.089 -2.0668  0.2594  0.5967
17379TIP3   OH273551   3.441   4.903   2.514  0.1671  0.8345  0.4918
17379TIP3    H173552   3.499   4.831   2.538 -0.2149  1.1043  2.3379
17379TIP3    H273553   3.501   4.972   2.483  0.8432  0.9833  2.0314
17380TIP3   OH273554   6.755   5.624  14.063  0.1101  0.7114  0.5711
17380TIP3    H173555   6.789   5.578  13.986 -0.4091  1.0054  0.1650
17380TIP3    H273556   6.668   5.587  14.077  0.3574  0.3664  1.2701
17381TIP3   OH273557   0.310   3.674   1.338  0.0746 -0.0300 -0.2697
17381TIP3    H173558   0.400   3.657   1.311  0.2423 -0.5728  0.5926
17381TIP3    H273559   0.317   3.698   1.430 -0.7806 -1.4864  0.2109
17382TIP3   OH273560   5.558   2.259  13.058  0.1450 -0.4274  0.0281
17382TIP3    H173561   5.539   2.331  13.118  0.4646 -0.5065  0.2251
17382TIP3    H273562   5.565   2.300  12.972  0.8514 -0.1471  0.2141
17383TIP3   OH273563   1.336   2.926   6.341  0.3249 -0.3188  0.1772
17383TIP3    H173564   1.301   2.920   6.430 -1.3327  1.2067 -0.3207
17383TIP3    H273565   1.390   3.005   6.343  0.6968 -0.5628 -0.0623
17384TIP3   OH273566   0.282   6.578   0.321  0.4358  0.2985  0.2239
17384TIP3    H173567   0.299   6.495   0.278 -0.3808 -0.2815  0.9852
17384TIP3    H273568   0.299   6.644   0.254 -2.7896 -0.6369 -1.6784
17385TIP3   OH273569   3.281   4.859  15.664  0.4399  0.9165 -0.1184
17385TIP3    H173570   3.363   4.868  15.615  0.0626 -0.3920 -1.0227
17385TIP3    H273571   3.224   4.927  15.628  1.6507  3.1108  1.7806
17386TIP3   OH273572   4.783   4.270  12.647  0.1707 -0.0626  0.3490
17386TIP3    H173573   4.849   4.276  12.578  0.3471 -3.5870  0.0411
17386TIP3    H273574   4.701   4.293  12.603  0.8449  2.8957  0.3914
17387TIP3   OH273575   5.004   3.029  11.785 -0.0962  0.4616  0.1890
17387TIP3    H173576   5.089   3.010  11.823  0.4090  1.4913 -0.3867
17387TIP3    H273577   4.990   2.959  11.721  0.5094  0.5146 -0.0085
17388TIP3   OH273578   0.011   0.077  11.959 -0.1025 -0.5390 -0.0541
17388TIP3    H173579  -0.052   0.139  11.995  0.1577  0.2266 -0.8757
17388TIP3    H273580   0.016   0.007  12.024  1.2747  1.3516  1.9883
17389TIP3   OH273581   6.714   1.259  11.014 -0.7466 -0.4229 -0.1006
17389TIP3    H173582   6.768   1.237  10.938 -1.4012 -0.6565 -0.5056
17389TIP3    H273583   6.755   1.213  11.087 -0.4671 -0.6866 -0.4203
17390TIP3   OH273584   2.076   2.452  16.724  0.3986 -0.0418 -0.3680
17390TIP3    H173585   2.164   2.450  16.688 -0.1585  0.6579 -1.8678
17390TIP3    H273586   2.038   2.534  16.690 -1.0909 -0.7332 -0.4576
17391TIP3   OH273587   5.461   1.952   1.133 -0.0395 -0.4812 -0.1293
17391TIP3    H173588   5.553   1.954   1.106  0.0320  2.1025  0.0550
17391TIP3    H273589   5.463   1.973   1.226 -0.7929 -1.4339  0.1235
17392TIP3   OH273590   6.258   4.717  13.407  0.3294  0.3582 -0.0244
17392TIP3    H173591   6.288   4.634  13.443 -2.4269 -0.3589  0.8539
17392TIP3    H273592   6.251   4.775  13.482 -1.6639  0.0773  0.0477
17393TIP3   OH273593   2.549   2.124   0.580 -0.4241  0.1131 -0.1341
17393TIP3    H173594   2.579   2.180   0.507 -0.4742  0.3185  0.0028
17393TIP3    H273595   2.454   2.130   0.576 -0.4179  0.5310  0.2619
17394TIP3   OH273596   0.944   3.851  16.090 -0.0569  0.1039 -0.1317
17394TIP3    H173597   0.996   3.778  16.055 -1.0726 -1.1684  0.9135
17394TIP3    H273598   0.862   3.810  16.119  0.3719  1.1634  2.9651
17395TIP3   OH273599   0.366   2.653  14.140 -0.3639  0.0773 -0.1655
17395TIP3    H173600   0.318   2.570  14.138 -0.3195  0.0410  0.1883
17395TIP3    H273601   0.416   2.649  14.222  2.0490 -0.8849 -1.5926
17396TIP3   OH273602   3.131   3.420  13.083 -0.7350  0.3186 -0.4083
17396TIP3    H173603   3.149   3.448  12.993 -1.8461  1.1730 -0.3856
17396TIP3    H273604   3.206   3.452  13.133 -0.7892  1.1082 -0.8078
17397TIP3   OH273605   2.143   3.314   5.947  0.3458  0.1786 -0.4514
17397TIP3    H173606   2.101   3.237   5.908  0.7607 -0.2579 -0.0580
17397TIP3    H273607   2.236   3.299   5.933  0.4594  0.3355  0.1203
17398TIP3   OH273608   1.962   5.657   2.277  0.0958  0.1566  0.6337
17398TIP3    H173609   1.954   5.650   2.372  1.9437 -0.0768  0.8087
17398TIP3    H273610   2.032   5.597   2.254  0.1498  0.7210 -0.7978
17399TIP3   OH273611   5.910   4.444   0.100  0.4497  0.2226  0.6152
17399TIP3    H173612   5.868   4.456   0.184 -1.1125  0.6509 -0.1964
17399TIP3    H273613   5.973   4.516   0.094 -0.4812  1.0583  0.7926
17400TIP3   OH273614   4.229   1.963   6.434 -0.3577  0.7333 -0.6081
17400TIP3    H173615   4.156   1.925   6.482 -0.2493  2.7066  1.3054
17400TIP3    H273616   4.197   2.049   6.406  0.2317  0.3809 -2.5146
17401TIP3   OH273617   4.640   2.735   2.467 -0.2193  0.1916  0.3677
17401TIP3    H173618   4.554   2.765   2.497 -1.7726 -1.8071 -1.6896
17401TIP3    H273619   4.681   2.697   2.545 -1.5881  0.3358  1.1904
17402TIP3   OH273620   1.810   5.324   3.781 -0.3527 -0.1891 -0.1274
17402TIP3    H173621   1.781   5.253   3.724  0.3967 -0.7394  0.1668
17402TIP3    H273622   1.810   5.286   3.868 -2.6025  0.9699  0.4579
17403TIP3   OH273623   5.335   0.149   2.134 -0.1876 -0.3591  0.2509
17403TIP3    H173624   5.261   0.105   2.176 -1.5463  0.5611 -1.0758
17403TIP3    H273625   5.361   0.089   2.064 -0.1756 -0.3216  0.2234
17404TIP3   OH273626   0.453   1.766  16.971  0.2619 -0.6922  0.0578
17404TIP3    H173627   0.395   1.719  16.910 -0.4641  2.1840 -1.6446
17404TIP3    H273628   0.397   1.786  17.046  0.0389 -0.8471 -0.0648
17405TIP3   OH273629   1.855   2.380  15.100  0.3830 -0.3812  0.3318
17405TIP3    H173630   1.883   2.383  15.008  0.0517 -2.2241  0.1288
17405TIP3    H273631   1.850   2.287  15.120 -1.0264 -0.0287  1.7890
17406TIP3   OH273632   2.564   1.698  13.257 -0.4855  0.2414 -0.1954
17406TIP3    H173633   2.655   1.726  13.252 -0.3498 -0.4075 -1.8356
17406TIP3    H273634   2.537   1.720  13.346  1.2192  0.5878  0.2629
17407TIP3   OH273635   6.628   0.735  12.847  0.4248  0.0099  0.5894
17407TIP3    H173636   6.652   0.814  12.798  1.5777 -1.0355 -0.5900
17407TIP3    H273637   6.703   0.677  12.839 -0.6359 -1.4807  0.8863
17408TIP3   OH273638   5.509   1.421   1.578 -0.0088  0.2738 -0.7153
17408TIP3    H173639   5.414   1.416   1.568  0.0854 -0.7284 -1.2150
17408TIP3    H273640   5.543   1.418   1.489  0.4254  3.6283 -0.7716
17409TIP3   OH273641   2.465   0.177  15.238  0.5513 -0.1597 -0.0086
17409TIP3    H173642   2.373   0.198  15.222  0.4126 -1.3261 -0.9303
17409TIP3    H273643   2.508   0.261  15.250 -0.3309  0.5167 -1.3586
17410TIP3   OH273644   1.674   1.484   0.981  0.2906  0.2232  0.2155
17410TIP3    H173645   1.661   1.392   1.002  0.1523 -0.2877 -1.8647
17410TIP3    H273646   1.598   1.507   0.926  0.6124  1.4120  0.2369
17411TIP3   OH273647   1.606   6.087   3.532  0.0635  0.0986  0.3101
17411TIP3    H173648   1.670   6.052   3.469  2.9935  1.7926  2.1197
17411TIP3    H273649   1.544   6.136   3.478  0.6508 -1.0056 -1.4908
17412TIP3   OH273650   4.645   5.102  12.057 -0.2865 -0.0146 -0.4290
17412TIP3    H173651   4.656   5.100  12.152  0.0996  1.6527 -0.4022
17412TIP3    H273652   4.552   5.086  12.044 -0.5902  1.0018  0.3286
17413TIP3   OH273653   4.362   4.055   0.217 -0.1056 -0.0885  0.6320
17413TIP3    H173654   4.282   4.067   0.165 -0.1619 -0.3378  0.6570
17413TIP3    H273655   4.404   4.141   0.217 -1.6964  0.7735  2.8669
17414TIP3   OH273656   0.382   5.420   1.788  0.4496  0.4490  0.5930
17414TIP3    H173657   0.468   5.443   1.755  0.1418 -0.0754 -0.6366
17414TIP3    H273658   0.321   5.452   1.721 -0.1299 -1.5809  0.0638
17415TIP3   OH273659   6.201   2.060   4.231 -0.4187  0.6347 -0.0431
17415TIP3    H173660   6.273   2.022   4.181 -0.1260 -0.6840  1.3211
17415TIP3    H273661   6.241   2.090   4.313 -0.9789  2.2726 -0.3324
17416TIP3   OH273662   1.947   5.569  14.569 -0.0021  0.5041 -0.4495
17416TIP3    H173663   2.031   5.614  14.555 -0.0632  0.3144 -1.5058
17416TIP3    H273664   1.965   5.508  14.640  0.8408  0.2643 -0.8484
17417TIP3   OH273665   5.406   2.030  16.036 -0.3565 -0.2814  0.3649
17417TIP3    H173666   5.332   1.971  16.022  0.8739 -1.9945  0.7936
17417TIP3    H273667   5.469   1.979  16.086  0.8087  1.3944  0.7099
17418TIP3   OH273668   5.398   0.709  11.272  0.4111  0.1841  0.5770
17418TIP3    H173669   5.378   0.634  11.215 -2.0040  2.2743 -1.5684
17418TIP3    H273670   5.491   0.726  11.257  0.2346 -0.3830 -1.4915
17419TIP3   OH273671   0.285   6.528   5.097 -0.3440 -0.0552 -0.5594
17419TIP3    H173672   0.312   6.520   5.005  4.3332  1.2341  0.4409
17419TIP3    H273673   0.340   6.465   5.143 -1.0672  0.7979  1.5762
17420TIP3   OH273674   2.921   2.824  16.676  0.0443 -0.0411  0.3345
17420TIP3    H173675   2.861   2.828  16.751  0.5103 -0.6335  0.7413
17420TIP3    H273676   2.987   2.891  16.695  0.0248 -0.0202  0.3299
17421TIP3   OH273677   1.848   3.227  16.977 -0.1442 -0.3139  0.3853
17421TIP3    H173678   1.809   3.141  16.963 -1.3052 -0.1660  2.3334
17421TIP3    H273679   1.779   3.290  16.956  0.6816  0.1869 -0.9816
17422TIP3   OH273680   1.465   0.840  16.955  0.1046 -0.1415 -0.5060
17422TIP3    H173681   1.440   0.769  17.014  1.1497  0.2653  0.4805
17422TIP3    H273682   1.560   0.837  16.953  0.1516  0.9863 -0.7532
17423TIP3   OH273683   6.658   3.493   3.499 -0.1404 -0.4678  0.1219
17423TIP3    H173684   6.650   3.566   3.560 -0.7397 -0.6943  0.3264
17423TIP3    H273685   6.594   3.513   3.430  2.1199  0.9790 -1.7132
17424TIP3   OH273686   2.026   3.663  13.495  0.4765  0.5133  0.0845
17424TIP3    H173687   1.934   3.681  13.477  0.5928  0.3437 -0.7204
17424TIP3    H273688   2.027   3.630  13.585 -0.4380 -0.8766 -0.3776
17425TIP3   OH273689   1.643   5.438  11.781  0.2601  0.8055 -0.1141
17425TIP3    H173690   1.575   5.383  11.743 -1.1015  2.0120  0.5040
17425TIP3    H273691   1.662   5.397  11.866 -0.7235  1.2487  0.3306
17426TIP3   OH273692   0.354   1.617  10.684  0.0660 -0.2283  0.5620
17426TIP3    H173693   0.341   1.677  10.610  0.5844 -1.0501 -0.2314
17426TIP3    H273694   0.447   1.625  10.705  0.3526 -1.3286 -0.1225
17427TIP3   OH273695   1.508   0.033  16.080 -0.4160  0.0592  0.0503
17427TIP3    H173696   1.488   0.122  16.110 -2.0697 -0.2226 -0.1417
17427TIP3    H273697   1.473   0.030  15.990  0.7174 -0.4183 -0.3917
17428TIP3   OH273698   3.488   1.503  13.061 -0.2638  0.3037  0.8426
17428TIP3    H173699   3.417   1.458  13.015  0.7425 -1.3835  0.8740
17428TIP3    H273700   3.482   1.594  13.031 -2.7746  0.3642  1.2850
17429TIP3   OH273701   6.654   1.208   2.205  0.0663  0.4717 -0.2990
17429TIP3    H173702   6.693   1.259   2.276 -1.5757 -0.2022  1.1840
17429TIP3    H273703   6.575   1.256   2.181 -1.0391 -0.8435  0.5235
17430TIP3   OH273704   1.427   2.416   0.478  0.5310  0.0297  0.3755
17430TIP3    H173705   1.452   2.491   0.531  1.8007  1.8998 -2.6308
17430TIP3    H273706   1.501   2.355   0.487  0.6812  0.2670  0.7938
17431TIP3   OH273707   3.166   6.042   4.428  0.8972  0.3264 -0.0938
17431TIP3    H173708   3.130   6.060   4.515  1.0171  0.5393 -0.0878
17431TIP3    H273709   3.142   5.951   4.411 -2.3787  1.2830 -1.3746
17432TIP3   OH273710   5.837   4.870  16.702  0.5979 -0.2575  0.1887
17432TIP3    H173711   5.848   4.838  16.613 -1.1298 -0.2037 -0.0764
17432TIP3    H273712   5.856   4.794  16.757 -0.3700 -0.8895 -0.3192
17433TIP3   OH273713   0.110   1.087  11.884 -0.3099  0.6254 -0.6133
17433TIP3    H173714   0.187   1.068  11.938 -0.6662 -1.3763 -0.7555
17433TIP3    H273715   0.066   1.003  11.872 -1.6839  1.4512 -1.8569
17434TIP3   OH273716   4.831   3.355  16.982 -0.0732 -0.2352 -0.9898
17434TIP3    H173717   4.837   3.450  16.995  0.4527 -0.2634 -0.9785
17434TIP3    H273718   4.917   3.331  16.947 -1.1680 -0.2330 -4.0496
17435TIP3   OH273719   2.807   1.641   5.352 -0.3094  0.6176  0.3706
17435TIP3    H173720   2.756   1.673   5.278  1.4245  2.3325 -0.1952
17435TIP3    H273721   2.817   1.547   5.337  1.3364  1.1331 -2.5186
17436TIP3   OH273722   4.135   6.422   5.136  0.1344 -0.1715 -0.5781
17436TIP3    H173723   4.044   6.447   5.154  0.6689  1.0887  0.5700
17436TIP3    H273724   4.184   6.504   5.142  1.5490 -1.0285  0.1855
17437TIP3   OH273725   1.268   6.182  11.956  0.6460  0.1920  0.1467
17437TIP3    H173726   1.270   6.094  11.991  1.2191  0.0177 -0.3058
17437TIP3    H273727   1.180   6.192  11.920  0.7639 -0.4047 -0.3184
17438TIP3   OH273728   5.953   6.192   1.200 -0.5151 -0.6380 -0.1349
17438TIP3    H173729   5.946   6.144   1.118  1.5359  0.7163 -1.1880
17438TIP3    H273730   6.042   6.175   1.230 -1.1139 -0.8275  1.6732
17439TIP3   OH273731   5.396   2.212   1.620 -0.1846 -0.3283 -0.2930
17439TIP3    H173732   5.471   2.179   1.670  0.1923 -0.5547 -0.9927
17439TIP3    H273733   5.321   2.165   1.656 -0.0582  0.2010  0.6975
17440TIP3   OH273734   1.879   2.695   2.238 -0.1565 -0.1796 -0.2672
17440TIP3    H173735   1.900   2.746   2.160 -0.2626  0.7873  0.3218
17440TIP3    H273736   1.840   2.758   2.299 -1.7139 -1.2775 -0.0846
17441TIP3   OH273737   3.464   4.602   1.805 -0.2091 -0.3772  0.1973
17441TIP3    H173738   3.554   4.603   1.773  1.0032 -1.6458  3.1538
17441TIP3    H273739   3.465   4.539   1.878 -2.5234  2.3262  2.8564
17442TIP3   OH273740   4.266   4.448  11.331 -0.4079 -0.6990 -0.0391
17442TIP3    H173741   4.257   4.542  11.342 -0.5732 -0.8326  1.1063
17442TIP3    H273742   4.238   4.431  11.241 -1.2905  0.2326  0.0386
17443TIP3   OH273743   3.357   4.630   2.858 -0.4560 -0.3509  0.4531
17443TIP3    H173744   3.303   4.552   2.871  0.7960 -0.8147  4.0693
17443TIP3    H273745   3.437   4.597   2.817 -0.1724 -0.9298  1.4311
17444TIP3   OH273746   3.910   3.359   2.970  0.5409  0.3292  0.6719
17444TIP3    H173747   3.927   3.285   2.911 -1.8465 -0.1700  0.5137
17444TIP3    H273748   3.925   3.436   2.917 -0.6013 -0.1076 -0.3225
17445TIP3   OH273749   6.286   2.612   3.778  0.1520  0.5988  0.3351
17445TIP3    H173750   6.233   2.691   3.795 -2.2754 -0.9598  0.4633
17445TIP3    H273751   6.264   2.587   3.689  0.3990 -0.2730  0.5089
17446TIP3   OH273752   5.467   4.394   2.368 -0.0583  0.0204 -0.1334
17446TIP3    H173753   5.546   4.387   2.314  1.5876 -0.0586  2.1393
17446TIP3    H273754   5.460   4.308   2.411 -0.9512  0.2798  0.2543
17447TIP3   OH273755   3.461   6.092  13.249  0.0238  0.4211 -0.1080
17447TIP3    H173756   3.371   6.116  13.271  0.6690  0.8048  2.3943
17447TIP3    H273757   3.498   6.058  13.331  2.3106  0.7545 -0.9241
17448TIP3   OH273758   5.775   0.812  15.759  0.2819  0.2366 -0.1882
17448TIP3    H173759   5.693   0.764  15.763  0.7955 -0.7180 -0.7447
17448TIP3    H273760   5.764   0.875  15.688 -1.1084  2.3901  1.7784
17449TIP3   OH273761   2.076   6.523   4.513  0.6117  0.1146  0.1200
17449TIP3    H173762   2.158   6.505   4.466  1.3290 -0.0380  1.3938
17449TIP3    H273763   2.103   6.570   4.592 -0.6474  1.1285 -0.0129
17450TIP3   OH273764   2.555   4.735   0.242 -0.0795  0.1385  0.6260
17450TIP3    H173765   2.517   4.803   0.298  0.0365 -0.3286  1.2876
17450TIP3    H273766   2.627   4.778   0.196  0.8884  0.1351  2.0686
17451TIP3   OH273767   0.503   6.582  10.723 -0.0983 -1.0210  0.3026
17451TIP3    H173768   0.475   6.664  10.764  2.4090 -0.5432  1.2243
17451TIP3    H273769   0.592   6.568  10.756  1.4740 -1.5066 -3.6725
17452TIP3   OH273770   1.590   3.929  16.741  0.2235 -0.2597  0.6527
17452TIP3    H173771   1.518   3.869  16.760  0.9202 -1.4897 -0.4176
17452TIP3    H273772   1.547   4.010  16.714 -0.7559 -0.8330  0.4388
17453TIP3   OH273773   1.475   3.173  15.073 -0.2629  0.1422  0.2061
17453TIP3    H173774   1.471   3.249  15.015  0.8986 -0.0794 -0.1743
17453TIP3    H273775   1.507   3.208  15.156  0.5088  0.0349 -0.0413
17454TIP3   OH273776   5.652   0.267   1.971 -0.2681  0.0770  0.6245
17454TIP3    H173777   5.698   0.350   1.957 -0.6227  0.0264 -0.9454
17454TIP3    H273778   5.677   0.212   1.898 -1.2312 -0.6716  0.8371
17455TIP3   OH273779   4.342   4.735   0.908  0.3458 -0.1291  0.1755
17455TIP3    H173780   4.379   4.766   0.991  1.5371 -0.6952 -0.1110
17455TIP3    H273781   4.399   4.773   0.841 -1.0184  0.8802 -0.4364
17456TIP3   OH273782   0.386   0.018  14.671 -0.0187  0.3367 -0.3020
17456TIP3    H173783   0.395  -0.034  14.751  0.3097  1.8999  0.7226
17456TIP3    H273784   0.437   0.097  14.688  0.7012  0.3699 -2.3822
17457TIP3   OH273785   4.810   2.190   3.416  0.0415 -0.5313 -0.8087
17457TIP3    H173786   4.850   2.255   3.358  0.3038  0.2845  0.2532
17457TIP3    H273787   4.842   2.106   3.382  0.9497 -0.0184 -1.2819
17458TIP3   OH273788   1.918   2.232  16.582  0.3489 -0.0345  0.0200
17458TIP3    H173789   1.968   2.253  16.661  0.6985 -0.8010  0.0071
17458TIP3    H273790   1.895   2.317  16.545 -0.3301  0.3484  1.2651
17459TIP3   OH273791   5.488   2.234  15.496 -0.0595 -0.3570 -0.0300
17459TIP3    H173792   5.501   2.320  15.456 -0.3919 -0.8937 -1.3332
17459TIP3    H273793   5.419   2.249  15.561  0.5487  0.5477  0.4254
17460TIP3   OH273794   3.360   2.954  12.943 -0.2039  0.7827  0.3732
17460TIP3    H173795   3.396   2.865  12.939 -1.3078  0.2188  1.8892
17460TIP3    H273796   3.303   2.960  12.867  1.2262  0.8609 -0.7408
17461TIP3   OH273797   5.774   2.841  14.911 -1.1309  0.6094 -0.4967
17461TIP3    H173798   5.740   2.920  14.870  0.0299  1.8792  0.8827
17461TIP3    H273799   5.774   2.859  15.005  2.0329  0.2685 -0.2997
17462TIP3   OH273800   4.592   3.981  17.077 -0.5373  0.4058  0.2805
17462TIP3    H173801   4.504   4.016  17.068  0.0486  1.8188 -0.3043
17462TIP3    H273802   4.621   4.010  17.163  0.4486  2.6940 -0.7282
17463TIP3   OH273803   3.950   1.902   4.138  0.1255  0.2039 -0.2005
17463TIP3    H173804   4.020   1.848   4.100 -2.3588 -2.2416 -1.6824
17463TIP3    H273805   3.963   1.895   4.232  0.4542 -2.3156 -0.3571
17464TIP3   OH273806   3.150   5.134  11.252  0.3905  1.2035 -0.4600
17464TIP3    H173807   3.101   5.189  11.313  0.2305  1.6193 -0.9600
17464TIP3    H273808   3.152   5.184  11.171 -0.0220  0.3377 -1.0118
17465TIP3   OH273809   6.073   4.640   3.025  0.0410 -0.1091 -0.0745
17465TIP3    H173810   6.096   4.721   2.979 -0.4998 -0.0389 -0.2260
17465TIP3    H273811   5.977   4.637   3.022 -0.0730  0.3923  1.9010
17466TIP3   OH273812   5.690   6.043  15.562  0.0640 -0.0015  0.1092
17466TIP3    H173813   5.784   6.033  15.573 -0.2040 -0.8589  1.9775
17466TIP3    H273814   5.674   6.137  15.578  1.0107  1.1348 -4.4011
17467TIP3   OH273815   2.313   1.937   0.517  0.8595 -0.1533 -0.1027
17467TIP3    H173816   2.253   1.921   0.591  0.8453  0.9886  0.1518
17467TIP3    H273817   2.256   1.970   0.447  0.8650 -1.2969 -0.6606
17468TIP3   OH273818   2.734   0.049  11.990  0.1818  0.4481  0.2760
17468TIP3    H173819   2.726   0.009  11.903  0.4537 -0.1164  0.5091
17468TIP3    H273820   2.643   0.061  12.018  0.0732 -1.2528  0.7601
17469TIP3   OH273821   3.035   5.417  16.597 -0.1605 -0.0535 -0.4396
17469TIP3    H173822   3.018   5.413  16.691  2.7493 -1.6695  0.1384
17469TIP3    H273823   2.980   5.489  16.565 -2.2532 -0.3247  2.2061
17470TIP3   OH273824   5.497   3.595  13.339 -0.2501  0.1665  0.6629
17470TIP3    H173825   5.429   3.545  13.294  2.0078 -0.9515 -1.7829
17470TIP3    H273826   5.566   3.605  13.274  2.0466  1.0660  3.0696
17471TIP3   OH273827   6.688   5.345  14.247  0.0120  0.6687 -0.3045
17471TIP3    H173828   6.595   5.326  14.234  0.2881 -1.6029  0.6428
17471TIP3    H273829   6.703   5.326  14.340  1.3569  1.3969 -0.3486
17472TIP3   OH273830   5.286   1.069   6.411  0.4998  0.1165  0.4508
17472TIP3    H173831   5.376   1.070   6.445  0.0598 -0.1538  1.6820
17472TIP3    H273832   5.282   0.991   6.356  1.3647  0.8141 -0.6478
17473TIP3   OH273833   5.872   0.218   4.283  0.1488 -0.2175 -0.2900
17473TIP3    H173834   5.842   0.306   4.261  1.0727  0.0847 -0.3841
17473TIP3    H273835   5.881   0.218   4.378 -0.0164 -0.2641 -0.2744
17474TIP3   OH273836   2.790   1.805  13.880 -0.3341  0.3439  0.4799
17474TIP3    H173837   2.849   1.822  13.954  0.8955 -1.3004 -0.0593
17474TIP3    H273838   2.769   1.712  13.888  0.3013 -0.0160 -1.5345
17475TIP3   OH273839   4.300   5.094  16.356 -0.2488 -0.5685 -0.3476
17475TIP3    H173840   4.384   5.049  16.362  2.1557  3.5389  0.2015
17475TIP3    H273841   4.295   5.147  16.435 -1.7337  1.7881 -1.8952
17476TIP3   OH273842   5.015   0.753  16.947  0.0246  0.2380  0.8011
17476TIP3    H173843   4.931   0.746  16.902  0.4718 -0.7626  0.0653
17476TIP3    H273844   5.059   0.826  16.902  0.7155 -1.1439 -0.8975
17477TIP3   OH273845   5.550   6.435  12.880 -0.1404 -0.5302 -0.4086
17477TIP3    H173846   5.508   6.353  12.905  0.2600 -0.8698 -0.8411
17477TIP3    H273847   5.498   6.467  12.806  0.2488 -0.8720 -0.8433
17478TIP3   OH273848   6.633   6.768   1.831  0.1567  0.2759  0.6245
17478TIP3    H173849   6.559   6.761   1.771  0.2020 -1.1693  0.7150
17478TIP3    H273850   6.611   6.842   1.888 -1.0072  0.1469  0.3596
17479TIP3   OH273851   1.477   3.440   1.874  0.2190 -0.0492  0.0175
17479TIP3    H173852   1.562   3.472   1.846 -0.0308  0.9738  0.3900
17479TIP3    H273853   1.450   3.380   1.805  1.7836 -1.3801  0.4989
17480TIP3   OH273854   6.432   4.132   0.445  0.2043 -0.2698  0.3218
17480TIP3    H173855   6.420   4.187   0.367 -0.5098 -0.0085  0.6132
17480TIP3    H273856   6.525   4.141   0.466  0.2483  0.2392 -0.0719
17481TIP3   OH273857   0.106   2.430  14.980 -0.0842 -0.1386  0.4016
17481TIP3    H173858   0.144   2.517  14.982  1.1036 -0.6586  1.6404
17481TIP3    H273859   0.080   2.418  14.889  0.1604  1.3213  0.1156
17482TIP3   OH273860   4.735   6.368  16.622  0.8026 -0.1568 -0.3752
17482TIP3    H173861   4.814   6.340  16.668 -0.3138 -0.3003  1.5516
17482TIP3    H273862   4.677   6.292  16.625  0.9276 -0.4266 -2.7350
17483TIP3   OH273863   3.213   1.094  14.977  0.1390 -0.0364 -0.5874
17483TIP3    H173864   3.199   1.147  15.056 -1.9006  0.8669 -1.4678
17483TIP3    H273865   3.200   1.004  15.007 -1.0763  0.3232  0.0701
17484TIP3   OH273866   4.216   1.824   4.953  0.4465  0.8153  0.0689
17484TIP3    H173867   4.219   1.853   4.862  1.4473  1.1330  0.1889
17484TIP3    H273868   4.280   1.753   4.958 -0.1508  0.2785  0.3643
17485TIP3   OH273869   3.874   5.089   2.395  0.1392  0.0518  0.4792
17485TIP3    H173870   3.821   5.162   2.424  0.3644  0.8320 -0.9735
17485TIP3    H273871   3.879   5.031   2.471 -1.8204  0.4947  0.9931
17486TIP3   OH273872   1.288   0.429   3.486  0.0102  0.2767 -0.4973
17486TIP3    H173873   1.281   0.522   3.511  3.2352  0.5692 -0.3522
17486TIP3    H273874   1.310   0.431   3.393 -0.4550 -0.4047 -0.6295
17487TIP3   OH273875   6.101   1.026  15.180  0.0606  0.1234 -0.1604
17487TIP3    H173876   6.063   1.112  15.164 -2.9836 -0.9077  0.7057
17487TIP3    H273877   6.083   1.009  15.273  1.5550 -1.0436 -0.0379
17488TIP3   OH273878   1.138   3.664   1.078  0.2492  0.8567 -1.1527
17488TIP3    H173879   1.088   3.661   0.997  0.3615  0.4356 -1.2077
17488TIP3    H273880   1.110   3.586   1.127  0.5676  0.8263 -1.0180
17489TIP3   OH273881   6.716   2.363   1.746  0.0985 -0.2652 -0.6911
17489TIP3    H173882   6.631   2.407   1.746 -0.8226 -1.9080 -1.5654
17489TIP3    H273883   6.717   2.315   1.663  1.2255 -1.4670 -0.0221
17490TIP3   OH273884   4.650   0.232  16.930 -0.1386 -0.5008  0.0595
17490TIP3    H173885   4.695   0.305  16.972 -0.1762 -0.3399 -0.1831
17490TIP3    H273886   4.557   0.257  16.932 -0.0033  0.2486 -1.5631
17491TIP3   OH273887   6.517   4.099   3.053  0.5943  0.1346 -0.5437
17491TIP3    H173888   6.551   4.058   3.132  0.1183 -0.7575 -0.7817
17491TIP3    H273889   6.498   4.189   3.078 -0.6434 -0.4384  0.7019
17492TIP3   OH273890   2.083   0.291  13.127 -0.0963  0.1016 -0.5228
17492TIP3    H173891   2.008   0.329  13.081 -0.9868 -0.5965  0.3199
17492TIP3    H273892   2.080   0.331  13.214  0.0586 -0.4975 -0.2366
17493TIP3   OH273893   3.113   6.728  15.955 -0.2153  0.3775 -0.1971
17493TIP3    H173894   3.110   6.702  16.048  0.1402 -2.2271 -0.8435
17493TIP3    H273895   3.027   6.702  15.921 -0.3544  1.3517 -0.6150
17494TIP3   OH273896   0.090   6.220  14.549  1.0667 -0.4004 -0.3843
17494TIP3    H173897   0.054   6.307  14.533  0.3449 -1.1171 -3.3389
17494TIP3    H273898   0.013   6.164  14.559  1.5156 -0.8329  0.8598
17495TIP3   OH273899   2.558   4.736   6.283  0.3819  0.3787 -0.1141
17495TIP3    H173900   2.566   4.673   6.211  0.5788 -1.0226  1.0890
17495TIP3    H273901   2.644   4.778   6.287  0.8291 -0.5461  0.1899
17496TIP3   OH273902   4.329   2.133   2.960  0.3264 -0.3067 -0.0133
17496TIP3    H173903   4.300   2.092   3.042  0.6134  0.1097  0.2989
17496TIP3    H273904   4.420   2.158   2.977 -0.0036  0.9288 -0.0139
17497TIP3   OH273905   2.749   3.155   2.309 -0.0676 -0.3407  0.1033
17497TIP3    H173906   2.666   3.197   2.290  0.6323  0.4829 -1.2437
17497TIP3    H273907   2.736   3.115   2.395 -1.9022 -0.3966 -0.1567
17498TIP3   OH273908   4.345   5.425   4.118 -0.0675 -0.6097  0.2858
17498TIP3    H173909   4.250   5.408   4.122 -0.3309  0.4292 -0.9600
17498TIP3    H273910   4.382   5.366   4.184 -1.7471  0.3064  2.1480
17499TIP3   OH273911   0.867   2.722   4.589  0.0506 -0.5181 -0.2719
17499TIP3    H173912   0.945   2.674   4.562  1.0478  0.3583  0.9203
17499TIP3    H273913   0.824   2.665   4.652  0.5656 -0.3806  0.2103
17500TIP3   OH273914   1.419   0.961  14.334 -0.0256 -0.3419  0.1195
17500TIP3    H173915   1.424   1.019  14.258 -1.0697 -0.2160  0.1381
17500TIP3    H273916   1.326   0.941  14.343  0.2880 -1.7542  0.3253
17501TIP3   OH273917   3.024   2.319   4.495 -0.1284 -0.5354  0.1036
17501TIP3    H173918   2.998   2.367   4.574  1.7338 -0.6907  0.8547
17501TIP3    H273919   2.979   2.365   4.423  0.5648  1.5360  0.9229
17502TIP3   OH273920   6.580   0.784   2.502 -0.3188  0.1624  0.0134
17502TIP3    H173921   6.610   0.873   2.521 -0.8440  0.2511  0.4240
17502TIP3    H273922   6.578   0.779   2.406 -0.2454  0.5749 -0.0084
17503TIP3   OH273923   0.449   5.913  11.554  0.0506  0.8603  0.0415
17503TIP3    H173924   0.441   5.913  11.650  0.1725 -1.4148  0.1002
17503TIP3    H273925   0.476   6.002  11.533  0.4605  1.3071  2.1633
17504TIP3   OH273926   0.908   0.309   3.231 -0.4053 -0.1774  0.0845
17504TIP3    H173927   0.984   0.287   3.177 -0.8481  0.7550 -0.9596
17504TIP3    H273928   0.859   0.373   3.179 -1.5198 -0.2018  1.0559
17505TIP3   OH273929   0.086   0.877  14.726  0.3880  0.8162 -0.1247
17505TIP3    H173930   0.166   0.829  14.703 -1.2988 -1.8517 -0.8824
17505TIP3    H273931   0.075   0.941  14.655  0.4640 -0.6366 -1.4997
17506TIP3   OH273932   4.892   2.349   4.473 -0.8891  0.2107  0.0585
17506TIP3    H173933   4.842   2.378   4.397 -0.5946  1.1035  0.1964
17506TIP3    H273934   4.975   2.319   4.436 -0.6892  0.7830  0.0350
17507TIP3   OH273935   3.095   3.707  17.088 -0.2067  0.2549 -0.0817
17507TIP3    H173936   3.023   3.760  17.054  0.0497 -0.2461 -1.5037
17507TIP3    H273937   3.092   3.719  17.183 -1.2274  1.4157 -0.2385
17508TIP3   OH273938   0.842   6.352  14.964  0.3903 -0.0092  0.2067
17508TIP3    H173939   0.897   6.420  14.924  2.5926  0.2018  3.2368
17508TIP3    H273940   0.894   6.272  14.959 -1.1530 -0.9916 -1.1427
17509TIP3   OH273941   2.092   0.674  14.545  0.9511  0.3672 -0.3472
17509TIP3    H173942   2.039   0.688  14.466  0.5663  0.9501  0.0090
17509TIP3    H273943   2.074   0.750  14.600  0.9102 -0.2254  0.4753
17510TIP3   OH273944   1.135   6.216   0.854 -0.2563 -0.0318 -0.0232
17510TIP3    H173945   1.098   6.152   0.793  0.9506 -0.4444 -0.3647
17510TIP3    H273946   1.184   6.162   0.917 -0.4579  0.4717  0.5745
17511TIP3   OH273947   2.088   2.069  12.281  0.2230 -0.1731 -0.2748
17511TIP3    H173948   2.176   2.063  12.318  0.5350  1.2856 -0.7163
17511TIP3    H273949   2.030   2.070  12.357  0.7206  0.7665  0.1024
17512TIP3   OH273950   4.944   6.271  16.026  0.2195 -0.2309 -0.3761
17512TIP3    H173951   4.910   6.236  16.109  1.3803 -0.5542 -0.0228
17512TIP3    H273952   4.984   6.355  16.051 -0.7668  0.4135 -0.8836
17513TIP3   OH273953   6.726   1.093   0.730 -0.2356 -0.3156 -0.5635
17513TIP3    H173954   6.693   1.182   0.733  0.0969 -0.1780 -0.9162
17513TIP3    H273955   6.721   1.068   0.637  2.6919  0.5108 -1.0575
17514TIP3   OH273956   3.447   2.004   3.020 -0.3111 -0.7105  0.6765
17514TIP3    H173957   3.363   2.042   2.994  0.2542 -0.3016 -0.6320
17514TIP3    H273958   3.454   2.024   3.113 -1.7343 -0.8883  0.8365
17515TIP3   OH273959   6.330   6.335  16.045  0.1199  0.2045  0.2855
17515TIP3    H173960   6.261   6.395  16.070 -0.1591 -0.6815  1.6986
17515TIP3    H273961   6.394   6.340  16.116  0.5541 -0.4578 -0.0463
17516TIP3   OH273962   1.416   2.828  13.077 -0.0765  0.0338 -0.0540
17516TIP3    H173963   1.415   2.923  13.072 -0.3652  0.0932  0.8112
17516TIP3    H273964   1.498   2.807  13.121  0.5501 -0.2009 -1.2917
17517TIP3   OH273965   6.579   4.055   5.270  0.2046 -0.1503  0.0966
17517TIP3    H173966   6.622   4.012   5.344  0.8359  0.1391 -0.0914
17517TIP3    H273967   6.608   4.146   5.276 -0.9594  0.2106  0.3747
17518TIP3   OH273968   2.692   4.752   5.634  0.3273 -0.0237 -0.2195
17518TIP3    H173969   2.774   4.708   5.611  0.0648 -0.2527 -0.7350
17518TIP3    H273970   2.626   4.683   5.629  0.0172  0.2794 -0.3380
17519TIP3   OH273971   1.563   0.730   4.545  0.0945 -0.1604  0.4004
17519TIP3    H173972   1.470   0.749   4.534  0.0341  0.2640  1.5002
17519TIP3    H273973   1.600   0.741   4.457 -0.6245  1.2347  0.2360
17520TIP3   OH273974   5.259   2.336   1.959  0.5575 -0.6981  0.2091
17520TIP3    H173975   5.341   2.384   1.957 -0.0251  0.3039  0.0060
17520TIP3    H273976   5.276   2.257   1.908  1.6365 -0.9192  0.8762
17521TIP3   OH273977   3.671   6.721   1.045 -0.1043  0.2559 -0.6381
17521TIP3    H173978   3.718   6.803   1.060  0.0964  0.0780 -0.2835
17521TIP3    H273979   3.698   6.665   1.117  2.2457 -1.2683 -2.5583
17522TIP3   OH273980   0.606   1.144   4.106  0.4421 -0.8029  0.4713
17522TIP3    H173981   0.553   1.217   4.074  0.1808 -0.6828  1.1669
17522TIP3    H273982   0.697   1.173   4.093  0.3396 -0.4346  0.5524
17523TIP3   OH273983   2.453   0.375  13.820  0.1996  0.0579  0.6854
17523TIP3    H173984   2.511   0.383  13.896  1.2906  1.1063 -0.2095
17523TIP3    H273985   2.397   0.301  13.840  1.5520 -0.7112  1.7965
17524TIP3   OH273986   3.106   3.957   5.359 -0.4196 -0.0795 -0.7684
17524TIP3    H173987   3.121   3.983   5.269 -0.7313 -2.7809 -1.7063
17524TIP3    H273988   3.065   4.033   5.400  0.2302  1.3942 -2.7268
17525TIP3   OH273989   5.908   5.307  14.057 -0.4590  0.1657  0.0462
17525TIP3    H173990   5.970   5.343  13.994  0.2485  1.2012  1.2611
17525TIP3    H273991   5.957   5.239  14.103 -0.7542 -0.1271 -0.0677
17526TIP3   OH273992   1.942   5.194   6.223 -0.4700  0.5174 -0.1848
17526TIP3    H173993   1.916   5.255   6.154  1.7387  2.2237  0.3945
17526TIP3    H273994   2.015   5.237   6.267 -0.6370 -1.3350  2.0738
17527TIP3   OH273995   1.279   1.911  11.877 -0.2479  0.2725 -0.4709
17527TIP3    H173996   1.312   1.858  11.805 -1.8494 -0.6475 -0.5614
17527TIP3    H273997   1.214   1.856  11.920 -0.2570  1.2948  0.8901
17528TIP3   OH273998   1.365   3.189   3.592 -0.1620  0.1723  0.2881
17528TIP3    H173999   1.338   3.191   3.500  2.7670  0.2687 -0.6669
17528TIP3    H274000   1.444   3.242   3.595  1.0463 -1.5937  2.4262
17529TIP3   OH274001   1.385   5.604  12.317 -0.3833 -0.6203  0.2582
17529TIP3    H174002   1.351   5.518  12.289 -1.2717 -0.2403  0.1283
17529TIP3    H274003   1.389   5.598  12.413  2.0242 -1.6885  0.1611
17530TIP3   OH274004   0.879   4.041  15.690 -0.7217 -0.0750  0.4133
17530TIP3    H174005   0.892   4.041  15.785  0.7851  1.6018  0.2386
17530TIP3    H274006   0.921   3.960  15.660 -0.1840 -0.0367  1.0458
17531TIP3   OH274007   0.521   5.144  15.641 -0.2771  0.3621  0.3368
17531TIP3    H174008   0.568   5.154  15.558 -0.5971 -0.8634 -0.0186
17531TIP3    H274009   0.557   5.064  15.679 -3.1399 -1.6019 -0.7350
17532TIP3   OH274010   6.113   2.545   1.855  0.0055  0.2504 -0.0455
17532TIP3    H174011   6.120   2.589   1.770 -0.7274  1.1024  0.3198
17532TIP3    H274012   6.201   2.513   1.873  0.1017 -0.2155 -1.2644
17533TIP3   OH274013   0.339   6.213  13.016 -0.1281 -0.0454 -0.9795
17533TIP3    H174014   0.329   6.302  13.051 -0.2905  0.0239 -1.1974
17533TIP3    H274015   0.307   6.156  13.086 -0.3625  0.0877 -0.9746
17534TIP3   OH274016   6.775   5.692  11.436  0.5542 -0.2007  0.0752
17534TIP3    H174017   6.774   5.599  11.458 -1.2577  0.4537  3.6241
17534TIP3    H274018   6.866   5.718  11.447  0.9712 -1.4095 -0.3073
17535TIP3   OH274019   3.067   4.262  12.738  0.0158  0.3632  0.1493
17535TIP3    H174020   3.048   4.169  12.723 -0.8644  0.3251  1.4444
17535TIP3    H274021   3.139   4.261  12.801  0.1028  0.5716  0.0539
17536TIP3   OH274022   6.381   4.338  12.338 -0.4430 -0.1395  0.2932
17536TIP3    H174023   6.464   4.329  12.291 -0.2132 -2.0890  0.9931
17536TIP3    H274024   6.314   4.315  12.274 -0.2575 -0.9768  0.3917
17537TIP3   OH274025   5.876   5.483  11.433  0.0288 -0.1245  0.4695
17537TIP3    H174026   5.822   5.475  11.512 -0.7121  0.6937  0.0598
17537TIP3    H274027   5.901   5.575  11.430 -2.0759  0.4745 -1.5804
17538TIP3   OH274028   0.990   5.842  16.644  0.0274  0.2891 -0.0282
17538TIP3    H174029   1.015   5.864  16.734  1.7465 -2.1025  0.1661
17538TIP3    H274030   0.898   5.818  16.650 -0.3279  1.7208  0.7536
17539TIP3   OH274031   3.629   4.078   3.801  0.2393  0.1182  0.1104
17539TIP3    H174032   3.639   4.093   3.707  1.0227  3.3551  0.5872
17539TIP3    H274033   3.554   4.131   3.826 -0.0360 -0.7981  1.3036
17540TIP3   OH274034   0.382   1.505   2.896 -0.2964 -0.8121  0.6081
17540TIP3    H174035   0.416   1.486   2.809 -1.9990 -0.1866 -0.2187
17540TIP3    H274036   0.308   1.563   2.882  0.6024  0.9942  2.6144
17541TIP3   OH274037   1.706   4.053  16.019  1.0281  0.2040  0.1550
17541TIP3    H174038   1.721   4.140  15.982 -0.9095  0.4710 -0.1002
17541TIP3    H274039   1.761   4.050  16.097  1.3258  1.5620  0.0118
17542TIP3   OH274040   6.623   5.075   0.763  0.3671  0.2775  0.6293
17542TIP3    H174041   6.614   5.002   0.823 -0.1238  0.5127  0.8456
17542TIP3    H274042   6.576   5.047   0.684 -2.9150  1.6396  1.8755
17543TIP3   OH274043   1.144   1.179   0.657  0.2251  0.2330  0.2530
17543TIP3    H174044   1.099   1.255   0.693 -1.4402 -2.1282  3.7576
17543TIP3    H274045   1.234   1.209   0.643 -0.4102  2.8965  1.2380
17544TIP3   OH274046   3.447   1.841  15.351  0.1780  0.0341 -0.1326
17544TIP3    H174047   3.451   1.893  15.271  2.0275 -0.5482 -0.4713
17544TIP3    H274048   3.364   1.865  15.392 -2.0592 -1.4164 -3.3833
17545TIP3   OH274049   2.777   1.070  13.194 -0.6910  0.3023  0.1600
17545TIP3    H174050   2.822   1.133  13.138  1.3901 -1.8263 -0.7118
17545TIP3    H274051   2.795   1.100  13.283 -1.9806  2.3434 -0.1975
17546TIP3   OH274052   0.042   3.502   2.001 -0.7226 -0.4922 -0.4801
17546TIP3    H174053   0.090   3.507   2.084 -0.6410  0.0766 -0.5564
17546TIP3    H274054   0.007   3.413   1.999 -2.1553  0.0028  0.9612
17547TIP3   OH274055   3.926   0.955  11.320 -0.5367  0.1431  0.1702
17547TIP3    H174056   3.988   1.021  11.289  1.2710 -1.1476  0.8409
17547TIP3    H274057   3.902   0.985  11.408 -1.5073  1.0467 -0.3812
17548TIP3   OH274058   4.443   5.026  14.984  0.4176  0.3133  0.5900
17548TIP3    H174059   4.384   5.100  14.968  1.3398  0.6060 -2.0893
17548TIP3    H274060   4.528   5.057  14.952  0.9509 -1.7099 -0.0895
17549TIP3   OH274061   4.948   1.346   5.962 -0.4588  0.1840  0.3415
17549TIP3    H174062   4.928   1.310   6.049  0.0324 -0.2379  0.2851
17549TIP3    H274063   5.016   1.411   5.978 -0.2353 -0.0262  0.2538
17550TIP3   OH274064   2.490   0.277   4.247 -1.0702  0.1534  0.1033
17550TIP3    H174065   2.567   0.304   4.297  0.5695 -1.7314 -1.2406
17550TIP3    H274066   2.453   0.204   4.296 -1.1841  0.1740  0.0493
17551TIP3   OH274067   1.138   4.461  13.904  0.1303  0.0565  0.5327
17551TIP3    H174068   1.091   4.463  13.988 -0.6333 -1.4216  0.1802
17551TIP3    H274069   1.094   4.393  13.854 -0.2460  1.7240 -1.5788
17552TIP3   OH274070   0.895   5.932   2.683  0.0634  0.1189  0.3632
17552TIP3    H174071   0.894   5.966   2.772  0.7204  0.4943  0.2327
17552TIP3    H274072   0.803   5.914   2.663 -0.0147 -0.5897  1.3446
17553TIP3   OH274073   4.714   4.564  17.008 -0.5651  0.0886 -0.4403
17553TIP3    H174074   4.764   4.522  16.937  0.5327 -1.5336  1.2147
17553TIP3    H274075   4.735   4.513  17.086  0.5907  3.4977  1.6935
17554TIP3   OH274076   3.751   6.041   2.649  0.3979  0.7703 -0.2902
17554TIP3    H174077   3.743   6.074   2.560 -1.1118 -0.5106 -0.6789
17554TIP3    H274078   3.719   6.112   2.705 -2.3665  0.2628 -1.0717
17555TIP3   OH274079   4.621   1.081  17.006 -0.3235 -0.3234  0.5148
17555TIP3    H174080   4.695   1.067  17.065 -1.6505  1.8035  2.9399
17555TIP3    H274081   4.647   1.155  16.951 -0.0449 -0.6330  0.2299
17556TIP3   OH274082   2.345   2.036  15.686 -0.1696  0.2561 -0.9036
17556TIP3    H174083   2.305   2.092  15.619 -1.4911  0.4526  0.0334
17556TIP3    H274084   2.414   2.091  15.724 -0.2450  0.5897 -1.2354
17557TIP3   OH274085   1.409   4.711  12.719 -0.5074  0.6969 -0.0082
17557TIP3    H174086   1.441   4.782  12.664  2.0908 -0.7673 -0.5480
17557TIP3    H274087   1.487   4.658  12.739 -2.3273 -2.2380  0.0201
17558TIP3   OH274088   0.001   1.056  12.198  0.0155 -0.1460  0.3046
17558TIP3    H174089   0.029   1.073  12.288  1.6814 -2.7960  0.3996
17558TIP3    H274090   0.029   1.133  12.149  0.7512  0.5296  1.7171
17559TIP3   OH274091   6.764   4.030  12.515  0.3865  0.3749 -0.4621
17559TIP3    H174092   6.831   3.962  12.515  1.2950  1.1787  1.8447
17559TIP3    H274093   6.682   3.984  12.529  0.9846 -0.3054  1.0340
17560TIP3   OH274094   3.977   4.746  14.842  0.5867 -0.3367 -0.2367
17560TIP3    H174095   3.963   4.663  14.797 -2.2276  0.3708 -0.8489
17560TIP3    H274096   3.979   4.812  14.772  0.6227  0.3360  0.3804
17561TIP3   OH274097   4.429   0.749   3.476  0.3638  0.2872  0.3955
17561TIP3    H174098   4.473   0.789   3.552 -0.4992  0.4812  0.8114
17561TIP3    H274099   4.351   0.708   3.513  1.2673 -1.9204 -0.0018
17562TIP3   OH274100   6.239   4.076  16.994 -0.2913 -0.3116  0.3401
17562TIP3    H174101   6.173   4.008  16.983 -0.5416 -0.2898  1.5307
17562TIP3    H274102   6.232   4.101  17.086  0.9455  0.1516  0.3232
17563TIP3   OH274103   4.410   4.164   1.992  0.5531  0.2126  0.2725
17563TIP3    H174104   4.350   4.225   2.034  1.2262  0.9024  0.2622
17563TIP3    H274105   4.382   4.162   1.901 -1.1830 -1.6197  0.7818
17564TIP3   OH274106   5.721   5.446  14.238  0.5721  0.4479  0.2785
17564TIP3    H174107   5.728   5.533  14.198  2.8960 -0.1170 -0.7514
17564TIP3    H274108   5.771   5.389  14.179  0.2532 -1.3275  1.6412
17565TIP3   OH274109   3.652   6.484  12.841  0.1261  0.0788  0.4674
17565TIP3    H174110   3.664   6.575  12.814 -1.7552 -0.1633 -1.4084
17565TIP3    H274111   3.651   6.434  12.759 -5.0668 -0.8023  0.7258
17566TIP3   OH274112   6.451   0.164  14.361  0.1215 -0.6640 -0.3680
17566TIP3    H174113   6.449   0.121  14.446 -0.9055 -1.6218 -0.8484
17566TIP3    H274114   6.384   0.232  14.367 -0.5769 -1.3125 -0.6894
17567TIP3   OH274115   2.281   5.341  12.981 -0.6792  0.7246 -0.5038
17567TIP3    H174116   2.237   5.423  13.005 -1.6633 -0.6281  2.8398
17567TIP3    H274117   2.368   5.348  13.020 -0.5746  0.3819 -0.6798
17568TIP3   OH274118   6.151   2.739   0.810 -0.1113  0.3436 -0.3327
17568TIP3    H174119   6.158   2.807   0.743  1.8580 -0.4120 -0.9820
17568TIP3    H274120   6.225   2.681   0.792  0.1421 -0.2048  2.1378
17569TIP3   OH274121   6.376   6.274   4.007 -0.6291 -0.1849  0.0237
17569TIP3    H174122   6.468   6.291   3.984 -0.4715  0.3374  0.9651
17569TIP3    H274123   6.326   6.336   3.956 -0.2303  1.5088  1.5851
17570TIP3   OH274124   1.643   5.722  12.888 -0.8475  0.0650  0.3321
17570TIP3    H174125   1.689   5.797  12.851 -1.9367 -0.1208 -1.5314
17570TIP3    H274126   1.651   5.732  12.982  3.9197 -0.5284  0.2172
17571TIP3   OH274127   3.513   3.237   2.819 -0.4207 -0.8565  0.3287
17571TIP3    H174128   3.551   3.255   2.905 -1.9243 -1.0944  1.0768
17571TIP3    H274129   3.507   3.142   2.815  0.7633 -0.9127 -0.5681
17572TIP3   OH274130   1.866   4.414   0.529 -0.0107 -0.2892  0.3697
17572TIP3    H174131   1.828   4.468   0.461  0.5592  0.1739  0.4061
17572TIP3    H274132   1.958   4.441   0.533  0.1224 -0.7762  0.8617
17573TIP3   OH274133   0.456   1.014  15.873 -0.3891  0.0966  0.7073
17573TIP3    H174134   0.551   1.010  15.866 -0.4618  0.5825 -0.9015
17573TIP3    H274135   0.440   1.029  15.966  1.1358  0.7149  0.9065
17574TIP3   OH274136   5.223   2.956   1.700 -0.2144  0.0707 -0.4296
17574TIP3    H174137   5.239   3.043   1.664 -0.8518 -0.1544 -1.3060
17574TIP3    H274138   5.135   2.961   1.738 -0.7590 -0.4941 -1.5478
17575TIP3   OH274139   3.049   4.638   2.884 -0.0782  0.1455 -0.0708
17575TIP3    H174140   3.024   4.557   2.840 -1.0093 -0.5363  1.6460
17575TIP3    H274141   3.052   4.615   2.977 -1.0588  2.2403  0.5328
17576TIP3   OH274142   0.170   1.505   3.265 -0.3754  0.0089  0.6492
17576TIP3    H174143   0.106   1.516   3.195 -1.0542  0.5885  1.3334
17576TIP3    H274144   0.225   1.433   3.236 -0.3494  0.5310 -0.6834
17577TIP3   OH274145   1.648   1.519  15.044 -0.3992 -0.4438  0.9288
17577TIP3    H174146   1.613   1.564  14.967 -1.0454  1.1078  2.0683
17577TIP3    H274147   1.573   1.474  15.082  0.0662 -1.7922  0.2828
17578TIP3   OH274148   1.723   3.790   2.291 -0.2841 -0.0777 -0.3792
17578TIP3    H174149   1.789   3.848   2.329 -0.1533 -1.1022  1.0594
17578TIP3    H274150   1.766   3.752   2.215  0.7270 -0.5479  0.4015
17579TIP3   OH274151   3.616   3.404   5.236  0.0250 -0.0448 -0.2357
17579TIP3    H174152   3.569   3.429   5.316  0.0542  0.1322 -0.2736
17579TIP3    H274153   3.671   3.480   5.216 -0.7592  0.3356 -1.0142
17580TIP3   OH274154   5.535   4.656   5.570 -0.6200 -0.1221 -0.5280
17580TIP3    H174155   5.477   4.719   5.527 -1.4939 -0.8048 -0.3934
17580TIP3    H274156   5.508   4.571   5.535  0.8354 -0.3969 -1.0423
17581TIP3   OH274157   5.113   4.161   0.656  0.1222 -0.2487 -0.3526
17581TIP3    H174158   5.081   4.131   0.571 -1.1690  1.0174 -0.3415
17581TIP3    H274159   5.083   4.094   0.718 -1.7468  0.4230 -0.4729
17582TIP3   OH274160   1.915   5.318   2.749  0.4606 -0.0766 -0.0307
17582TIP3    H174161   1.941   5.251   2.812  0.0776  1.0252  1.3550
17582TIP3    H274162   1.881   5.389   2.803 -0.5207  0.6374 -1.5273
17583TIP3   OH274163   5.806   4.576   3.175  0.1083 -0.1654  0.1464
17583TIP3    H174164   5.778   4.665   3.196  3.6985  1.6574 -1.8485
17583TIP3    H274165   5.759   4.555   3.094  0.2693  0.5387 -0.1395
17584TIP3   OH274166   5.439   5.466   2.107  0.3340  0.3409 -0.1530
17584TIP3    H174167   5.418   5.475   2.014 -1.5481 -0.7790  0.1276
17584TIP3    H274168   5.385   5.393   2.137  1.1290  0.4937  1.7755
17585TIP3   OH274169   3.808   6.781  10.722  0.1707 -0.2251 -0.4460
17585TIP3    H174170   3.753   6.781  10.644  0.1598  1.9091 -0.4833
17585TIP3    H274171   3.818   6.688  10.745 -1.2248 -0.7818 -1.9764
17586TIP3   OH274172   6.561   5.722  13.489  0.3675  0.1079 -0.1297
17586TIP3    H174173   6.546   5.671  13.409  2.1904 -1.1814  0.2772
17586TIP3    H274174   6.645   5.766  13.473  0.9641 -0.4889  1.1951
17587TIP3   OH274175   2.036   6.112  10.364 -0.0955  0.5101 -0.1463
17587TIP3    H174176   1.950   6.074  10.347 -0.5794  1.1411  0.7902
17587TIP3    H274177   2.018   6.194  10.408  0.9701  1.2503 -1.0265
17588TIP3   OH274178   5.429   6.422  15.051  0.0839  0.0021 -0.5207
17588TIP3    H174179   5.507   6.367  15.052  0.4080  0.4002 -2.0294
17588TIP3    H274180   5.358   6.362  15.027 -0.3323 -0.6054  1.9499
17589TIP3   OH274181   4.482   2.474  11.138  0.6084  0.8667 -0.4439
17589TIP3    H174182   4.518   2.432  11.060  1.4529 -1.5723  1.1408
17589TIP3    H274183   4.401   2.426  11.156  1.3093  0.1967  1.1084
17590TIP3   OH274184   0.063   4.806   3.164 -0.2696 -0.1496  0.0012
17590TIP3    H174185   0.122   4.735   3.189  1.3779  1.0086 -0.4498
17590TIP3    H274186   0.119   4.870   3.119 -2.2505  0.0174 -2.4276
17591TIP3   OH274187   6.152   3.256  13.076  0.4214 -0.2039  0.2328
17591TIP3    H174188   6.059   3.236  13.060  0.4661 -1.1886  1.1425
17591TIP3    H274189   6.169   3.333  13.021  0.1756 -2.4214 -3.2686
17592TIP3   OH274190   3.532   1.214  12.321 -0.3886 -0.2961  0.1617
17592TIP3    H174191   3.440   1.186  12.321 -0.1298 -1.4674  3.0480
17592TIP3    H274192   3.543   1.260  12.404  1.7781 -0.7147  0.1654
17593TIP3   OH274193   5.194   4.784   3.827 -0.1478 -0.0311 -0.2113
17593TIP3    H174194   5.160   4.744   3.747  0.6437 -0.2337 -0.4640
17593TIP3    H274195   5.118   4.796   3.883 -0.7379  0.2477 -1.0582
17594TIP3   OH274196   2.564   1.999  16.880  0.0420 -0.5957  0.1811
17594TIP3    H174197   2.520   1.996  16.795  0.9767 -0.7927 -0.3125
17594TIP3    H274198   2.524   2.073  16.925  1.3802  1.2905 -1.5064
17595TIP3   OH274199   2.659   1.296  13.985 -0.0496 -0.2367 -0.3541
17595TIP3    H174200   2.628   1.371  14.035 -0.2563 -0.8662  0.4981
17595TIP3    H274201   2.746   1.321  13.955 -0.4781  0.6905 -0.8776
17596TIP3   OH274202   2.401   4.818   3.485  0.4038  0.1185  0.2665
17596TIP3    H174203   2.363   4.739   3.446  1.1339 -0.7273  1.1951
17596TIP3    H274204   2.329   4.860   3.531  0.1353 -0.3310  0.2628
17597TIP3   OH274205   5.405   5.641   0.560 -0.5885  0.5970  0.2782
17597TIP3    H174206   5.333   5.661   0.621 -0.8967 -1.6393  0.7327
17597TIP3    H274207   5.371   5.570   0.506  0.8160  0.4237 -0.4060
17598TIP3   OH274208   3.884   2.556  11.896 -0.0818 -0.1536  0.4722
17598TIP3    H174209   3.864   2.559  11.989 -1.4472 -0.5674  0.2133
17598TIP3    H274210   3.889   2.648  11.869  2.5270  0.0554  1.3473
17599TIP3   OH274211   6.451   3.856  16.104  0.3608  0.0343  0.1145
17599TIP3    H174212   6.487   3.768  16.118 -1.8000 -0.8008  0.8434
17599TIP3    H274213   6.423   3.884  16.190 -0.6323  0.6741 -0.4075
17600TIP3   OH274214   1.445   4.033  11.370  0.5374  0.0257  0.4782
17600TIP3    H174215   1.428   4.029  11.275 -0.3733 -0.6198  0.6512
17600TIP3    H274216   1.490   3.951  11.390 -2.6867 -1.7701  1.1827
17601TIP3   OH274217   1.619   4.907  16.913 -0.6921  0.8035  0.3982
17601TIP3    H174218   1.616   4.948  17.000 -0.4007  2.2331 -0.2384
17601TIP3    H274219   1.549   4.841  16.915 -0.2056  0.2819  1.9568
17602TIP3   OH274220   0.825   5.067  10.796  0.8362 -0.8465  0.3046
17602TIP3    H174221   0.843   5.019  10.715  1.5919 -0.7416  0.3964
17602TIP3    H274222   0.899   5.127  10.804 -0.0363  0.2611  0.2509
17603TIP3   OH274223   2.240   2.206  15.025  0.7805  0.1174 -0.2272
17603TIP3    H174224   2.162   2.251  14.992 -1.1065 -2.4784  0.4501
17603TIP3    H274225   2.250   2.131  14.968  1.4401 -0.7968  1.0561
17604TIP3   OH274226   4.949   1.567   3.466  0.2533 -0.2892 -0.1351
17604TIP3    H174227   4.864   1.523   3.457  0.1783 -0.2871  0.5404
17604TIP3    H274228   4.966   1.568   3.560 -0.5445  2.5975  0.0752
17605TIP3   OH274229   1.887   0.224  15.269  0.6937 -0.1839  0.1383
17605TIP3    H174230   1.809   0.226  15.325  0.6722  1.1174  0.0954
17605TIP3    H274231   1.960   0.240  15.330  0.8406 -0.4815  0.0427
17606TIP3   OH274232   5.774   0.031  11.340  0.1371 -0.1150 -0.7434
17606TIP3    H174233   5.756   0.079  11.420  0.1651 -1.9841  0.4372
17606TIP3    H274234   5.709   0.063  11.277 -0.6344  0.5443  0.3653
17607TIP3   OH274235   0.620   0.402  13.566  0.1983  0.0379 -0.4245
17607TIP3    H174236   0.556   0.372  13.502 -1.2167  0.4209  0.7558
17607TIP3    H274237   0.586   0.486  13.597  1.0274  0.0335  0.5611
17608TIP3   OH274238   3.331   6.344  13.774 -0.6521  1.0211  0.2654
17608TIP3    H174239   3.410   6.380  13.814  0.3973  0.6028 -1.3254
17608TIP3    H274240   3.318   6.395  13.694 -1.3013  0.2975 -0.1093
17609TIP3   OH274241   0.775   5.198   2.271  0.6559  0.4301  0.1655
17609TIP3    H174242   0.863   5.168   2.291  0.9685  1.2695  0.0574
17609TIP3    H274243   0.736   5.126   2.220  1.1405 -0.0951  0.5260
17610TIP3   OH274244   2.470   5.453   5.285  0.4520 -0.0707 -0.4437
17610TIP3    H174245   2.513   5.466   5.369  1.8092  1.0743 -1.2723
17610TIP3    H274246   2.443   5.540   5.257 -0.7226 -0.5369 -0.8458
17611TIP3   OH274247   1.206   4.498  15.601 -0.6237  0.0412 -0.1321
17611TIP3    H174248   1.246   4.412  15.616  0.7459  0.9667  2.0231
17611TIP3    H274249   1.276   4.550  15.560 -0.6197  0.7713  0.7492
17612TIP3   OH274250   4.950   3.149  14.222  0.8076 -0.1276 -0.4388
17612TIP3    H174251   4.857   3.154  14.242  0.3693  0.3723 -2.3710
17612TIP3    H274252   4.955   3.092  14.145  2.0180  0.3171 -0.7159
17613TIP3   OH274253   4.012   5.620   2.870  0.3495  0.2049 -0.1322
17613TIP3    H174254   3.982   5.704   2.835 -0.0293  0.0426 -0.2069
17613TIP3    H274255   4.026   5.636   2.963  0.7041  0.4622 -0.2254
17614TIP3   OH274256   5.296   5.031   1.486 -0.9939  0.5104 -0.4216
17614TIP3    H174257   5.337   5.116   1.500  1.9384 -0.7885 -0.5518
17614TIP3    H274258   5.302   4.987   1.571 -1.4378  0.0049 -0.6443
17615TIP3   OH274259   3.701   1.702  11.515  0.0049 -0.3462 -0.5120
17615TIP3    H174260   3.693   1.718  11.421 -1.2302  3.1070  0.0200
17615TIP3    H274261   3.769   1.763  11.544  0.2807 -1.2596  0.8693
17616TIP3   OH274262   3.844   4.617  14.360 -0.2285 -0.3642 -0.3214
17616TIP3    H174263   3.759   4.631  14.318 -0.4478  1.6188  0.6380
17616TIP3    H274264   3.907   4.625  14.288 -0.7418  0.2475 -0.7167
17617TIP3   OH274265   2.800   0.266   2.748 -0.4764  0.2192  0.6775
17617TIP3    H174266   2.751   0.328   2.802 -0.7624  0.3465  0.2765
17617TIP3    H274267   2.865   0.320   2.704  0.8825 -0.1249  2.1567
17618TIP3   OH274268   3.819   2.186   4.205  0.2843  0.3210 -0.0066
17618TIP3    H174269   3.875   2.109   4.196  0.1144  0.3951 -1.9596
17618TIP3    H274270   3.841   2.221   4.292  2.6671 -0.1213 -0.3677
17619TIP3   OH274271   1.030   3.816   6.303  0.1189 -0.2709  0.2045
17619TIP3    H174272   1.079   3.852   6.376 -0.3162 -0.6269  0.6779
17619TIP3    H274273   1.012   3.725   6.327 -1.1672 -0.0268  0.2638
17620TIP3   OH274274   0.775   0.704  11.528 -0.2160 -0.0759 -0.8935
17620TIP3    H174275   0.834   0.724  11.601 -0.2075 -2.5475 -0.1300
17620TIP3    H274276   0.828   0.722  11.450  1.4849 -1.7965 -0.2307
17621TIP3   OH274277   6.385   2.865  12.300 -0.0166 -0.4771  0.2193
17621TIP3    H174278   6.299   2.860  12.258  0.6628  0.8076 -1.4439
17621TIP3    H274279   6.367   2.899  12.387 -1.4097 -2.5565  0.8446
17622TIP3   OH274280   0.167   5.376   1.536 -0.2895 -0.0477  0.7212
17622TIP3    H174281   0.143   5.457   1.490 -1.3299 -1.4708 -1.3607
17622TIP3    H274282   0.263   5.377   1.536 -0.0966 -1.0110 -3.6380
17623TIP3   OH274283   0.046   0.103   2.706  0.0255 -0.1883  0.0969
17623TIP3    H174284  -0.016   0.037   2.676 -0.4544  0.4826 -0.4070
17623TIP3    H274285   0.012   0.186   2.672  0.7600  0.2901  0.4955
17624TIP3   OH274286   2.745   5.359  11.642  0.6993 -0.3171  0.2243
17624TIP3    H174287   2.667   5.321  11.600  1.1411 -0.7416 -0.2283
17624TIP3    H274288   2.780   5.288  11.696 -0.0604  0.3363  1.6058
17625TIP3   OH274289   3.011   6.252  16.436 -1.4531  0.4151 -0.1986
17625TIP3    H174290   3.102   6.259  16.465 -2.5309  2.1410  3.4774
17625TIP3    H274291   3.011   6.182  16.371  2.3792  0.0045  0.0473
17626TIP3   OH274292   5.591   1.735   1.506  0.4065  0.0332  0.4098
17626TIP3    H174293   5.536   1.709   1.432  0.3981  0.4958  0.2474
17626TIP3    H274294   5.641   1.810   1.473  1.5314 -0.7128  0.3834
17627TIP3   OH274295   5.667   1.621  12.883 -0.6925 -0.1926  0.1034
17627TIP3    H174296   5.607   1.634  12.956  1.1680  0.8339  1.5313
17627TIP3    H274297   5.712   1.539  12.903  0.1724  0.3432  0.3834
17628TIP3   OH274298   3.578   0.891   0.400  0.2720  0.3587  0.6356
17628TIP3    H174299   3.551   0.857   0.486  3.2553 -1.0329  1.1367
17628TIP3    H274300   3.523   0.844   0.337 -0.4548 -0.2442  1.6862
17629TIP3   OH274301   0.701   0.984  13.497 -0.5037  0.4556  0.0467
17629TIP3    H174302   0.742   0.936  13.425  0.0655  1.8555 -0.5961
17629TIP3    H274303   0.729   0.938  13.576 -1.3850 -1.2983 -0.6091
17630TIP3   OH274304   6.564   6.346   0.925 -0.2208 -0.0048  0.6533
17630TIP3    H174305   6.583   6.439   0.915  0.9908 -0.4669 -3.0142
17630TIP3    H274306   6.478   6.344   0.967 -0.2076  2.7335  1.0051
17631TIP3   OH274307   5.817   4.264  12.673  0.3067 -0.3164 -0.2080
17631TIP3    H174308   5.735   4.217  12.686 -1.2434  2.5033  1.1117
17631TIP3    H274309   5.853   4.273  12.761  1.6350 -0.7644 -0.6794
17632TIP3   OH274310   5.663   0.930   1.556 -0.2379 -0.0923  0.2006
17632TIP3    H174311   5.610   0.891   1.626 -0.9089  3.1268  1.6629
17632TIP3    H274312   5.673   1.022   1.582  2.6386  0.3863 -2.1358
17633TIP3   OH274313   4.634   2.770  14.819  0.1952 -0.1186 -0.0565
17633TIP3    H174314   4.680   2.854  14.821  1.4385 -0.6744 -1.9006
17633TIP3    H274315   4.561   2.784  14.759 -1.0086  0.2442  1.4368
17634TIP3   OH274316   4.806   5.120   5.519 -0.4606  0.6198  0.7540
17634TIP3    H174317   4.805   5.024   5.514 -1.6132  0.6449  0.0205
17634TIP3    H274318   4.898   5.143   5.530 -0.3033 -0.6306  2.2870
17635TIP3   OH274319   0.115   2.047   2.870  0.4978 -0.4764 -0.1258
17635TIP3    H174320   0.023   2.043   2.897  0.4513  0.5746 -0.0746
17635TIP3    H274321   0.112   2.078   2.779  0.8392  2.2144  0.6671
17636TIP3   OH274322   3.493   6.284  13.071  0.6123 -0.6881  0.5122
17636TIP3    H174323   3.450   6.258  12.989  2.0522 -3.0769  0.4230
17636TIP3    H274324   3.469   6.215  13.133 -0.1567  0.8932  2.0655
17637TIP3   OH274325   4.665   5.410  16.733 -0.0385  0.7171  0.0553
17637TIP3    H174326   4.708   5.331  16.767  1.2553  1.2778 -0.2315
17637TIP3    H274327   4.592   5.376  16.681  1.1932 -0.3522 -1.0371
17638TIP3   OH274328   3.115   2.094   4.278 -0.8695 -0.4209 -0.1937
17638TIP3    H174329   3.125   2.187   4.258 -1.7109 -0.5697 -1.4640
17638TIP3    H274330   3.033   2.088   4.327 -0.6991 -0.4638  0.0838
17639TIP3   OH274331   2.932   4.488  12.432 -0.0226  0.1645 -0.0100
17639TIP3    H174332   2.892   4.510  12.516 -0.9483  0.2659 -0.4730
17639TIP3    H274333   2.911   4.396  12.417  0.9782 -0.1376  0.3182
17640TIP3   OH274334   2.368   3.510  13.722  0.1009 -0.1450  0.2777
17640TIP3    H174335   2.320   3.517  13.805 -1.7951 -0.9427 -0.7026
17640TIP3    H274336   2.331   3.433  13.679  1.5648 -0.1855 -1.0171
17641TIP3   OH274337   6.688   0.321  16.823 -0.0579 -0.5771 -0.0685
17641TIP3    H174338   6.652   0.236  16.847 -3.0440  1.4023  3.4763
17641TIP3    H274339   6.732   0.352  16.903  0.4953  1.4185 -1.0739
17642TIP3   OH274340   6.221   3.563  13.385  0.0081  0.4787  0.1275
17642TIP3    H174341   6.289   3.603  13.330 -0.1594 -1.2027 -1.3821
17642TIP3    H274342   6.146   3.622  13.377  0.0545  0.3739 -1.3367
17643TIP3   OH274343   3.232   1.291  11.249 -0.4982  0.2413  0.1096
17643TIP3    H174344   3.279   1.266  11.170 -0.5735 -0.1393  0.1841
17643TIP3    H274345   3.214   1.208  11.294 -2.1952  0.2611 -0.4555
17644TIP3   OH274346   4.596   4.038  12.922 -0.6017  0.2562 -0.1051
17644TIP3    H174347   4.506   4.026  12.951 -1.2394 -1.9747 -2.6003
17644TIP3    H274348   4.649   3.995  12.989 -1.4622  0.5665  0.7982
17645TIP3   OH274349   1.375   6.137  11.127 -0.0175 -0.4505 -0.4275
17645TIP3    H174350   1.348   6.148  11.218  2.4163 -0.0334  0.2910
17645TIP3    H274351   1.326   6.204  11.079 -0.3679  0.1636  0.7700
17646TIP3   OH274352   3.262   6.779   4.614  0.0116  0.6347  0.0612
17646TIP3    H174353   3.302   6.692   4.609 -0.7613  0.1820  1.2154
17646TIP3    H274354   3.281   6.819   4.529  1.9121  0.0300  0.1426
17647TIP3   OH274355   2.820   1.269   4.269 -0.1794  0.3633 -0.4428
17647TIP3    H174356   2.859   1.257   4.355  1.0932 -0.4793 -1.1129
17647TIP3    H274357   2.743   1.324   4.285  0.0095  0.1823  1.2232
17648TIP3   OH274358   3.215   3.824  12.831 -0.1509 -0.2003  0.6777
17648TIP3    H174359   3.151   3.891  12.809  0.2124 -0.4828 -1.4741
17648TIP3    H274360   3.209   3.815  12.927 -3.4201 -0.3266  0.5922
17649TIP3   OH274361   2.482   0.069   4.696  0.0527  0.2147  0.2360
17649TIP3    H174362   2.466  -0.022   4.721 -0.1029 -0.2409 -1.4508
17649TIP3    H274363   2.576   0.082   4.709  0.0576 -0.1477  0.5681
17650TIP3   OH274364   6.419   1.314  17.009 -0.0813 -0.4273 -0.2038
17650TIP3    H174365   6.468   1.271  17.079 -0.4833 -0.7228 -0.0972
17650TIP3    H274366   6.428   1.256  16.934 -0.5198 -0.6494 -0.0944
17651TIP3   OH274367   2.229   1.805  16.146 -0.4860  0.0626  0.1677
17651TIP3    H174368   2.139   1.776  16.159 -0.9347  0.5008 -1.6187
17651TIP3    H274369   2.264   1.744  16.080  0.5206 -0.0741  0.8075
17652TIP3   OH274370   5.334   5.230   3.926  0.3299 -0.1142 -0.1397
17652TIP3    H174371   5.383   5.151   3.904  0.5711  0.2174 -0.8505
17652TIP3    H274372   5.336   5.235   4.021  1.5157 -0.2102 -0.1532
17653TIP3   OH274373   5.369   6.025   0.403  0.3239  0.0346 -0.0390
17653TIP3    H174374   5.381   5.955   0.340  0.1776 -1.2942  1.3450
17653TIP3    H274375   5.305   6.084   0.362  0.0473 -0.9070 -1.0130
17654TIP3   OH274376   1.347   3.942  14.753  0.1395  0.0475  0.0431
17654TIP3    H174377   1.409   4.009  14.724 -1.7312  1.8354 -0.0432
17654TIP3    H274378   1.267   3.990  14.773 -0.5673 -1.8684  2.3477
17655TIP3   OH274379   4.376   0.264   0.381 -0.1704 -0.2255 -0.0116
17655TIP3    H174380   4.371   0.258   0.476  1.1261  0.1115  0.1034
17655TIP3    H274381   4.377   0.358   0.363  2.0139 -0.2210 -0.1495
17656TIP3   OH274382   3.336   6.218   1.715 -0.0329  0.0651  0.2513
17656TIP3    H174383   3.276   6.291   1.732 -0.3681 -0.2380  0.4045
17656TIP3    H274384   3.342   6.213   1.620  0.5924  0.7716  0.2491
17657TIP3   OH274385   6.048   3.512  11.564  0.0499  0.0164  0.2194
17657TIP3    H174386   6.113   3.476  11.623  1.2198  1.3527 -0.1965
17657TIP3    H274387   6.038   3.446  11.496 -1.2185 -1.4778  1.7771
17658TIP3   OH274388   5.025   3.626   5.420 -0.5241  0.1615 -0.6180
17658TIP3    H174389   5.040   3.721   5.416  4.0800 -0.2309  1.1673
17658TIP3    H274390   5.050   3.602   5.510  0.1676 -2.9038 -1.5115
17659TIP3   OH274391   3.217   2.317  15.551 -0.3725 -0.3168 -0.1708
17659TIP3    H174392   3.266   2.398  15.566 -0.0781 -0.2880 -1.2481
17659TIP3    H274393   3.134   2.330  15.596 -0.6310  0.8866 -0.9740
17660TIP3   OH274394   2.079   6.745  14.530 -0.7459  0.7942  0.5799
17660TIP3    H174395   2.108   6.664  14.572  1.5913  2.9913  3.6486
17660TIP3    H274396   2.023   6.787  14.595 -2.4672  1.4237 -1.2224
17661TIP3   OH274397   2.325   0.751   3.997 -0.0798  0.3671  0.0953
17661TIP3    H174398   2.249   0.766   3.940 -0.0313  0.9730  0.1801
17661TIP3    H274399   2.318   0.659   4.023  0.6598 -0.3235 -1.9902
17662TIP3   OH274400   2.185   4.154   3.060  0.3677  0.3856  0.1289
17662TIP3    H174401   2.254   4.097   3.026  0.2454  0.8167 -0.8794
17662TIP3    H274402   2.226   4.240   3.066  0.2952  0.3765  0.7979
17663TIP3   OH274403   4.247   5.177  14.085 -0.2912  0.3104 -0.0407
17663TIP3    H174404   4.267   5.091  14.123  0.8436  0.1213 -1.0403
17663TIP3    H274405   4.182   5.158  14.017  0.9661  0.0246 -1.2014
17664TIP3   OH274406   4.606   4.754   5.301 -0.5704 -0.1807  0.5573
17664TIP3    H174407   4.578   4.669   5.335  2.1090 -1.1260  0.5960
17664TIP3    H274408   4.668   4.732   5.231 -2.4763  1.7594 -1.9188
17665TIP3   OH274409   4.422   3.133   2.696 -0.1980  0.2745  0.4713
17665TIP3    H174410   4.430   3.051   2.646 -2.8824  1.1931 -1.7602
17665TIP3    H274411   4.499   3.184   2.671 -0.1311 -0.3484 -0.6674
17666TIP3   OH274412   1.155   0.097  14.382 -0.6882 -0.5282 -0.1406
17666TIP3    H174413   1.150   0.154  14.459  0.1077  0.7011 -0.9499
17666TIP3    H274414   1.225   0.135  14.329 -1.4008 -1.1730 -1.6026
17667TIP3   OH274415   1.618   4.625  12.445 -0.2571  0.2167  0.4794
17667TIP3    H174416   1.625   4.609  12.539  0.4785 -1.8521  0.1171
17667TIP3    H274417   1.556   4.560  12.414  0.7247 -0.1842 -0.7075
17668TIP3   OH274418   0.490   2.079   0.622  0.1663 -0.0222 -0.2127
17668TIP3    H174419   0.579   2.099   0.652  0.3608  1.2999 -1.5289
17668TIP3    H274420   0.447   2.040   0.698  1.0852  1.7199  1.2831
17669TIP3   OH274421   0.127   6.082  13.862 -0.2126 -0.1539  0.0348
17669TIP3    H174422   0.199   6.080  13.799 -0.6230  0.3829 -0.4563
17669TIP3    H274423   0.156   6.144  13.929  0.2333 -0.7419  0.3903
17670TIP3   OH274424   6.260   5.712  11.334 -0.8861 -0.4699 -0.1329
17670TIP3    H174425   6.261   5.639  11.396 -2.4187 -0.7020 -0.3491
17670TIP3    H274426   6.307   5.679  11.257  0.5575 -0.3629  0.6706
17671TIP3   OH274427   2.298   0.158   4.498  0.0234  0.3578  0.2749
17671TIP3    H174428   2.360   0.119   4.437  1.3301  2.1105  0.4061
17671TIP3    H274429   2.340   0.150   4.584 -0.6908  0.0943  0.6099
17672TIP3   OH274430   3.075   5.458  11.336 -0.0083  0.5357  0.0516
17672TIP3    H174431   3.025   5.450  11.255 -0.7218 -1.7688  0.6108
17672TIP3    H274432   3.046   5.540  11.375  0.6299  1.8651 -2.1669
17673TIP3   OH274433   0.040   2.734  11.830 -0.4482 -0.0071  0.6628
17673TIP3    H174434   0.069   2.726  11.921  1.7272  2.0495  0.2490
17673TIP3    H274435   0.069   2.821  11.803 -1.4782 -0.3593 -1.8673
17674TIP3   OH274436   0.959   0.456   0.318  0.5440 -0.3458  0.3177
17674TIP3    H174437   0.948   0.442   0.224 -2.1701 -2.0119  0.7714
17674TIP3    H274438   0.903   0.531   0.338 -0.1184 -0.9684  0.8255
17675TIP3   OH274439   4.534   4.114   3.172  0.4295 -0.4870 -0.0579
17675TIP3    H174440   4.580   4.106   3.089  0.8059  0.0375  0.1009
17675TIP3    H274441   4.509   4.024   3.194  1.8142 -0.8565  0.1084
17676TIP3   OH274442   2.468   4.896   4.500 -0.1116 -0.0011 -0.3032
17676TIP3    H174443   2.512   4.955   4.438 -0.2820 -0.9650 -1.3743
17676TIP3    H274444   2.477   4.809   4.461 -0.7825 -0.5494  0.7192
17677TIP3   OH274445   6.772   4.217  16.592  0.0043 -0.0561 -0.2695
17677TIP3    H174446   6.715   4.142  16.607 -2.9522  1.7997 -1.2837
17677TIP3    H274447   6.856   4.192  16.631 -1.7202 -2.6205  2.2065
17678TIP3   OH274448   0.190   5.667  12.589 -0.1784 -0.4678  0.5970
17678TIP3    H174449   0.282   5.641  12.599  0.8991  2.8921  0.5667
17678TIP3    H274450   0.147   5.589  12.552  2.8270 -1.8747 -0.2519
17679TIP3   OH274451   2.470   4.577   5.628 -0.0914  0.3723  0.4038
17679TIP3    H174452   2.516   4.502   5.667  0.0805  1.5742  2.6665
17679TIP3    H274453   2.378   4.560   5.646 -0.2326 -0.2140 -0.8096
17680TIP3   OH274454   2.391   3.453  15.777 -0.1826 -0.0017 -0.5439
17680TIP3    H174455   2.374   3.476  15.686 -0.6700  1.4382 -0.1281
17680TIP3    H274456   2.446   3.525  15.809  1.1255 -1.1814 -0.0554
17681TIP3   OH274457   3.707   5.297  14.634 -0.1931 -0.4911  0.5934
17681TIP3    H174458   3.639   5.354  14.598 -0.5841 -0.0362  1.9959
17681TIP3    H274459   3.786   5.349  14.632  0.1817 -1.0592 -1.1483
17682TIP3   OH274460   0.283   0.440   4.342  0.0953  0.2953 -0.3150
17682TIP3    H174461   0.276   0.535   4.336  2.0859  0.4915 -0.3564
17682TIP3    H274462   0.247   0.407   4.260  0.7039  1.1229 -0.9283
17683TIP3   OH274463   1.537   6.339  13.855  0.0371 -0.3686  0.5122
17683TIP3    H174464   1.625   6.302  13.869 -0.4352 -1.2631  1.1665
17683TIP3    H274465   1.499   6.286  13.786  0.5784  1.0296 -0.9199
17684TIP3   OH274466   6.752   6.702   3.527 -0.4443  0.0832  0.5576
17684TIP3    H174467   6.837   6.665   3.552 -0.3857 -0.4317 -0.3748
17684TIP3    H274468   6.747   6.689   3.433 -1.1450  0.9981  0.4616
17685TIP3   OH274469   1.221   0.533  15.229  0.5375 -0.5776  0.0510
17685TIP3    H174470   1.247   0.557  15.140  1.6496 -1.0743  0.2246
17685TIP3    H274471   1.158   0.462  15.217  1.1630 -1.0786 -0.3370
17686TIP3   OH274472   3.568   4.342  12.802 -0.0438  0.6862  0.0143
17686TIP3    H174473   3.589   4.435  12.808 -0.3456  0.8072 -0.7952
17686TIP3    H274474   3.552   4.326  12.709 -0.1286 -0.1457  0.1621
17687TIP3   OH274475   6.111   2.575   2.651 -0.2714  0.3293 -0.5191
17687TIP3    H174476   6.101   2.481   2.660 -0.7973  0.1309 -2.5906
17687TIP3    H274477   6.021   2.608   2.641 -0.1351  1.1347  0.7035
17688TIP3   OH274478   0.569   5.946  13.273 -0.0275  0.0964 -0.1221
17688TIP3    H174479   0.490   5.892  13.265  0.3682 -0.6428  0.8006
17688TIP3    H274480   0.641   5.887  13.255  0.3347  0.7870 -1.0266
17689TIP3   OH274481   3.535   6.547  13.847  0.4342 -0.2878 -0.2346
17689TIP3    H174482   3.520   6.639  13.871  0.0995 -0.2728 -0.4897
17689TIP3    H274483   3.607   6.519  13.903 -0.3760 -0.2780  0.8511
17690TIP3   OH274484   4.080   6.237  13.472 -0.3440  0.1807 -0.7419
17690TIP3    H174485   4.153   6.210  13.416 -1.2120  0.8878 -2.2993
17690TIP3    H274486   4.070   6.331  13.455 -1.8475  0.0319 -0.8835
17691TIP3   OH274487   1.108   4.833  16.088  0.1971  0.0760 -0.3581
17691TIP3    H174488   1.144   4.752  16.051  2.3337  1.1628 -0.8412
17691TIP3    H274489   1.106   4.816  16.183  0.3705 -0.6411 -0.4743
17692TIP3   OH274490   3.868   3.556   5.946  0.3960 -0.4074  0.5445
17692TIP3    H174491   3.941   3.493   5.940  1.1615  0.5327 -0.4330
17692TIP3    H274492   3.791   3.504   5.922  1.1119 -0.8461 -1.0042
17693TIP3   OH274493   2.439   2.180   6.123 -0.1520  0.2818 -0.1722
17693TIP3    H174494   2.515   2.132   6.155 -0.1472  0.9300  0.8257
17693TIP3    H274495   2.451   2.269   6.156 -0.3144  0.9206 -1.7329
17694TIP3   OH274496   4.447   5.807  13.542  0.3460  0.0169 -0.3685
17694TIP3    H174497   4.471   5.852  13.623  1.6986  0.0271 -0.7517
17694TIP3    H274498   4.368   5.758  13.565  0.1066  0.8439  0.6580
17695TIP3   OH274499   1.266   6.287   1.512  0.1269 -0.3534  0.2502
17695TIP3    H174500   1.328   6.317   1.578 -0.9760  0.8222  0.7957
17695TIP3    H274501   1.305   6.314   1.429  0.4760  0.1110  0.5611
17696TIP3   OH274502   1.125   1.699  16.648 -0.1511 -0.0325  0.6925
17696TIP3    H174503   1.039   1.736  16.667 -0.6502 -1.6295  1.6764
17696TIP3    H274504   1.118   1.607  16.672  0.2259 -1.5900 -4.0936
17697TIP3   OH274505   5.263   3.077  16.952 -0.2665  0.3168  0.0971
17697TIP3    H174506   5.277   3.001  17.008 -1.4146 -0.4043 -0.5287
17697TIP3    H274507   5.350   3.110  16.933  0.4623 -2.1002 -1.2517
17698TIP3   OH274508   1.731   0.231   4.012 -0.1221 -0.8017 -0.4510
17698TIP3    H174509   1.736   0.306   3.952  0.6654  1.3477  2.1325
17698TIP3    H274510   1.776   0.260   4.091 -0.0461 -3.9487  0.7996
17699TIP3   OH274511   6.169   0.790   0.389 -0.1718  0.1640 -0.7013
17699TIP3    H174512   6.219   0.708   0.390 -0.9947 -0.3694 -1.5797
17699TIP3    H274513   6.194   0.834   0.471  0.7359 -0.6795 -0.5030
17700TIP3   OH274514   5.842   6.342   3.168  0.1829 -0.0214  0.2318
17700TIP3    H174515   5.925   6.361   3.212  0.4876  1.2358 -0.8359
17700TIP3    H274516   5.852   6.252   3.138  1.1288  0.0785  0.2052
17701TIP3   OH274517   6.217   4.244  12.159  0.1811  0.2248 -0.4664
17701TIP3    H174518   6.168   4.171  12.197  0.2423  0.1700 -0.4922
17701TIP3    H274519   6.251   4.210  12.077  0.6539  0.1108 -0.2267
17702TIP3   OH274520   3.575   2.825  11.813  0.3421  0.1929  0.1037
17702TIP3    H174521   3.650   2.876  11.782  0.3504 -0.5802 -1.2284
17702TIP3    H274522   3.595   2.735  11.787 -0.4696 -0.2237  0.8776
17703TIP3   OH274523   3.450   4.373   4.697 -0.2070 -0.6698  0.0667
17703TIP3    H174524   3.535   4.362   4.742  0.2907 -1.4040 -1.0108
17703TIP3    H274525   3.461   4.326   4.614 -1.6556 -0.7070 -0.1200
17704TIP3   OH274526   4.894   6.443  12.714  0.2643 -0.3093  0.3132
17704TIP3    H174527   4.900   6.473  12.623  1.5604  0.4455  0.6156
17704TIP3    H274528   4.825   6.497  12.753  0.1656 -0.1677 -0.0592
17705TIP3   OH274529   1.571   0.426   2.112  0.1871 -0.5788  0.5135
17705TIP3    H174530   1.623   0.384   2.044 -0.7477 -0.0706 -0.5498
17705TIP3    H274531   1.491   0.374   2.116  0.1369 -0.4605  1.0667
17706TIP3   OH274532   5.954   5.970  11.936 -0.5513  0.4177  0.1031
17706TIP3    H174533   6.020   5.914  11.894  0.9981  1.0707  1.5676
17706TIP3    H274534   5.977   6.059  11.908 -1.6696  0.5524 -0.4575
17707TIP3   OH274535   1.165   2.010  16.516  0.0769 -0.0944  0.2806
17707TIP3    H174536   1.120   1.935  16.478  0.8992  0.1696 -1.3062
17707TIP3    H274537   1.256   1.981  16.525  0.2196  0.4173  0.5317
17708TIP3   OH274538   0.592   1.714  13.680 -0.1856 -0.4336  0.0792
17708TIP3    H174539   0.633   1.638  13.638 -1.4068 -1.6437  0.9620
17708TIP3    H274540   0.626   1.713  13.770  1.6737  1.5636 -0.5178
17709TIP3   OH274541   0.264   0.583  13.525  0.0050 -0.0072 -0.5502
17709TIP3    H174542   0.227   0.539  13.602 -1.9426 -1.5945 -2.2550
17709TIP3    H274543   0.199   0.648  13.501 -1.3086 -1.9994 -2.8746
17710TIP3   OH274544   4.360   4.208  10.313  0.4288 -0.2667  0.1468
17710TIP3    H174545   4.377   4.139  10.377 -0.6996  0.1703  0.9432
17710TIP3    H274546   4.333   4.160  10.234 -0.8975 -0.7440  0.8604
17711TIP3   OH274547   1.522   1.768   0.086 -0.6272  0.1787 -0.0375
17711TIP3    H174548   1.553   1.704   0.149 -1.8083 -0.1587  0.2337
17711TIP3    H274549   1.479   1.716   0.017 -1.3634  0.6410  0.0526
17712TIP3   OH274550   3.329   5.665   3.534 -0.4709 -0.5726  0.2435
17712TIP3    H174551   3.324   5.676   3.629  0.5287 -0.7755  0.3273
17712TIP3    H274552   3.324   5.571   3.521 -1.3072 -0.5047  0.0410
17713TIP3   OH274553   3.668   4.710  16.461 -0.0663  0.2097  0.0893
17713TIP3    H174554   3.729   4.659  16.407  3.9993  2.9039  1.6416
17713TIP3    H274555   3.607   4.749  16.399  1.1578 -0.8785 -1.9193
17714TIP3   OH274556   0.487   6.105   4.751  0.5506  0.0949  0.6066
17714TIP3    H174557   0.572   6.113   4.710  0.0820  0.3732 -0.3297
17714TIP3    H274558   0.432   6.170   4.707 -0.4881 -0.9590  0.2923
17715TIP3   OH274559   1.742   3.920   1.418  0.7070  0.6077  0.2225
17715TIP3    H174560   1.765   3.913   1.325  0.4425  2.8401 -0.0642
17715TIP3    H274561   1.647   3.916   1.420  0.7373 -0.0474  0.4702
17716TIP3   OH274562   4.883   1.991   1.474  0.1506 -0.4706  0.1832
17716TIP3    H174563   4.808   1.951   1.428 -0.1854 -0.8204  1.0218
17716TIP3    H274564   4.843   2.050   1.537  0.6407  0.9987 -0.8331
17717TIP3   OH274565   2.994   6.142  10.666  0.5616 -0.7633 -0.3341
17717TIP3    H174566   2.937   6.092  10.607  0.9323 -0.3757 -1.0303
17717TIP3    H274567   3.012   6.081  10.738 -0.1989 -1.1147 -0.4245
17718TIP3   OH274568   3.263   0.798  15.470 -0.6450  0.4231 -0.0333
17718TIP3    H174569   3.263   0.726  15.407 -1.2406  0.3616  0.0266
17718TIP3    H274570   3.352   0.800  15.506 -0.4559  0.1160 -0.4849
17719TIP3   OH274571   6.326   2.450   5.137 -0.3738  0.6080 -0.0345
17719TIP3    H174572   6.336   2.371   5.190 -0.3063  0.8620  0.3385
17719TIP3    H274573   6.245   2.435   5.088 -0.5573  0.4599  0.3056
17720TIP3   OH274574   0.789   4.449   3.167 -0.0617 -0.2323 -0.1125
17720TIP3    H174575   0.882   4.427   3.160  0.0227 -0.2353  0.9297
17720TIP3    H274576   0.783   4.539   3.135  0.3883 -0.0406  0.3358
17721TIP3   OH274577   1.583   2.104  11.464  0.3508  0.0593 -0.2038
17721TIP3    H174578   1.656   2.118  11.404  1.3436  1.4970  1.2851
17721TIP3    H274579   1.615   2.132  11.549 -1.9427  0.7967  0.5035
17722TIP3   OH274580   3.681   3.354   3.270 -0.0181  0.5855  0.5047
17722TIP3    H174581   3.650   3.439   3.300  0.8175  1.2393 -0.4269
17722TIP3    H274582   3.689   3.301   3.349 -0.7246  1.2996  1.0661
17723TIP3   OH274583   3.214   3.193  16.021  0.1831  0.4792  0.4487
17723TIP3    H174584   3.120   3.179  16.010  0.1359  1.6922 -1.0592
17723TIP3    H274585   3.254   3.121  15.973  0.0199  0.2338  0.6791
17724TIP3   OH274586   4.835   0.163   3.402  0.0401 -0.1278 -0.2510
17724TIP3    H174587   4.866   0.134   3.316 -1.2655  2.0155 -1.5269
17724TIP3    H274588   4.863   0.254   3.409  3.5918 -1.1924  3.3982
17725TIP3   OH274589   1.080   1.749   2.913 -0.5820  0.2235  0.2987
17725TIP3    H174590   1.157   1.770   2.966 -0.0240  0.5847 -0.6177
17725TIP3    H274591   1.065   1.828   2.861 -0.5999 -0.4080 -0.6762
17726TIP3   OH274592   3.445   4.613  11.167  0.0954 -0.5279  0.5535
17726TIP3    H174593   3.380   4.575  11.107  0.6248 -0.5921  0.0062
17726TIP3    H274594   3.453   4.549  11.237 -1.1488 -0.0704  1.1431
17727TIP3   OH274595   5.013   5.506   3.100  0.0591  0.5282  0.3271
17727TIP3    H174596   4.963   5.425   3.105  1.5457 -0.8454 -3.2768
17727TIP3    H274597   5.098   5.485   3.139 -0.0098  0.8185  0.6413
17728TIP3   OH274598   2.235   3.935  15.579 -0.4420  0.0906  0.3565
17728TIP3    H174599   2.145   3.903  15.585  0.4886 -3.2492 -1.2187
17728TIP3    H274600   2.240   3.977  15.494 -0.5116  0.3123  0.4614
17729TIP3   OH274601   6.153   6.314   6.057  0.3290  0.0574 -0.0111
17729TIP3    H174602   6.143   6.373   6.132  1.8506 -0.7888  0.9130
17729TIP3    H274603   6.067   6.313   6.016 -0.3567  1.1021  1.3067
17730TIP3   OH274604   1.121   1.896  13.164  0.0440 -0.3713 -0.5585
17730TIP3    H174605   1.182   1.863  13.098 -1.3494 -2.0952 -1.0587
17730TIP3    H274606   1.162   1.977  13.196  2.6170 -1.5026 -0.7575
17731TIP3   OH274607   5.159   3.904   2.567  1.2291 -0.2887  0.1067
17731TIP3    H174608   5.089   3.839   2.576  0.2374  0.9324  1.6008
17731TIP3    H274609   5.239   3.851   2.560  0.2558 -1.6998 -0.9275
17732TIP3   OH274610   0.767   0.477   4.409 -0.1365 -0.7019  0.0686
17732TIP3    H174611   0.766   0.441   4.497  1.2264  1.1722  0.9217
17732TIP3    H274612   0.859   0.493   4.390 -0.5461  0.9375 -0.8035
17733TIP3   OH274613   3.758   5.285   5.756  0.1369  0.5453 -0.1414
17733TIP3    H174614   3.710   5.223   5.811  0.3128  1.0164  0.5546
17733TIP3    H274615   3.731   5.263   5.666 -0.5336  0.0949  0.1610
17734TIP3   OH274616   5.874   3.680   0.244  1.0230 -0.0589  0.0455
17734TIP3    H174617   5.915   3.612   0.190  0.4717  0.2934 -0.8415
17734TIP3    H274618   5.933   3.690   0.318  2.3162  0.1230 -0.9818
17735TIP3   OH274619   2.410   6.742   5.878  0.1484  0.3406 -0.3788
17735TIP3    H174620   2.415   6.717   5.971 -0.5285  0.5208 -0.2913
17735TIP3    H274621   2.492   6.789   5.862 -0.1153  1.0720  0.3583
17736TIP3   OH274622   4.112   0.404   2.641  0.7490  0.2667 -0.4178
17736TIP3    H174623   4.180   0.466   2.616 -0.5567  0.8955 -2.7111
17736TIP3    H274624   4.125   0.329   2.582 -0.0501  0.0536 -0.3369
17737TIP3   OH274625   4.273   5.393  14.256  0.1735 -0.2074  0.0631
17737TIP3    H174626   4.303   5.355  14.338 -0.5061 -0.4904  0.1853
17737TIP3    H274627   4.230   5.321  14.210 -4.3310  1.0277  1.8277
17738TIP3   OH274628   4.399   2.741  15.377  0.5604 -0.4318  0.5623
17738TIP3    H174629   4.350   2.816  15.410 -0.3072 -0.1721 -1.1628
17738TIP3    H274630   4.345   2.665  15.397  0.9612 -0.5069  1.4103
17739TIP3   OH274631   0.280   4.188   1.044 -0.0409 -0.6924  0.6365
17739TIP3    H174632   0.241   4.208   1.129 -0.6587  0.1377  0.1672
17739TIP3    H274633   0.314   4.099   1.053 -2.7968 -1.8260  0.8060
17740TIP3   OH274634   2.529   3.428   4.559 -0.6422 -0.3120 -0.0702
17740TIP3    H174635   2.563   3.442   4.648 -2.2678  1.0816  0.3711
17740TIP3    H274636   2.560   3.504   4.510 -0.0720 -0.8914 -0.6355
17741TIP3   OH274637   3.363   4.956   2.791  0.2787 -0.4386  0.4160
17741TIP3    H174638   3.325   5.040   2.814 -1.1185 -0.2989 -2.0847
17741TIP3    H274639   3.385   4.964   2.698 -0.5291 -3.0409 -0.0795
17742TIP3   OH274640   3.333   3.548  14.240  0.3040 -0.3474 -0.1228
17742TIP3    H174641   3.420   3.527  14.273  1.3874 -0.1975 -2.7006
17742TIP3    H274642   3.300   3.465  14.205 -0.1338 -0.1652 -0.1445
17743TIP3   OH274643   4.118   3.056  16.528 -0.0718  0.0026 -0.3577
17743TIP3    H174644   4.061   3.074  16.453  0.2364 -1.3421 -0.9322
17743TIP3    H274645   4.057   3.035  16.600 -0.3846 -3.0157 -1.3621
17744TIP3   OH274646   2.567   1.710  16.870 -0.2099 -0.2354  0.3172
17744TIP3    H174647   2.553   1.802  16.894  0.6815  0.2255 -0.8775
17744TIP3    H274648   2.582   1.666  16.954 -1.4843  0.5365  0.9848
17745TIP3   OH274649   3.416   0.064  16.045 -0.0542  0.2093  0.5429
17745TIP3    H174650   3.426   0.156  16.023 -1.5364  0.5627  1.2417
17745TIP3    H274651   3.322   0.047  16.040  0.3414 -1.8620 -1.7805
17746TIP3   OH274652   3.079   4.072   1.726  0.1707 -0.1885 -0.3969
17746TIP3    H174653   3.056   4.090   1.817  0.8580 -3.2404  0.5118
17746TIP3    H274654   3.002   4.100   1.675 -0.4596  1.0332  1.1749
17747TIP3   OH274655   5.404   2.045   3.970  0.3070 -0.0233 -0.5194
17747TIP3    H174656   5.462   1.971   3.955  1.3317  0.5273  0.5744
17747TIP3    H274657   5.367   2.030   4.057  2.0166  1.6430  0.5914
17748TIP3   OH274658   0.777   1.875  16.285 -0.1145  0.7040 -0.2829
17748TIP3    H174659   0.779   1.805  16.350 -0.1756  0.4282 -0.5771
17748TIP3    H274660   0.868   1.885  16.257 -0.1816  0.3808 -0.6229
17749TIP3   OH274661   5.471   1.762   2.436  0.3766  0.5716  0.3620
17749TIP3    H174662   5.392   1.722   2.399  0.5035 -0.5511  1.2662
17749TIP3    H274663   5.543   1.709   2.402  0.6789  1.0342  0.2708
17750TIP3   OH274664   3.652   3.883   3.112 -0.2392 -0.1347  0.3514
17750TIP3    H174665   3.691   3.798   3.129 -1.2521 -0.7667 -0.4050
17750TIP3    H274666   3.661   3.895   3.017  0.0734  0.7021  0.4733
17751TIP3   OH274667   0.125   6.565  15.048  0.6566 -0.0063 -0.2216
17751TIP3    H174668   0.168   6.644  15.083 -0.2547  1.4238 -2.1780
17751TIP3    H274669   0.174   6.544  14.969  1.4179 -1.9803  0.7006
17752TIP3   OH274670   5.463   5.919  13.980 -0.4457  0.1619 -0.8111
17752TIP3    H174671   5.454   5.826  13.957 -0.1496 -0.2819  0.7249
17752TIP3    H274672   5.375   5.955  13.969 -0.9118 -0.6685  0.0131
17753TIP3   OH274673   0.827   2.941   3.991  0.3068  0.2324  0.5172
17753TIP3    H174674   0.743   2.924   4.034  0.7597 -1.7207  0.7621
17753TIP3    H274675   0.808   2.935   3.897 -0.1672  1.7247  0.5041
17754TIP3   OH274676   5.646   4.858   5.734  0.1614  0.7186 -0.0152
17754TIP3    H174677   5.734   4.857   5.696 -0.0632 -1.4863 -0.6061
17754TIP3    H274678   5.600   4.786   5.690 -0.8836 -0.3814  2.6554
17755TIP3   OH274679   6.277   5.380  12.842  0.5246  0.4466  0.6619
17755TIP3    H174680   6.190   5.412  12.818  0.2340 -1.2068 -0.6970
17755TIP3    H274681   6.267   5.286  12.848  1.5181  0.4440  3.7517
17756TIP3   OH274682   5.844   5.338  13.411  0.9787  0.3454  0.1973
17756TIP3    H174683   5.922   5.300  13.452  0.0123 -1.2219  0.6432
17756TIP3    H274684   5.779   5.268  13.413 -0.4088  1.5754 -0.2936
17757TIP3   OH274685   1.254   2.225   1.753 -0.0203  0.7320  0.1536
17757TIP3    H174686   1.234   2.135   1.780  1.5915 -0.1440 -1.3035
17757TIP3    H274687   1.304   2.261   1.826 -3.3130  1.6552  2.1537
17758TIP3   OH274688   1.422   1.588  11.494 -0.4011  0.1100  0.1866
17758TIP3    H174689   1.391   1.609  11.405  3.7874 -0.0997 -1.5344
17758TIP3    H274690   1.389   1.660  11.548  0.2471  2.5363 -2.3906
17759TIP3   OH274691   3.806   3.707   1.024  0.2105  0.3512  0.0588
17759TIP3    H174692   3.858   3.627   1.032 -1.6634 -0.8838  0.5238
17759TIP3    H274693   3.828   3.759   1.101  1.7418  0.5022 -0.4565
17760TIP3   OH274694   6.679   5.611  16.627  0.2887  0.6771  0.6521
17760TIP3    H174695   6.745   5.649  16.570 -0.1916  0.0880 -0.3374
17760TIP3    H274696   6.702   5.518  16.632  0.0658  0.6396  1.0386
17761TIP3   OH274697   4.058   3.647  15.593  0.2524 -0.1865  0.3379
17761TIP3    H174698   3.966   3.634  15.570  0.1564  0.9131  0.0369
17761TIP3    H274699   4.076   3.738  15.570  1.8242 -0.7669 -0.9343
17762TIP3   OH274700   4.068   6.059   5.240 -0.7087 -0.3504 -0.4120
17762TIP3    H174701   3.973   6.066   5.245 -0.8585 -0.8570 -1.8675
17762TIP3    H274702   4.084   5.969   5.211  0.0884  0.3083 -2.1854
17763TIP3   OH274703   0.677   4.352  10.900  0.0552 -0.3700 -0.2623
17763TIP3    H174704   0.761   4.337  10.943  0.5324  0.2506 -0.9559
17763TIP3    H274705   0.612   4.322  10.963  0.7370  0.5118  0.9112
17764TIP3   OH274706   3.502   2.689   5.585  0.0475 -0.0159 -0.0190
17764TIP3    H174707   3.460   2.701   5.670 -1.7534 -1.0732 -0.6920
17764TIP3    H274708   3.596   2.689   5.604 -0.2359  1.7709  1.6562
17765TIP3   OH274709   2.955   3.278   2.199 -0.6716 -0.3787  0.1881
17765TIP3    H174710   2.881   3.226   2.232 -0.5221  0.3331  1.7177
17765TIP3    H274711   2.918   3.326   2.125 -1.7618 -0.0192  0.9356
17766TIP3   OH274712   3.781   1.652  16.956 -0.3304  0.1573 -0.2962
17766TIP3    H174713   3.780   1.691  16.869 -0.0587 -0.2329 -0.4727
17766TIP3    H274714   3.775   1.558  16.941 -0.7495  0.1146  0.1250
17767TIP3   OH274715   0.170   6.107  15.230  0.3123 -0.6266 -0.2511
17767TIP3    H174716   0.239   6.078  15.170  0.8043 -0.3185  0.1553
17767TIP3    H274717   0.157   6.200  15.209  1.4548 -0.1530  1.0229
17768TIP3   OH274718   1.262   6.122   6.463  0.1776 -0.2863 -0.2502
17768TIP3    H174719   1.301   6.104   6.549  0.3153  0.7116 -0.0861
17768TIP3    H274720   1.177   6.078   6.465  0.2390 -0.3839  0.3478
17769TIP3   OH274721   1.057   1.857   5.393  0.0004 -0.0369 -0.1589
17769TIP3    H174722   1.003   1.821   5.323  0.5194  0.0819 -0.6235
17769TIP3    H274723   1.029   1.810   5.472  1.0132 -1.8176 -0.8266
17770TIP3   OH274724   3.751   5.203  15.475 -0.2441  0.5423 -0.1439
17770TIP3    H174725   3.686   5.256  15.429  0.9059  1.3610 -0.8555
17770TIP3    H274726   3.776   5.135  15.412  0.3549  0.8631 -0.2580
17771TIP3   OH274727   1.013   5.235  11.819 -0.3956  0.6170 -0.0446
17771TIP3    H174728   1.060   5.300  11.871  1.1163  0.9664 -1.7410
17771TIP3    H274729   0.921   5.258  11.828  0.0281  2.2550  0.3612
17772TIP3   OH274730   2.621   4.153   3.069  0.7340 -0.3574 -0.0518
17772TIP3    H174731   2.590   4.065   3.090 -0.3704 -0.1745 -0.8399
17772TIP3    H274732   2.632   4.196   3.154  1.2114 -1.2174  0.3386
17773TIP3   OH274733   3.707   5.608   2.386 -0.0878  0.7103  0.8549
17773TIP3    H174734   3.755   5.573   2.312  0.5845  1.1440  1.0807
17773TIP3    H274735   3.697   5.702   2.367  0.9062  1.0134  1.7364
17774TIP3   OH274736   0.124   4.947   2.706  0.0870  0.2559  0.0818
17774TIP3    H174737   0.034   4.920   2.685 -0.2394  1.0172  0.4650
17774TIP3    H274738   0.168   4.866   2.731 -0.2548 -0.2587 -0.9196
17775TIP3   OH274739   6.587   3.193   5.979  0.5328 -0.1461  0.0941
17775TIP3    H174740   6.583   3.288   5.990 -3.7571 -0.3131  1.4437
17775TIP3    H274741   6.605   3.159   6.067  0.6737 -0.6669 -0.1283
17776TIP3   OH274742   5.535   5.313  16.582  0.2856 -0.8326 -0.6939
17776TIP3    H174743   5.447   5.288  16.552 -0.4939  1.6682 -0.7279
17776TIP3    H274744   5.594   5.250  16.540 -1.4539 -2.4948 -0.7878
17777TIP3   OH274745   4.474   5.631   3.282 -0.5182  0.0901  0.3016
17777TIP3    H174746   4.402   5.650   3.343 -0.7371 -1.4903  0.5776
17777TIP3    H274747   4.536   5.581   3.334  0.0957  0.1709 -0.3461
17778TIP3   OH274748   5.869   4.635   5.802 -0.0215  0.1387 -0.3274
17778TIP3    H174749   5.872   4.574   5.729  2.1004 -0.8760  0.5318
17778TIP3    H274750   5.900   4.718   5.765  0.3738 -0.1824 -0.7219
17779TIP3   OH274751   3.845   5.447   2.730  0.1801 -0.0096 -0.3997
17779TIP3    H174752   3.768   5.473   2.781  0.0823  1.2451 -1.1399
17779TIP3    H274753   3.919   5.487   2.776  0.3524 -0.7954  0.0270
17780TIP3   OH274754   5.468   1.619  16.984  0.9832 -0.3866  0.1790
17780TIP3    H174755   5.397   1.668  16.943 -0.5994 -1.0693  1.9483
17780TIP3    H274756   5.526   1.686  17.020  0.3629  0.1878  0.1252
17781TIP3   OH274757   0.817   0.226  14.318  0.0335  0.4675 -0.3928
17781TIP3    H174758   0.803   0.254  14.408 -0.1920 -1.7230  0.3201
17781TIP3    H274759   0.730   0.210  14.283  0.1476  0.7067 -0.7963
17782TIP3   OH274760   1.822   5.809  17.007  0.4843 -0.1114  0.8725
17782TIP3    H174761   1.796   5.850  17.089 -0.4048  0.1532  0.4642
17782TIP3    H274762   1.886   5.870  16.970  0.7161 -0.1170  1.2545
17783TIP3   OH274763   2.129   3.194   0.903 -0.0942 -0.2069  0.1356
17783TIP3    H174764   2.194   3.259   0.929 -0.5611  0.5506 -0.5387
17783TIP3    H274765   2.145   3.119   0.961  1.7172 -0.2492 -0.3536
17784TIP3   OH274766   5.880   4.083   0.288 -0.2486  0.8327  0.7251
17784TIP3    H174767   5.869   4.020   0.359 -0.4011 -1.3635 -1.1297
17784TIP3    H274768   5.796   4.082   0.241  0.3509  1.0350 -0.3920
17785TIP3   OH274769   0.961   1.432  16.016  0.1889 -0.5075  0.4378
17785TIP3    H174770   0.983   1.523  16.040  0.4183 -0.2282 -0.7598
17785TIP3    H274771   0.870   1.435  15.990  0.0226 -0.7548  0.9692
17786TIP3   OH274772   5.630   5.319  14.496 -0.1146  0.2326  0.2179
17786TIP3    H174773   5.687   5.343  14.423  0.8190 -0.9666  0.5244
17786TIP3    H274774   5.548   5.289  14.455  0.4429 -0.5360 -0.3523
17787TIP3   OH274775   5.142   0.621  17.141 -0.3488  0.9995  0.0991
17787TIP3    H174776   5.072   0.624  17.206 -0.3842 -1.9665  0.3536
17787TIP3    H274777   5.102   0.651  17.060 -1.3596  1.2262  0.6703
17788TIP3   OH274778   1.395   6.638   4.844 -0.3439 -0.4923 -0.1801
17788TIP3    H174779   1.329   6.612   4.908  0.7319 -0.2885  1.0344
17788TIP3    H274780   1.393   6.733   4.844 -0.2644 -0.4897 -0.3773
17789TIP3   OH274781   4.356   2.041  16.021  0.4181 -0.0772  0.1303
17789TIP3    H174782   4.264   2.068  16.018  0.7790  1.3699  1.0589
17789TIP3    H274783   4.385   2.049  15.930 -0.1202  0.3739 -0.0116
17790TIP3   OH274784   2.725   5.112   5.865  0.3160 -0.7777 -0.1047
17790TIP3    H174785   2.678   5.194   5.850  0.8556 -0.8750 -2.8510
17790TIP3    H274786   2.697   5.084   5.953 -0.6048  1.8207  0.5117
17791TIP3   OH274787   5.370   1.440   5.234 -0.2262  0.1527  0.5318
17791TIP3    H174788   5.412   1.404   5.312 -2.5067 -1.5951  1.0879
17791TIP3    H274789   5.377   1.370   5.169 -0.0186  0.8418 -0.1988
17792TIP3   OH274790   3.412   6.399   3.031 -0.5131  0.1182 -0.0161
17792TIP3    H174791   3.320   6.418   3.016 -0.6447  0.8446  1.4961
17792TIP3    H274792   3.412   6.326   3.093 -0.0622 -0.0311 -0.1837
17793TIP3   OH274793   0.206   0.030   0.659 -0.2238  0.3390  0.3243
17793TIP3    H174794   0.149   0.057   0.732 -2.1869 -0.7877 -0.6984
17793TIP3    H274795   0.210   0.107   0.602 -2.2731 -0.0770 -0.4698
17794TIP3   OH274796   4.299   0.434   2.271  0.0122 -0.5354  0.0845
17794TIP3    H174797   4.319   0.476   2.355 -0.2231  1.0526 -0.6228
17794TIP3    H274798   4.224   0.483   2.238  0.6051 -0.6034 -1.4242
17795TIP3   OH274799   4.442   5.532   1.694 -0.0169  0.0599 -0.2805
17795TIP3    H174800   4.353   5.511   1.722  0.2893  0.9456  1.5400
17795TIP3    H274801   4.458   5.620   1.729  2.3168 -0.9350  1.4834
17796TIP3   OH274802   2.075   4.225  13.825  0.6983  0.4326  0.7473
17796TIP3    H174803   2.083   4.321  13.830 -1.6317  0.7060  0.3793
17796TIP3    H274804   2.048   4.208  13.735  1.8441 -0.6879  0.5889
17797TIP3   OH274805   6.643   2.394  13.327  0.0872  0.0964  0.5024
17797TIP3    H174806   6.680   2.344  13.254 -2.2445  1.8062 -2.0608
17797TIP3    H274807   6.569   2.342  13.358 -1.0248  0.8702 -0.7380
17798TIP3   OH274808   0.770   6.016  12.839 -0.3827 -0.0742  0.3958
17798TIP3    H174809   0.824   6.026  12.918  0.8160  0.3491 -0.4579
17798TIP3    H274810   0.685   6.052  12.865 -0.9287 -2.4684  2.3744
17799TIP3   OH274811   6.219   5.299   0.010 -0.1875 -0.4447  0.4117
17799TIP3    H174812   6.212   5.308   0.105 -0.9638 -0.0460  0.3234
17799TIP3    H274813   6.283   5.229  -0.003  2.2983  1.4870  1.2100
17800TIP3   OH274814   0.571   6.038   1.602 -0.2249 -0.4046 -0.0964
17800TIP3    H174815   0.598   6.094   1.529 -1.4248 -0.6412 -0.7398
17800TIP3    H274816   0.524   6.097   1.661  0.6637 -0.2342  0.4673
17801TIP3   OH274817   0.402   3.742   3.334  0.0916 -0.4876  0.4043
17801TIP3    H174818   0.458   3.819   3.341 -1.4074  0.8270 -1.1639
17801TIP3    H274819   0.455   3.671   3.371  2.0134  1.0275  0.7631
17802TIP3   OH274820   3.788   5.331  14.974 -0.0103 -0.3531 -0.3455
17802TIP3    H174821   3.832   5.343  14.889 -0.0739  1.3052 -0.1670
17802TIP3    H274822   3.696   5.352  14.957 -0.2248 -1.0503 -0.0869
17803TIP3   OH274823   3.077   4.108   5.098 -0.0732  0.2166  0.3338
17803TIP3    H174824   3.161   4.099   5.053 -0.9023  0.1383 -1.2765
17803TIP3    H274825   3.050   4.198   5.079 -0.9543 -0.1681 -0.3049
17804TIP3   OH274826   0.671   5.570   1.015  0.0880 -0.0264  0.2535
17804TIP3    H174827   0.734   5.498   1.022  0.6468  0.5853  2.1406
17804TIP3    H274828   0.721   5.647   1.041 -1.4771  0.4397  2.0160
17805TIP3   OH274829   4.852   4.015   6.269  0.8113 -0.1950  0.5419
17805TIP3    H174830   4.855   4.062   6.353 -0.2062  1.5936 -0.3711
17805TIP3    H274831   4.832   4.083   6.204 -0.2419 -1.8278 -0.9209
17806TIP3   OH274832   2.928   2.248  16.362 -0.4623 -0.2361 -0.0999
17806TIP3    H174833   2.877   2.167  16.362  1.5222 -1.6260  2.3401
17806TIP3    H274834   2.942   2.268  16.455  4.4076 -0.7078 -0.4655
17807TIP3   OH274835   4.147   6.708   3.418 -0.4045 -0.3602  0.4293
17807TIP3    H174836   4.112   6.746   3.337 -0.9074 -0.4626  0.5947
17807TIP3    H274837   4.127   6.773   3.486  0.7169  0.0912  0.3559
17808TIP3   OH274838   3.589   0.529   3.941  0.7062  0.0973  0.1355
17808TIP3    H174839   3.525   0.465   3.973 -0.0688  0.2135 -1.0912
17808TIP3    H274840   3.674   0.494   3.967  0.4004 -2.0698 -1.5130
17809TIP3   OH274841   0.845   4.380   3.651  0.4011 -0.0974  0.3397
17809TIP3    H174842   0.761   4.346   3.683 -1.0875  0.2997 -2.7176
17809TIP3    H274843   0.884   4.306   3.605  0.3122  0.4977 -0.7078
17810TIP3   OH274844   6.265   5.208   3.356 -0.7008  0.0661 -0.0933
17810TIP3    H174845   6.282   5.215   3.263  3.0591  0.1188  0.4340
17810TIP3    H274846   6.265   5.298   3.388 -0.2499 -0.0254  0.1774
17811TIP3   OH274847   4.439   5.511  15.174 -0.6095 -0.1191 -0.2732
17811TIP3    H174848   4.506   5.525  15.107 -0.7518  2.2772  0.0102
17811TIP3    H274849   4.480   5.452  15.237  0.6653  0.0555 -0.9043
17812TIP3   OH274850   2.878   1.347  11.951  0.1577 -0.0147 -0.2767
17812TIP3    H174851   2.916   1.362  12.037  0.5771 -0.0505 -0.4554
17812TIP3    H274852   2.885   1.431  11.906 -0.4047  0.1078 -0.1478
17813TIP3   OH274853   0.886   2.477   4.799  0.0521 -0.0875  0.4964
17813TIP3    H174854   0.871   2.405   4.737  0.4108 -0.0178  0.3243
17813TIP3    H274855   0.825   2.461   4.870  0.0506 -0.5018  0.4023
17814TIP3   OH274856   0.783   5.380  13.235  0.5576  0.0602 -0.5305
17814TIP3    H174857   0.708   5.358  13.289  0.0588 -0.8620 -1.5612
17814TIP3    H274858   0.755   5.359  13.145  1.2169  1.8802 -1.2103
17815TIP3   OH274859   1.233   4.599  11.511 -0.2074 -0.1907 -0.4219
17815TIP3    H174860   1.169   4.656  11.467 -0.3898  0.4143  0.5854
17815TIP3    H274861   1.185   4.519  11.531 -0.5588  0.1128 -0.0148
17816TIP3   OH274862   3.116   6.666  12.823 -0.3764  0.5412  0.1597
17816TIP3    H174863   3.101   6.760  12.825 -0.0829  0.5751  1.5414
17816TIP3    H274864   3.211   6.656  12.830 -0.3179  0.1396 -0.8942
17817TIP3   OH274865   4.208   0.539  13.899  0.4232 -0.0055  0.1884
17817TIP3    H174866   4.137   0.591  13.936 -1.3239 -2.1328  0.0027
17817TIP3    H274867   4.254   0.503  13.975 -1.8152 -2.5899  0.4711
17818TIP3   OH274868   2.442   1.364   4.219 -0.5008  0.3817 -0.2171
17818TIP3    H174869   2.398   1.432   4.168 -0.5313  1.4226  1.1352
17818TIP3    H274870   2.523   1.405   4.250 -0.8330  0.0482  1.1787
17819TIP3   OH274871   0.399   4.474  14.669 -0.2420 -0.2679  0.6035
17819TIP3    H174872   0.481   4.448  14.627  0.1639 -1.1987  1.9411
17819TIP3    H274873   0.418   4.560  14.707 -0.2682  0.0553 -0.0831
17820TIP3   OH274874   4.390   3.366  14.259  0.0795  0.1337  0.2361
17820TIP3    H174875   4.479   3.344  14.231  0.4385 -0.0824  1.4869
17820TIP3    H274876   4.394   3.459  14.282  0.6150 -0.3990  2.5132
17821TIP3   OH274877   6.725   3.909  14.835  0.1716 -0.5364  0.3693
17821TIP3    H174878   6.728   3.981  14.898  0.5222  0.0733 -0.3327
17821TIP3    H274879   6.751   3.832  14.885  0.3380 -0.0792  0.9961
17822TIP3   OH274880   1.745   4.212   4.465  0.5844  0.0541 -0.0130
17822TIP3    H174881   1.734   4.261   4.383 -1.6414 -0.3558 -0.0240
17822TIP3    H274882   1.696   4.263   4.530 -0.1034 -1.1045  0.4015
17823TIP3   OH274883   3.639   4.679   2.911 -0.1213  0.0374 -0.2566
17823TIP3    H174884   3.599   4.730   2.841 -2.6321 -3.1774 -1.4535
17823TIP3    H274885   3.569   4.664   2.974  0.3486 -2.1345 -0.1544
17824TIP3   OH274886   0.121   1.259   3.532 -0.2735 -0.2110  0.1711
17824TIP3    H174887   0.083   1.347   3.541 -2.8724 -1.3323  1.2170
17824TIP3    H274888   0.171   1.262   3.451 -1.0947  1.9615 -0.3196
17825TIP3   OH274889   2.193   3.217  15.776 -0.3072  0.2111 -0.2176
17825TIP3    H174890   2.255   3.283  15.742 -0.2914  0.5383  0.4370
17825TIP3    H274891   2.247   3.159  15.829 -0.6632  0.9054  0.9324
17826TIP3   OH274892   0.520   5.160   1.701  0.1977  0.4895  0.1982
17826TIP3    H174893   0.475   5.186   1.620  1.5446  0.4167 -0.5944
17826TIP3    H274894   0.474   5.208   1.770 -2.3111 -0.9891 -0.3152
17827TIP3   OH274895   2.614   6.459   5.281  0.5015 -0.2182  0.4388
17827TIP3    H174896   2.522   6.471   5.306  0.3706  0.8561 -0.4694
17827TIP3    H274897   2.623   6.510   5.201  2.4284  1.5093  1.6602
17828TIP3   OH274898   2.662   1.793  12.902  0.3076 -0.3134 -0.4209
17828TIP3    H174899   2.660   1.725  12.834  0.1103 -1.7487  0.9769
17828TIP3    H274900   2.650   1.875  12.853  1.6434 -1.1477 -2.2730
17829TIP3   OH274901   6.141   4.259   1.285 -0.4243  0.2284  0.1935
17829TIP3    H174902   6.095   4.186   1.244 -0.0349 -0.3310  0.7363
17829TIP3    H274903   6.072   4.306   1.333 -0.2854 -1.3742  2.1176
17830TIP3   OH274904   6.113   2.910   4.624 -0.3740  0.5165 -0.4017
17830TIP3    H174905   6.200   2.900   4.585  0.1817  0.8795  0.7062
17830TIP3    H274906   6.121   2.870   4.711 -1.4458  0.1569 -0.4491
17831TIP3   OH274907   6.069   3.796  13.412  0.4815  0.4515  0.0895
17831TIP3    H174908   6.083   3.881  13.369 -1.7374 -0.4231 -2.6646
17831TIP3    H274909   6.077   3.815  13.505  0.4799  3.5857 -0.4251
17832TIP3   OH274910   0.818   4.704   3.063 -0.2753 -0.1836 -0.1000
17832TIP3    H174911   0.777   4.772   3.116 -0.5678 -1.5808  1.5289
17832TIP3    H274912   0.792   4.725   2.973 -3.1923 -0.0363  0.6885
17833TIP3   OH274913   0.256   0.070  12.093  0.5627  0.2124 -0.1325
17833TIP3    H174914   0.195   0.053  12.022 -0.3531  1.9593  0.1844
17833TIP3    H274915   0.332   0.110  12.051 -0.1502  1.6316 -0.1178
17834TIP3   OH274916   5.792   1.483   2.888  0.3644 -0.3393 -0.1450
17834TIP3    H174917   5.888   1.475   2.887  0.4617  0.4743 -2.2841
17834TIP3    H274918   5.776   1.575   2.908  0.0064 -0.4981  0.3245
17835TIP3   OH274919   2.859   3.965  14.802  0.0109 -0.0524  0.1558
17835TIP3    H174920   2.869   4.022  14.726  1.3629  0.1505  0.4603
17835TIP3    H274921   2.832   4.024  14.872  0.4529  0.0632  0.2343
17836TIP3   OH274922   1.168   6.142  10.815 -0.1490 -0.0284 -0.0538
17836TIP3    H174923   1.125   6.066  10.776 -0.6166 -0.2055  0.7775
17836TIP3    H274924   1.230   6.172  10.748 -0.3936 -0.7689 -0.6240
17837TIP3   OH274925   3.009   4.171  11.659 -0.1986  0.0308  0.1544
17837TIP3    H174926   3.055   4.094  11.694  0.4489  0.1899 -0.3426
17837TIP3    H274927   3.037   4.243  11.715 -2.1876 -0.3466  1.7940
17838TIP3   OH274928   5.259   0.108  12.631  0.3752 -0.6674 -0.1345
17838TIP3    H174929   5.223   0.194  12.609 -0.6922 -1.3173 -1.0786
17838TIP3    H274930   5.326   0.125  12.697 -0.1534  0.8277  0.0381
17839TIP3   OH274931   0.358   1.219   5.827 -0.5926  0.6528 -0.2160
17839TIP3    H174932   0.287   1.155   5.827 -1.2971  1.4083 -0.5995
17839TIP3    H274933   0.438   1.167   5.826 -1.1092 -0.2293  1.4091
17840TIP3   OH274934   4.570   6.132   2.391 -0.0988 -0.0177 -0.7712
17840TIP3    H174935   4.562   6.121   2.486 -1.1046 -1.4856 -0.9962
17840TIP3    H274936   4.507   6.070   2.354  0.6516  0.1471 -2.4190
17841TIP3   OH274937   3.283   2.520   4.564  0.0015 -0.1478 -0.4863
17841TIP3    H174938   3.225   2.443   4.569  0.6563 -0.5880  0.6276
17841TIP3    H274939   3.338   2.503   4.488  0.0204 -0.6966 -0.3533
17842TIP3   OH274940   2.203   4.755  11.473 -0.2712 -0.1364 -0.3321
17842TIP3    H174941   2.182   4.668  11.509 -0.2127  0.1134  0.3232
17842TIP3    H274942   2.164   4.816  11.536  1.1862  0.3320  0.1472
17843TIP3   OH274943   1.157   3.252   1.036 -0.3849 -0.2326  0.1482
17843TIP3    H174944   1.217   3.209   0.975  0.9968  1.2456  0.4012
17843TIP3    H274945   1.212   3.313   1.086 -1.7851 -0.1170  1.6617
17844TIP3   OH274946   6.036   4.439  15.265  0.4591 -0.1780  0.7852
17844TIP3    H174947   6.090   4.516  15.281  0.5343 -0.0140 -0.1795
17844TIP3    H274948   6.043   4.424  15.170  0.5893 -1.4743  0.9812
17845TIP3   OH274949   1.732   1.696   4.863 -0.4005  0.2108  0.0197
17845TIP3    H174950   1.751   1.781   4.824 -1.1535  0.2361 -0.2992
17845TIP3    H274951   1.721   1.715   4.956 -1.4645  0.6128 -0.1783
17846TIP3   OH274952   2.317   0.048   1.370 -0.2818  0.0742  0.6758
17846TIP3    H174953   2.246  -0.001   1.329 -0.6954  1.1636  0.0332
17846TIP3    H274954   2.285   0.138   1.375 -0.3472 -0.0288  3.6905
17847TIP3   OH274955   4.453   5.579   2.511 -0.3176 -0.1360  0.6063
17847TIP3    H174956   4.406   5.604   2.591 -0.3714  0.4166  0.4037
17847TIP3    H274957   4.545   5.597   2.531 -0.2024 -0.9970  0.9180
17848TIP3   OH274958   4.652   4.801  12.842  0.2668 -0.3953 -0.0457
17848TIP3    H174959   4.669   4.710  12.864  0.6626 -0.4863 -0.6841
17848TIP3    H274960   4.557   4.808  12.837  0.2246 -1.4784 -2.6995
17849TIP3   OH274961   3.770   3.363  14.718 -0.1206  0.3222  0.1814
17849TIP3    H174962   3.708   3.300  14.756  0.8598 -1.5467 -1.1787
17849TIP3    H274963   3.808   3.317  14.643  1.6994  2.0273 -0.0097
17850TIP3   OH274964   1.198   6.540   4.659  0.4013  0.7196  0.0236
17850TIP3    H174965   1.277   6.544   4.713 -0.6713 -0.1052  1.7520
17850TIP3    H274966   1.223   6.486   4.584  1.8984  1.7716 -0.2702
17851TIP3   OH274967   0.010   5.933   0.751  0.2888  0.4408 -0.3171
17851TIP3    H174968   0.085   5.948   0.809  0.1045 -0.8680  0.3106
17851TIP3    H274969  -0.031   6.019   0.742  0.2838  0.6774  1.5676
17852TIP3   OH274970   3.047   4.318  15.701 -0.1461  0.0897  0.2900
17852TIP3    H174971   2.987   4.391  15.684  0.9908  1.2482  1.0325
17852TIP3    H274972   3.112   4.354  15.761  2.0124 -0.7210 -1.4176
17853TIP3   OH274973   4.843   4.880  17.128 -0.2454 -0.0158  0.1277
17853TIP3    H174974   4.763   4.857  17.080 -0.6640 -0.1491  0.8827
17853TIP3    H274975   4.835   4.974  17.144 -0.2048 -0.0114  0.1230
17854TIP3   OH274976   2.835   2.535  13.052 -0.3029  0.5255 -0.5487
17854TIP3    H174977   2.780   2.517  13.128  2.1285  0.2972  1.2896
17854TIP3    H274978   2.821   2.627  13.033 -1.6310  0.3682 -0.4509
17855TIP3   OH274979   6.751   2.288  15.868  0.1516  0.3408  0.0167
17855TIP3    H174980   6.821   2.225  15.854  0.0832 -0.2495  2.0216
17855TIP3    H274981   6.709   2.260  15.949 -2.1455  0.9453 -0.8911
17856TIP3   OH274982   1.565   0.443  14.543 -0.3732 -0.1988  0.6776
17856TIP3    H174983   1.599   0.353  14.540 -0.1475 -0.1644  1.8462
17856TIP3    H274984   1.571   0.473  14.452 -0.7167 -1.4568  0.2155
17857TIP3   OH274985   1.613   0.962  13.623  0.2979  0.1897 -0.1383
17857TIP3    H174986   1.534   0.987  13.669  0.5111  0.4304  0.1018
17857TIP3    H274987   1.626   1.031  13.558 -1.2847 -1.3045 -2.1871
17858TIP3   OH274988   3.052   2.978   5.685 -0.2667  0.0979  0.4375
17858TIP3    H174989   3.137   2.999   5.722 -0.9336 -0.7911  2.5947
17858TIP3    H274990   2.989   3.004   5.752 -1.7789  1.3341 -1.3647
17859TIP3   OH274991   2.734   5.481  16.082  0.1740  0.6089  0.2346
17859TIP3    H174992   2.825   5.473  16.055  0.2577 -0.6663  0.8362
17859TIP3    H274993   2.685   5.485  16.000  0.6930  0.2633 -0.0997
17860TIP3   OH274994   2.495   1.318   3.006 -0.2843  0.1506  0.0197
17860TIP3    H174995   2.467   1.359   3.088 -1.2680 -2.0832  0.8546
17860TIP3    H274996   2.590   1.311   3.014 -0.5029 -1.4719  1.7113
17861TIP3   OH274997   3.662   4.986  13.509 -0.3997 -0.8357  0.3220
17861TIP3    H174998   3.618   4.967  13.593  0.2707 -1.4524  0.5486
17861TIP3    H274999   3.711   4.906  13.490 -0.3222 -0.5892 -0.5226
17862TIP3   OH275000   2.942   0.564  16.069 -0.2550  0.4584  0.3932
17862TIP3    H175001   2.861   0.613  16.055 -0.0470  0.7189  0.0633
17862TIP3    H275002   3.001   0.628  16.108  0.0397  0.4975 -0.0996
17863TIP3   OH275003   4.694   5.451  13.489  0.2375  0.0658  0.7034
17863TIP3    H175004   4.716   5.536  13.451  0.8979 -0.3847  0.0662
17863TIP3    H275005   4.777   5.404  13.494  0.1204 -0.0238  2.3899
17864TIP3   OH275006   2.156   0.423  11.934  0.1760 -0.0343  0.5364
17864TIP3    H175007   2.164   0.430  11.839 -1.4979 -0.0738  0.3731
17864TIP3    H275008   2.245   0.404  11.963  0.5490 -1.1155 -1.1188
17865TIP3   OH275009   1.339   5.112  17.135 -0.2549 -0.6955  0.1379
17865TIP3    H175010   1.315   5.148  17.221 -1.2604  0.5043 -0.6026
17865TIP3    H275011   1.427   5.076  17.148 -0.1623 -0.0550  1.5353
17866TIP3   OH275012   3.781   3.555  13.087  0.5659  0.4084 -0.1225
17866TIP3    H175013   3.687   3.534  13.084  0.2838  1.6008  0.1355
17866TIP3    H275014   3.811   3.540  12.997  0.2910 -0.6282 -0.0611
17867TIP3   OH275015   4.389   4.704  15.251  0.5159  0.5187 -0.3316
17867TIP3    H175016   4.473   4.749  15.261  0.0213  1.6890 -1.2751
17867TIP3    H275017   4.324   4.775  15.250 -0.7845 -0.4253  2.7551
17868TIP3   OH275018   3.124   4.730   1.078 -0.3973  0.4985  0.5823
17868TIP3    H175019   3.185   4.767   1.015 -0.1886  0.5293  0.7997
17868TIP3    H275020   3.123   4.793   1.150 -3.2025  2.2255 -0.8112
17869TIP3   OH275021   5.521   2.081   3.141  0.2298 -0.2311  0.1195
17869TIP3    H175022   5.530   2.152   3.205 -0.2696  1.0310 -1.1469
17869TIP3    H275023   5.429   2.083   3.116  0.4797 -0.4828 -0.8644
17870TIP3   OH275024   4.867   4.385   0.558  0.3087 -0.0903 -0.8290
17870TIP3    H175025   4.959   4.386   0.586  0.2505  1.0281 -0.6368
17870TIP3    H275026   4.856   4.467   0.511 -0.8635  0.2743  0.0353
17871TIP3   OH275027   5.431   6.112   4.286 -0.5441  0.1500 -0.3938
17871TIP3    H175028   5.380   6.032   4.295  0.2151 -0.2396  0.6160
17871TIP3    H275029   5.498   6.106   4.354 -0.6106  1.7473 -0.1496
17872TIP3   OH275030   2.576   4.238  12.615 -0.0027 -0.4467 -0.0641
17872TIP3    H175031   2.580   4.322  12.569 -1.4256 -1.4186 -2.1541
17872TIP3    H275032   2.511   4.251  12.684  1.1118  0.6334  0.8335
17873TIP3   OH275033   5.615   4.049  11.120  0.0973 -0.2114  0.4515
17873TIP3    H175034   5.663   3.987  11.065  1.4870  0.9654  0.2795
17873TIP3    H275035   5.523   4.031  11.101  0.4983 -1.2860 -0.6266
17874TIP3   OH275036   5.547   0.561   2.301 -0.3787 -0.2869 -0.4040
17874TIP3    H175037   5.455   0.579   2.320 -0.2370  0.3934 -0.3572
17874TIP3    H275038   5.548   0.468   2.276 -1.0832 -0.2870 -0.4581
17875TIP3   OH275039   3.700   1.203   1.823  0.1180 -0.6119  0.1631
17875TIP3    H175040   3.747   1.183   1.742  0.3595  0.4933  0.0169
17875TIP3    H275041   3.755   1.165   1.892  0.6073 -0.3984 -0.0984
17876TIP3   OH275042   0.971   0.690  13.287 -0.3320 -0.4653  0.3867
17876TIP3    H175043   0.899   0.700  13.350  0.0873 -1.4035  1.0459
17876TIP3    H275044   1.027   0.766  13.302 -0.9059 -0.0142  0.2462
17877TIP3   OH275045   2.725   3.154   5.613 -0.6032  0.2103  0.1094
17877TIP3    H175046   2.693   3.244   5.600  0.8952  0.6914 -0.4287
17877TIP3    H275047   2.686   3.104   5.542  2.2360  1.4545 -2.5814
17878TIP3   OH275048   2.814   3.789  13.346  0.5915 -0.2492 -0.2075
17878TIP3    H175049   2.784   3.794  13.255 -1.3134 -0.7722  0.3408
17878TIP3    H275050   2.861   3.871  13.361 -3.0923  2.1139 -0.3558
17879TIP3   OH275051   0.910   2.018  14.985 -0.0600 -0.3276 -0.4280
17879TIP3    H175052   0.923   2.068  14.904  0.5878 -1.0163 -0.7689
17879TIP3    H275053   0.818   1.993  14.984 -0.4657  1.1075 -0.0996
17880TIP3   OH275054   6.465   2.933  17.011 -0.0002 -0.1131 -0.4099
17880TIP3    H175055   6.527   2.999  17.042  1.3509 -0.2715 -2.6027
17880TIP3    H275056   6.507   2.849  17.031  0.7389 -0.2191 -2.2336
17881TIP3   OH275057   6.359   1.627   4.893  0.3334 -0.3398 -0.2839
17881TIP3    H175058   6.409   1.663   4.820 -0.4808 -0.4578 -0.9197
17881TIP3    H275059   6.334   1.704   4.944  3.2690 -0.4229  1.5160
17882TIP3   OH275060   0.870   3.479   5.365 -0.1111 -0.2361 -0.1671
17882TIP3    H175061   0.904   3.452   5.450  1.2076 -2.3116 -1.2717
17882TIP3    H275062   0.945   3.473   5.305 -1.4179 -0.7236 -1.8477
17883TIP3   OH275063   5.976   0.871   4.025 -0.3159 -0.5493 -0.2092
17883TIP3    H175064   6.056   0.821   4.039 -0.2427  0.0652  1.8922
17883TIP3    H275065   6.005   0.962   4.019 -0.5506 -0.5749 -2.9903
17884TIP3   OH275066   2.355   6.556  15.472  0.1079  0.7624  0.2873
17884TIP3    H175067   2.417   6.614  15.427 -0.4498  0.1465 -1.3364
17884TIP3    H275068   2.272   6.571  15.428 -0.1447 -0.9067  0.1462
17885TIP3   OH275069   3.264   2.339  16.621  0.2746 -0.0694  0.2280
17885TIP3    H175070   3.180   2.353  16.665 -0.0271 -0.5284 -0.1880
17885TIP3    H275071   3.244   2.348  16.527  0.2807 -2.0246 -0.0045
17886TIP3   OH275072   1.288   6.791  11.976  0.6161 -0.2801  0.3828
17886TIP3    H175073   1.358   6.855  11.987  0.7571 -0.7573  3.1518
17886TIP3    H275074   1.308   6.748  11.893  2.4725  0.9338  0.1323
17887TIP3   OH275075   6.443   4.858   1.648 -0.2407  0.6710  0.2833
17887TIP3    H175076   6.479   4.934   1.693 -1.7840  1.2653  0.5522
17887TIP3    H275077   6.417   4.891   1.562 -1.1431  0.5100  0.4889
17888TIP3   OH275078   2.489   6.670   2.814  0.8369  0.2279 -0.1607
17888TIP3    H175079   2.482   6.660   2.909 -3.3585  2.0160 -0.0562
17888TIP3    H275080   2.564   6.727   2.802  0.0823  1.9517  2.3553
17889TIP3   OH275081   0.634   6.469   0.587  0.0597  0.0769  0.3897
17889TIP3    H175082   0.541   6.490   0.584  0.0477 -0.0403 -0.0681
17889TIP3    H275083   0.660   6.487   0.678  0.0753  2.1106  0.0283
17890TIP3   OH275084   2.327   5.419  16.349 -0.0626 -0.2504 -0.1410
17890TIP3    H175085   2.293   5.408  16.438 -2.1139  1.9010 -0.5301
17890TIP3    H275086   2.391   5.490  16.357  1.0334 -1.2055 -0.1593
17891TIP3   OH275087   3.909   6.512  12.067  0.0382 -0.3487  0.1075
17891TIP3    H175088   3.859   6.583  12.107  1.2619 -0.4875  2.0101
17891TIP3    H275089   3.931   6.454  12.140  2.5566 -0.5282 -0.7128
17892TIP3   OH275090   6.508   3.391   3.260  0.8368 -0.3011  0.2808
17892TIP3    H175091   6.435   3.405   3.201 -0.7910 -0.0455  2.2408
17892TIP3    H275092   6.586   3.406   3.207 -0.5545  0.9358 -1.4991
17893TIP3   OH275093   4.812   5.652   5.427  0.5733 -0.3850 -0.2133
17893TIP3    H175094   4.879   5.637   5.494  0.7079 -0.7007 -0.4149
17893TIP3    H275095   4.783   5.564   5.402 -1.4418 -0.2380  1.3795
17894TIP3   OH275096   5.240   1.773  15.429 -0.4010  0.4340 -0.1659
17894TIP3    H175097   5.247   1.777  15.525 -1.7587 -0.4668 -0.0123
17894TIP3    H275098   5.254   1.863  15.401 -2.7696  1.2724  1.1043
17895TIP3   OH275099   5.675   1.118  14.002  0.6756  0.1798 -0.6206
17895TIP3    H175100   5.709   1.042  13.953  0.4653 -0.5263  0.3047
17895TIP3    H275101   5.734   1.189  13.979  1.8563 -0.6539 -0.2529
17896TIP3   OH275102   4.979   5.657   0.286 -0.1407  0.1571  0.0508
17896TIP3    H175103   5.057   5.709   0.308 -0.7537  0.3846  1.8116
17896TIP3    H275104   4.906   5.719   0.291 -0.7955 -0.6846  1.4926
17897TIP3   OH275105   6.629   5.827   5.314 -0.2206 -0.0981 -0.6882
17897TIP3    H175106   6.696   5.789   5.370  0.1229  1.1263 -0.2380
17897TIP3    H275107   6.666   5.910   5.285 -1.2058  0.2130 -1.1072
17898TIP3   OH275108   1.687   4.391  13.283 -0.0495 -0.5357 -0.1210
17898TIP3    H175109   1.653   4.401  13.372 -0.2499  1.0270 -0.3497
17898TIP3    H275110   1.658   4.304  13.256 -0.0319 -1.0092  1.3163
17899TIP3   OH275111   4.278   1.830   3.334 -0.1027  0.0823  0.7565
17899TIP3    H175112   4.194   1.803   3.370  0.1489  0.3233  1.5387
17899TIP3    H275113   4.261   1.915   3.292 -0.4450 -0.3090  0.0866
17900TIP3   OH275114   6.694   4.095  12.246  0.4342  0.0262 -0.0680
17900TIP3    H175115   6.736   4.171  12.205  0.2974  0.2405  0.1889
17900TIP3    H275116   6.734   4.089  12.333 -0.2605  0.3893  0.2763
17901TIP3   OH275117   6.732   3.197   4.855  0.0110 -0.1051  0.3646
17901TIP3    H175118   6.654   3.172   4.905 -0.1008 -1.0825 -0.2692
17901TIP3    H275119   6.792   3.123   4.866  0.1423 -0.1560 -0.5861
17902TIP3   OH275120   5.863   2.636   5.126  0.3562  0.3857  0.0367
17902TIP3    H175121   5.874   2.731   5.134  0.0850  0.7015 -2.4704
17902TIP3    H275122   5.888   2.601   5.211 -0.9441  2.8116  1.5311
17903TIP3   OH275123   4.218   2.373   3.257 -0.6802  0.5774  0.3491
17903TIP3    H175124   4.245   2.455   3.216 -0.2787  0.9787  1.3866
17903TIP3    H275125   4.141   2.396   3.309 -2.1366 -0.2307 -1.3060
17904TIP3   OH275126   1.487   4.368  15.956  0.0840 -0.0834 -0.0677
17904TIP3    H175127   1.537   4.442  15.922  0.7431 -0.7549 -0.6120
17904TIP3    H275128   1.452   4.398  16.040 -0.4540  1.1592 -0.7154
17905TIP3   OH275129   5.345   4.721   5.364  0.1549  0.1763  0.6933
17905TIP3    H175130   5.261   4.721   5.409 -0.1366  0.0071  0.1538
17905TIP3    H275131   5.358   4.630   5.338 -0.8354  0.6395 -1.6854
17906TIP3   OH275132   4.867   6.684  15.799 -0.2601 -0.0815  0.2801
17906TIP3    H175133   4.783   6.663  15.839 -0.1456  0.4804  0.8179
17906TIP3    H275134   4.849   6.759  15.742 -0.3082 -0.5331 -0.3083
17907TIP3   OH275135   2.664   4.649   3.614  0.4117 -0.3260  0.0673
17907TIP3    H175136   2.751   4.688   3.626  0.5810 -1.0596  1.4044
17907TIP3    H275137   2.637   4.677   3.526  2.5739 -1.1858 -0.9362
17908TIP3   OH275138   5.021   3.390  14.102 -0.0741 -0.3896 -0.3957
17908TIP3    H175139   4.985   3.442  14.174  0.5809 -1.5117  0.7725
17908TIP3    H275140   5.030   3.302  14.138  1.6633 -0.6598 -1.3839
17909TIP3   OH275141   0.021   1.102  15.788  0.2001  0.7099  0.1214
17909TIP3    H175142   0.056   1.030  15.839  0.8297  2.2288  1.9443
17909TIP3    H275143  -0.055   1.065  15.742  0.9878 -1.2738  0.3354
17910TIP3   OH275144   5.006   4.698   0.022 -0.2931 -0.7074  0.0161
17910TIP3    H175145   5.067   4.739   0.083  0.3723  0.0387 -1.1166
17910TIP3    H275146   4.935   4.761   0.013 -1.5437 -1.7967  1.7302
17911TIP3   OH275147   1.841   3.357   3.577 -0.4525 -0.6186  0.5657
17911TIP3    H175148   1.840   3.398   3.663 -1.4630 -0.0236  0.2885
17911TIP3    H275149   1.828   3.264   3.594  0.4979 -0.6688  1.1145
17912TIP3   OH275150   1.899   4.065  13.453  1.0760 -0.4973  0.3754
17912TIP3    H175151   1.994   4.055  13.459  1.3370  0.4581 -1.6227
17912TIP3    H275152   1.879   4.059  13.360 -1.0581 -2.3775  0.8618
17913TIP3   OH275153   3.755   6.744   1.672  0.4095  0.0141  0.3116
17913TIP3    H175154   3.718   6.662   1.638 -1.8558  0.0954  2.3154
17913TIP3    H275155   3.680   6.791   1.708  2.0425  1.7806  1.6027
17914TIP3   OH275156   2.994   0.436   4.801 -0.5656 -0.2475  0.3063
17914TIP3    H175157   2.919   0.495   4.806  0.6815  1.6247 -1.4586
17914TIP3    H275158   2.962   0.360   4.753 -1.0857  1.0289 -1.4597
17915TIP3   OH275159   2.469   2.491  12.740  0.4288  0.4416 -0.5635
17915TIP3    H175160   2.434   2.425  12.681 -0.4784 -0.9976  1.4662
17915TIP3    H275161   2.548   2.451  12.777  0.9868  1.3188 -0.7682
17916TIP3   OH275162   6.241   5.273   1.303 -0.1346  0.4100 -0.2238
17916TIP3    H175163   6.228   5.223   1.223  2.2530  0.5825 -0.7773
17916TIP3    H275164   6.194   5.355   1.288 -0.4649  0.0752 -1.0599
17917TIP3   OH275165   1.763   2.441   0.684  0.5487  0.4131 -0.0137
17917TIP3    H175166   1.731   2.530   0.666  0.7648  0.5495  0.2515
17917TIP3    H275167   1.741   2.391   0.606  2.2207  1.1755 -1.0393
17918TIP3   OH275168   1.401   4.513   2.525  0.1306  0.0303  0.1122
17918TIP3    H175169   1.346   4.590   2.512 -0.1170 -0.2769 -0.7131
17918TIP3    H275170   1.398   4.467   2.442  0.6553 -0.6329  0.4501
17919TIP3   OH275171   3.602   4.216   0.064 -0.1674 -0.3391  0.1098
17919TIP3    H175172   3.545   4.172  -0.000 -0.2165  1.4700 -1.1647
17919TIP3    H275173   3.543   4.242   0.134 -0.3942 -0.9714  0.1627
17920TIP3   OH275174   1.798   1.196  13.763 -0.3805 -0.1630  0.4810
17920TIP3    H175175   1.830   1.268  13.709  1.3521 -0.4549  1.0569
17920TIP3    H275176   1.734   1.150  13.707 -0.3217  0.8683 -0.4569
17921TIP3   OH275177   4.227   3.861  14.110  0.2053 -0.1071 -0.1734
17921TIP3    H175178   4.271   3.938  14.075  0.3671 -0.2914 -0.3728
17921TIP3    H275179   4.214   3.882  14.203 -2.4475  1.4257 -0.8016
17922TIP3   OH275180   6.244   3.286  16.911  0.4094 -0.1923 -0.0279
17922TIP3    H175181   6.314   3.292  16.976  0.2450 -2.0038  0.3986
17922TIP3    H275182   6.190   3.212  16.942 -1.3241  0.7333 -0.6927
17923TIP3   OH275183   0.466   1.575   4.756  0.1449 -0.1788 -0.6960
17923TIP3    H175184   0.458   1.662   4.796 -1.3162 -0.1199 -1.0530
17923TIP3    H275185   0.377   1.554   4.728  0.3276 -2.1530  0.0915
17924TIP3   OH275186   3.717   6.436   3.072 -0.0846  0.4571  0.5822
17924TIP3    H175187   3.714   6.356   3.125 -0.4069  2.7057  4.2745
17924TIP3    H275188   3.625   6.461   3.061 -0.1398 -0.5527 -2.3206
17925TIP3   OH275189   4.400   0.187  12.310 -0.1259  0.1636 -0.0244
17925TIP3    H175190   4.438   0.267  12.345  1.6383 -0.6267 -0.0179
17925TIP3    H275191   4.387   0.206  12.217 -0.3235  0.6660  0.1018
17926TIP3   OH275192   3.390   2.397   6.042 -0.1391  0.5897 -1.4619
17926TIP3    H175193   3.300   2.429   6.053 -1.1145 -1.5087 -2.7157
17926TIP3    H275194   3.414   2.421   5.953  0.2632  0.4984 -1.3800
17927TIP3   OH275195   2.265   4.435   3.225 -0.5459 -0.2410  0.7307
17927TIP3    H175196   2.240   4.423   3.133 -1.1762  0.1742  0.8433
17927TIP3    H275197   2.188   4.474   3.266  0.2862  1.1443  1.0654
17928TIP3   OH275198   4.130   2.802  17.149 -0.4524  0.3806 -0.3289
17928TIP3    H175199   4.176   2.806  17.065 -0.0792 -0.1598 -0.1542
17928TIP3    H275200   4.092   2.714  17.152 -3.7164  1.5700 -1.6148
17929TIP3   OH275201   4.963   5.572  10.189 -0.0001 -0.1397 -0.3646
17929TIP3    H175202   4.961   5.615  10.274 -0.5839  1.2703 -1.0476
17929TIP3    H275203   4.939   5.481  10.207 -1.7255  0.4788  0.7903
17930TIP3   OH275204   3.736   0.709  16.961  0.3762  0.3683  0.2276
17930TIP3    H175205   3.711   0.617  16.968 -2.0639  0.9924  0.7763
17930TIP3    H275206   3.659   0.752  16.923  1.9686  2.0015 -1.3716
17931TIP3   OH275207   5.066   2.599   1.129  0.5074  0.2782  0.0894
17931TIP3    H175208   5.124   2.553   1.189  1.0572 -2.1284 -2.0999
17931TIP3    H275209   5.123   2.660   1.082  0.2505  1.4770  1.2671
17932TIP3   OH275210   1.959   4.907   3.322  0.4036  0.1971  0.3885
17932TIP3    H175211   1.983   4.858   3.401 -0.4777 -2.0211 -0.6269
17932TIP3    H275212   1.878   4.866   3.292  0.0029  1.8555 -0.9606
17933TIP3   OH275213   4.725   1.274  12.486 -0.3896  0.1542  0.7137
17933TIP3    H175214   4.768   1.189  12.481 -0.1440  0.1967  1.9094
17933TIP3    H275215   4.756   1.321  12.408  0.5094 -0.3740  0.7405
17934TIP3   OH275216   1.418   4.617  16.207  0.1432  0.2865  0.3249
17934TIP3    H175217   1.430   4.688  16.270 -0.1156 -1.2531  2.1888
17934TIP3    H275218   1.359   4.653  16.141  0.3490  1.9292  0.9921
17935TIP3   OH275219   4.107   0.117  15.390  0.5974  0.3406 -0.0542
17935TIP3    H175220   4.095   0.055  15.462  0.1310  0.1830 -0.2616
17935TIP3    H275221   4.183   0.170  15.416  0.1673  0.5769  0.7474
17936TIP3   OH275222   0.537   1.655  11.708  0.5019  0.4126 -0.4150
17936TIP3    H175223   0.559   1.562  11.708  0.0819  0.2776 -1.8487
17936TIP3    H275224   0.581   1.690  11.785  0.4953 -1.0069  0.2753
17937TIP3   OH275225   4.877   0.643  16.524 -0.0240  0.2153 -0.0634
17937TIP3    H175226   4.809   0.700  16.560  0.6442  0.6484  0.5186
17937TIP3    H275227   4.930   0.617  16.599  1.1978  0.8742 -0.6631
17938TIP3   OH275228   0.133   0.353  16.279  0.2831  0.8787 -0.0582
17938TIP3    H175229   0.045   0.333  16.248  0.8955 -0.9061 -0.7408
17938TIP3    H275230   0.122   0.370  16.373 -0.9492  1.9683 -0.3704
17939TIP3   OH275231   6.565   3.082  12.584 -0.9360  0.4139  0.4796
17939TIP3    H175232   6.527   3.160  12.544  0.9254  0.6350 -1.0285
17939TIP3    H275233   6.502   3.012  12.567 -0.7340  0.7404 -1.9963
17940TIP3   OH275234   0.130   4.568   6.102 -0.4165 -0.2622  0.0178
17940TIP3    H175235   0.181   4.487   6.094  0.3946  0.2963 -0.6045
17940TIP3    H275236   0.059   4.546   6.162 -0.8484 -1.7635 -0.9773
17941TIP3   OH275237   6.720   2.348   0.775  0.0481  0.1588 -0.3907
17941TIP3    H175238   6.636   2.303   0.783 -0.1069  0.3012 -1.1268
17941TIP3    H275239   6.707   2.430   0.822 -0.9436  1.1334 -2.2462
17942TIP3   OH275240   4.240   0.043   0.238  0.3446  0.1369  0.2627
17942TIP3    H175241   4.279   0.111   0.293  0.1207  0.1547  0.3997
17942TIP3    H275242   4.309  -0.023   0.229  0.8849  0.8108 -0.6413
17943TIP3   OH275243   6.680   5.774  12.548 -0.1081  0.3935  0.3573
17943TIP3    H175244   6.613   5.791  12.481 -0.0769  1.5243  0.6041
17943TIP3    H275245   6.761   5.762  12.498 -0.1642  0.7998  0.1680
17944TIP3   OH275246   0.138   0.908   3.758  0.3884 -0.0333 -0.5057
17944TIP3    H175247   0.102   0.826   3.790 -0.8160 -0.4399 -2.6495
17944TIP3    H275248   0.223   0.885   3.721  0.4231 -0.1626 -0.3406
17945TIP3   OH275249   4.537   2.638   4.952  0.3178  0.6057  0.2397
17945TIP3    H175250   4.522   2.557   4.902  0.9438  0.1973  0.6927
17945TIP3    H275251   4.475   2.632   5.025 -0.4517  1.1046 -0.3472
17946TIP3   OH275252   5.529   1.301   2.413  0.2036  0.0836  0.2692
17946TIP3    H175253   5.434   1.285   2.413  0.1754  0.2424  0.4735
17946TIP3    H275254   5.568   1.213   2.414  0.0956 -0.0572 -2.0785
17947TIP3   OH275255   1.445   5.255  14.061 -0.0580 -0.6077  0.2758
17947TIP3    H175256   1.445   5.350  14.052  1.2905 -0.7128 -1.2040
17947TIP3    H275257   1.358   5.235  14.095 -1.7549  0.8933 -2.6887
17948TIP3   OH275258   3.878   6.297  14.174  0.3185  0.2572 -0.3347
17948TIP3    H175259   3.965   6.315  14.207  0.8164 -0.4445 -1.2148
17948TIP3    H275260   3.887   6.215  14.126 -1.1299 -0.5619  0.7263
17949TIP3   OH275261   0.150   1.439  12.315  0.0705  0.1256  0.2650
17949TIP3    H175262   0.178   1.417  12.226 -0.4314 -0.3399  0.2159
17949TIP3    H275263   0.221   1.492  12.350 -0.1073  1.0580 -0.7270
17950TIP3   OH275264   2.826   0.224   1.888 -0.0021 -0.4182 -1.2611
17950TIP3    H175265   2.758   0.203   1.952 -0.0748  0.9350 -0.8534
17950TIP3    H275266   2.812   0.317   1.869  1.3408 -0.2852 -1.6576
17951TIP3   OH275267   5.468   3.234   2.757  0.6184 -0.1042  0.0658
17951TIP3    H175268   5.534   3.292   2.793  1.3139 -1.2923  0.7631
17951TIP3    H275269   5.385   3.279   2.771  1.1464  0.7201  0.5618
17952TIP3   OH275270   1.073   2.374   1.103 -0.0357 -0.2929  0.1949
17952TIP3    H175271   1.144   2.433   1.075 -1.2789  0.2790 -2.0315
17952TIP3    H275272   1.075   2.378   1.198  0.9475  2.1513  0.1547
17953TIP3   OH275273   6.546   1.054  13.058  0.6412 -0.0969 -0.1458
17953TIP3    H175274   6.571   0.977  13.109  1.8196  0.6223  0.4151
17953TIP3    H275275   6.464   1.029  13.016  0.3453 -1.2107  1.0114
17954TIP3   OH275276   3.813   2.045  15.209  0.2766  0.0933  0.1271
17954TIP3    H175277   3.791   1.982  15.277 -1.3554 -0.5211 -0.9065
17954TIP3    H275278   3.778   2.128  15.240  1.3022  0.2557  0.9090
17955TIP3   OH275279   6.589   2.538   3.368  0.2739 -0.2882 -0.4820
17955TIP3    H175280   6.525   2.534   3.298 -1.6555  0.5689  1.1334
17955TIP3    H275281   6.624   2.627   3.365 -0.9897  0.2784  0.5646
17956TIP3   OH275282   6.053   6.777   3.454 -0.4819 -0.2989 -0.2002
17956TIP3    H175283   6.117   6.843   3.483  0.3550 -0.3273 -1.8655
17956TIP3    H275284   6.023   6.736   3.535  0.7833  0.4953  0.7074
17957TIP3   OH275285   6.056   3.726   5.242 -0.1692  0.0884 -0.1220
17957TIP3    H175286   6.105   3.708   5.322  1.8099 -0.9902 -1.4764
17957TIP3    H275287   6.004   3.803   5.262  1.5526  0.8662  1.6683
17958TIP3   OH275288   5.302   1.830   5.015 -0.2076 -0.1723  0.0038
17958TIP3    H175289   5.252   1.871   5.086 -0.5635 -0.0733 -0.2995
17958TIP3    H275290   5.359   1.767   5.059 -1.0385 -0.7245  0.2964
17959TIP3   OH275291   2.182   3.013  15.550 -0.2779 -0.1129  0.0750
17959TIP3    H175292   2.247   3.022  15.480  0.0976 -0.1247  0.4189
17959TIP3    H275293   2.219   3.060  15.624  0.8973 -2.7694  1.3224
17960TIP3   OH275294   0.169   4.257   1.674 -0.1515 -0.3077  0.4946
17960TIP3    H175295   0.143   4.264   1.766  0.5222 -0.3446  0.6953
17960TIP3    H275296   0.257   4.296   1.671 -0.9051  1.4018 -0.4789
17961TIP3   OH275297   0.421   4.221   0.344  0.6832 -0.1381 -0.0053
17961TIP3    H175298   0.394   4.307   0.378 -1.6563 -0.3921 -0.9988
17961TIP3    H275299   0.419   4.232   0.249  0.2507 -1.3164 -0.1407
17962TIP3   OH275300   1.347   6.573  12.666 -0.2275 -0.4081  0.1967
17962TIP3    H175301   1.269   6.581  12.611  0.4347  0.4153 -0.6627
17962TIP3    H275302   1.347   6.653  12.719  0.2142 -0.2319 -0.0634
17963TIP3   OH275303   5.529   4.315  15.004 -0.2400  0.7567  0.2361
17963TIP3    H175304   5.620   4.291  14.986 -0.3553  0.9377 -0.6036
17963TIP3    H275305   5.509   4.384  14.941 -1.2382  0.0955 -0.2062
17964TIP3   OH275306   0.809   2.071  16.678 -0.0103  0.5766  0.1748
17964TIP3    H175307   0.812   2.102  16.587  4.0111 -1.0243 -0.4546
17964TIP3    H275308   0.728   2.020  16.684  0.2781 -0.4711 -3.0214
17965TIP3   OH275309   3.263   2.437  14.585  0.0896 -0.0021 -0.4498
17965TIP3    H175310   3.326   2.434  14.513 -1.4509 -0.5704 -1.8426
17965TIP3    H275311   3.217   2.519  14.573  0.8072  0.6228  0.8297
17966TIP3   OH275312   6.671   3.763   0.930  0.0676 -0.5681 -0.2901
17966TIP3    H175313   6.599   3.808   0.974 -0.2888 -0.7191 -0.7206
17966TIP3    H275314   6.737   3.831   0.917  0.0430 -0.4499  0.1859
17967TIP3   OH275315   2.211   3.820  13.685 -0.0912 -0.5796 -0.5228
17967TIP3    H175316   2.167   3.901  13.660 -0.1300  0.3494  2.2607
17967TIP3    H275317   2.213   3.768  13.604 -4.2035  0.2585 -1.4050
17968TIP3   OH275318   0.210   3.310   2.361 -0.4204 -0.1792  0.7236
17968TIP3    H175319   0.273   3.256   2.313  1.6975  1.9203  0.9263
17968TIP3    H275320   0.163   3.248   2.417 -0.7660 -2.2498 -1.6985
17969TIP3   OH275321   2.035   6.739  13.766  0.3501 -0.6239  0.6024
17969TIP3    H175322   2.028   6.673  13.697 -1.3178 -1.9300  1.9417
17969TIP3    H275323   1.944   6.764  13.786  0.8154  0.1735  1.8977
17970TIP3   OH275324   3.516   5.092  12.087  0.3001 -0.7328 -0.3805
17970TIP3    H175325   3.451   5.122  12.023  1.1627 -0.3072 -1.0859
17970TIP3    H275326   3.530   5.166  12.145  2.1033  0.1657 -1.8551
17971TIP3   OH275327   1.247   0.638  16.944 -0.0395  0.4881  0.1528
17971TIP3    H175328   1.307   0.567  16.922  0.7723  1.3482 -0.4464
17971TIP3    H275329   1.191   0.647  16.867 -0.5439  0.1155  0.4627
17972TIP3   OH275330   4.114   6.034  15.870  0.1644 -0.2802 -0.1115
17972TIP3    H175331   4.134   6.117  15.913 -0.4586  0.4201 -1.1059
17972TIP3    H275332   4.197   5.988  15.864  0.4320  0.0526  0.8906
17973TIP3   OH275333   2.094   6.055   5.579  0.0757 -0.0132 -0.1471
17973TIP3    H175334   1.999   6.047   5.582 -0.1023  0.6318 -2.4202
17973TIP3    H275335   2.116   6.044   5.487  2.1504  0.4546  0.2507
17974TIP3   OH275336   2.756   5.402  11.341 -0.6815  0.2392  0.1356
17974TIP3    H175337   2.776   5.436  11.429 -0.1488 -0.7608  0.4139
17974TIP3    H275338   2.781   5.310  11.345  0.7245  0.4969 -1.5065
17975TIP3   OH275339   3.362   1.785   4.106  0.0445  0.1055 -0.0200
17975TIP3    H175340   3.348   1.691   4.112 -1.9658  0.3744  0.2671
17975TIP3    H275341   3.362   1.815   4.196  2.1663  0.2525 -0.0112
17976TIP3   OH275342   4.598   6.539  16.848  0.4938 -0.0102 -0.6825
17976TIP3    H175343   4.686   6.506  16.832  0.1754 -1.6334  0.7367
17976TIP3    H275344   4.541   6.485  16.793  0.1587 -0.5918  0.2127
17977TIP3   OH275345   6.477   2.358   4.351  0.5351  0.0737  0.0017
17977TIP3    H175346   6.411   2.394   4.292  0.2872 -1.2157 -0.5270
17977TIP3    H275347   6.558   2.362   4.301  0.5238 -0.0268 -0.0243
17978TIP3   OH275348   1.627   1.437  16.557  0.4734 -0.1175  0.4476
17978TIP3    H175349   1.643   1.501  16.488 -0.6216 -0.7776 -0.4316
17978TIP3    H275350   1.666   1.477  16.635 -0.4153  1.7537 -0.0095
17979TIP3   OH275351   6.138   0.482  16.424 -0.1228  0.5639 -0.2205
17979TIP3    H175352   6.118   0.468  16.516  1.8255  1.0612  0.3245
17979TIP3    H275353   6.128   0.396  16.383 -0.0085  0.1234  0.6626
17980TIP3   OH275354   6.022   2.906  16.550  0.1996 -1.5640 -1.2386
17980TIP3    H175355   5.932   2.937  16.552  0.7080 -0.0616  0.5337
17980TIP3    H275356   6.070   2.972  16.500  0.9023 -0.4253  0.8044
17981TIP3   OH275357   1.033   4.017  11.668 -0.1818  0.0412  0.4104
17981TIP3    H175358   1.118   3.981  11.641  0.2434 -0.2991  2.1253
17981TIP3    H275359   0.978   4.007  11.590  1.0185 -0.7671 -0.3787
17982TIP3   OH275360   0.444   5.904  16.699 -0.2324 -0.3335 -0.5333
17982TIP3    H175361   0.430   5.949  16.616 -0.0818  0.9465  0.1103
17982TIP3    H275362   0.358   5.902  16.741 -0.1262 -0.0742 -0.2939
17983TIP3   OH275363   3.003   1.831   3.564  0.5052  0.3718 -0.6469
17983TIP3    H175364   2.963   1.853   3.480 -0.4558 -2.0281 -0.8877
17983TIP3    H275365   2.929   1.822   3.625  0.9420 -0.5805 -0.2275
17984TIP3   OH275366   1.567   1.388   3.549 -0.0427  0.0988  0.2646
17984TIP3    H175367   1.587   1.320   3.613  2.0022  1.8565  1.6520
17984TIP3    H275368   1.625   1.371   3.475 -0.2178 -0.1997  0.1958
17985TIP3   OH275369   2.575   6.706  13.990 -0.2034 -0.2039 -0.2479
17985TIP3    H175370   2.499   6.750  14.028  0.3395  0.7351 -0.2206
17985TIP3    H275371   2.552   6.613  13.991 -1.5022  0.0954 -0.5816
17986TIP3   OH275372   6.524   1.082   5.606 -0.0886  0.0166  0.0399
17986TIP3    H175373   6.517   1.004   5.552 -1.4479  0.6085 -0.6965
17986TIP3    H275374   6.480   1.150   5.555  2.8840  1.8200 -0.2994
17987TIP3   OH275375   1.943   4.609   0.839 -0.6467  0.0797  0.3067
17987TIP3    H175376   2.021   4.569   0.799 -0.6752  0.2856  0.0428
17987TIP3    H275377   1.936   4.695   0.796  0.5071  1.1825  2.1815
17988TIP3   OH275378   5.820   0.418  14.841 -0.0220  0.0550 -0.0935
17988TIP3    H175379   5.781   0.392  14.925 -0.6318  1.8985  0.2422
17988TIP3    H275380   5.752   0.401  14.777 -0.8086  1.6844  0.2643
17989TIP3   OH275381   2.366   2.770  15.907  0.2332  0.2273 -0.1165
17989TIP3    H175382   2.275   2.744  15.890  0.5671 -1.6511  0.8072
17989TIP3    H275383   2.414   2.737  15.831  0.4047 -0.3992  0.2589
17990TIP3   OH275384   3.269   5.539  15.351 -0.2924 -0.5343 -0.0009
17990TIP3    H175385   3.249   5.574  15.438 -1.0046 -1.1832  0.1114
17990TIP3    H275386   3.355   5.499  15.360 -0.0791 -0.0312  0.2316
17991TIP3   OH275387   1.884   5.789   3.214 -0.0059 -0.4841  0.5461
17991TIP3    H175388   1.857   5.800   3.123  0.3044 -1.0494  0.3806
17991TIP3    H275389   1.856   5.700   3.237  1.7431 -1.1287  0.3403
17992TIP3   OH275390   3.782   3.858   2.772  0.0319 -0.0295 -0.5241
17992TIP3    H175391   3.712   3.795   2.791  1.8736 -1.9792  0.2465
17992TIP3    H275392   3.833   3.817   2.702  1.0102  0.8352 -0.3409
17993TIP3   OH275393   3.440   1.841   2.310  0.3926 -0.0364  0.0826
17993TIP3    H175394   3.464   1.837   2.402  1.0610 -0.0073 -0.0837
17993TIP3    H275395   3.416   1.933   2.295  0.3048 -0.0370  0.2283
17994TIP3   OH275396   2.882   3.668   2.733  0.1576  0.6435 -0.7104
17994TIP3    H175397   2.838   3.614   2.666 -1.5209 -0.6260  1.2890
17994TIP3    H275398   2.924   3.605   2.790 -1.5244  1.3794  1.4741
17995TIP3   OH275399   0.403   0.444   4.852  0.0872 -0.2911 -0.0361
17995TIP3    H175400   0.417   0.469   4.761  1.0435 -0.0504  0.1601
17995TIP3    H275401   0.309   0.429   4.859 -0.0734  0.2296 -0.9246
17996TIP3   OH275402   1.090   2.208  15.745 -0.4189  0.6522  0.1461
17996TIP3    H175403   1.078   2.198  15.651  1.5691  0.4146 -0.1149
17996TIP3    H275404   1.136   2.291  15.755  0.1602  0.2576  0.8363
17997TIP3   OH275405   0.906   5.431   4.932  0.3266 -0.3325  0.4211
17997TIP3    H175406   0.983   5.407   4.881  0.7578  0.1838  0.8182
17997TIP3    H275407   0.858   5.349   4.943  1.4009 -0.8742  1.1508
17998TIP3   OH275408   1.200   5.627   3.026 -0.4631  0.1983 -0.1426
17998TIP3    H175409   1.117   5.647   3.068 -0.8207  0.7851 -1.0953
17998TIP3    H275410   1.177   5.564   2.957  0.3545 -2.0800  1.5385
17999TIP3   OH275411   4.354   2.140   1.013 -0.0732 -0.2906 -0.2657
17999TIP3    H175412   4.366   2.233   0.996 -1.1084 -0.6072 -3.4835
17999TIP3    H275413   4.396   2.125   1.097  2.1734  2.6348 -0.7081
18000TIP3   OH275414   1.908   0.201  14.265 -0.0011  0.2972 -0.3576
18000TIP3    H175415   1.984   0.152  14.235 -0.0583  0.9540 -1.6357
18000TIP3    H275416   1.936   0.293  14.261 -0.1662  0.4406  1.2041
18001TIP3   OH275417   5.580   4.158  12.690 -0.1706 -0.0906  0.2250
18001TIP3    H175418   5.581   4.071  12.729 -1.4820 -0.3175 -0.1712
18001TIP3    H275419   5.498   4.197  12.720 -0.8662  0.0049 -1.6526
18002TIP3   OH275420   1.616   5.491   4.831  1.0535 -0.1010 -0.2040
18002TIP3    H175421   1.575   5.405   4.823  1.9372 -0.7855  1.9417
18002TIP3    H275422   1.589   5.538   4.752 -1.1382 -1.6214 -0.4462
18003TIP3   OH275423   3.737   4.080  11.964  0.4266 -0.5918  0.4723
18003TIP3    H175424   3.724   3.990  11.936 -0.9207  0.0361 -1.0296
18003TIP3    H275425   3.708   4.081  12.056 -1.7372 -1.2332 -0.1478
18004TIP3   OH275426   3.713   0.748   2.098 -0.4654  0.2624  0.9115
18004TIP3    H175427   3.785   0.783   2.046  0.1422 -0.0887  1.4998
18004TIP3    H275428   3.718   0.654   2.085 -1.6927  0.3177 -0.1497
18005TIP3   OH275429   5.127   2.726   0.586 -0.1672 -0.1884 -0.2262
18005TIP3    H175430   5.213   2.747   0.550  0.0527 -1.3458 -0.4192
18005TIP3    H275431   5.076   2.697   0.510 -0.8497  0.8346 -0.1709
18006TIP3   OH275432   3.361   0.165   4.415 -0.2434 -0.1853  0.2970
18006TIP3    H175433   3.295   0.190   4.351  1.2929  2.5332 -0.3872
18006TIP3    H275434   3.409   0.093   4.374 -0.5719  0.1708 -0.7178
18007TIP3   OH275435   1.689   0.690   3.095 -0.4679  0.3914  0.1365
18007TIP3    H175436   1.599   0.655   3.097 -0.4255  0.1553  3.0329
18007TIP3    H275437   1.691   0.752   3.168  0.5819  3.7206 -2.4969
18008TIP3   OH275438   4.975   4.740   0.817 -0.7455 -0.3554 -0.4634
18008TIP3    H175439   4.997   4.813   0.874  1.1412 -1.1992 -0.0383
18008TIP3    H275440   4.896   4.768   0.771 -0.7045  1.4708  0.5093
18009TIP3   OH275441   1.010   6.566   2.160 -0.3630 -0.1453 -0.0877
18009TIP3    H175442   0.935   6.507   2.165 -1.0886  0.7374 -0.3416
18009TIP3    H275443   1.015   6.606   2.247 -2.3393  2.3454 -1.0174
18010TIP3   OH275444   3.738   2.480   1.149  0.0922 -0.1702 -0.1898
18010TIP3    H175445   3.681   2.557   1.151 -0.7464 -0.7927  0.7909
18010TIP3    H275446   3.679   2.406   1.164  1.0789 -0.8856  0.2498
18011TIP3   OH275447   5.197   5.705   0.734 -0.4198 -0.0477  0.2624
18011TIP3    H175448   5.124   5.644   0.744  0.7483 -1.6689 -0.7247
18011TIP3    H275449   5.165   5.772   0.673 -0.3918 -1.9943 -2.0092
18012TIP3   OH275450   4.769   2.638  16.949 -0.8022 -0.2182 -0.1933
18012TIP3    H175451   4.708   2.630  17.023 -0.9387  1.7912 -0.0409
18012TIP3    H275452   4.719   2.681  16.880  0.1316  0.5348 -0.4262
18013TIP3   OH275453   6.395   4.112   4.837 -0.5437  0.0224 -0.4867
18013TIP3    H175454   6.430   4.187   4.884 -0.2806  0.2915 -1.1015
18013TIP3    H275455   6.308   4.098   4.874 -0.4931  0.4716 -0.1978
18014TIP3   OH275456   0.553   5.606   2.479  0.3896 -0.4446  0.5732
18014TIP3    H175457   0.590   5.529   2.435  3.7678  0.1530  2.0427
18014TIP3    H275458   0.555   5.675   2.413  0.0706 -0.8795  0.0952
18015TIP3   OH275459   2.174   6.688  10.972  0.2935 -0.2561  0.8463
18015TIP3    H175460   2.119   6.662  11.047  0.4522  0.9568  1.4057
18015TIP3    H275461   2.262   6.658  10.996  0.3834  0.3161  1.2535
18016TIP3   OH275462   5.932   0.294   1.914 -0.1052 -0.0551  0.3335
18016TIP3    H175463   5.978   0.377   1.928  0.0340  0.1594 -1.1849
18016TIP3    H275464   5.961   0.238   1.986 -0.9260  1.4889  1.9134
18017TIP3   OH275465   5.036   1.400   1.198 -0.3551 -0.5227  0.2773
18017TIP3    H175466   5.123   1.422   1.231 -0.6118 -0.6471  1.0423
18017TIP3    H275467   5.023   1.309   1.223  0.0959 -1.1453 -1.5749
18018TIP3   OH275468   6.647   4.126   2.492  0.3177  0.3722 -0.2723
18018TIP3    H175469   6.731   4.100   2.529  0.8042  2.1506 -0.0289
18018TIP3    H275470   6.601   4.169   2.565 -0.4116  0.2440 -0.6481
18019TIP3   OH275471   2.147   3.443  14.287 -0.1286  0.0364 -0.0165
18019TIP3    H175472   2.071   3.497  14.264 -0.6750 -0.2337  1.0746
18019TIP3    H275473   2.137   3.364  14.235 -0.3875  0.1575 -0.1532
18020TIP3   OH275474   6.470   0.296  13.012 -0.1156 -0.3019  0.0437
18020TIP3    H175475   6.443   0.362  12.948  0.9626  1.4838  1.3314
18020TIP3    H275476   6.546   0.254  12.972 -0.2478 -0.1246 -0.4011
18021TIP3   OH275477   3.350   5.979  14.672  0.2716  0.1374  0.4618
18021TIP3    H175478   3.437   5.942  14.688  0.3608  0.9362  2.0593
18021TIP3    H275479   3.366   6.073  14.661 -0.4111  0.3094  0.9091
18022TIP3   OH275480   4.584   2.934  12.984  0.3064  0.1306 -0.6407
18022TIP3    H175481   4.547   3.019  12.962 -2.4860 -0.1567  2.2410
18022TIP3    H275482   4.649   2.953  13.051  0.1617  0.0427 -0.4761
18023TIP3   OH275483   1.719   3.915   4.714  0.3560  0.3643 -0.2569
18023TIP3    H175484   1.812   3.934   4.704  0.1635  0.6531 -1.7614
18023TIP3    H275485   1.713   3.820   4.701  0.2880  0.5433 -1.7130
18024TIP3   OH275486   4.076   4.687   3.355 -0.2512  0.1451  0.2975
18024TIP3    H175487   4.148   4.697   3.293  0.8003 -0.6202  1.3287
18024TIP3    H275488   4.048   4.596   3.344 -1.2284  0.5024 -0.2511
18025TIP3   OH275489   6.438   1.333   2.676  0.6600  0.0439  0.5505
18025TIP3    H175490   6.513   1.275   2.686 -0.3323 -1.2878  0.4074
18025TIP3    H275491   6.412   1.325   2.584 -0.0014  0.0674  0.7282
18026TIP3   OH275492   6.745   5.170  13.853 -0.4091 -0.1653 -0.2822
18026TIP3    H175493   6.652   5.154  13.865 -0.9663  1.1753 -2.2455
18026TIP3    H275494   6.751   5.265  13.841  1.3755 -0.0868  0.8619
18027TIP3   OH275495   5.374   3.330   6.401  0.1968  0.0701 -0.3908
18027TIP3    H175496   5.360   3.242   6.365  1.0241 -1.0906  1.9304
18027TIP3    H275497   5.291   3.351   6.445  0.0884  0.3348 -0.7225
18028TIP3   OH275498   2.901   5.279  14.620 -0.3027 -0.8507  0.0268
18028TIP3    H175499   2.993   5.303  14.608 -0.0029 -1.0552  1.7208
18028TIP3    H275500   2.860   5.297  14.535  1.2871 -0.7284 -0.7418
18029TIP3   OH275501   3.723   4.956   2.220  0.0058  0.0924 -0.4354
18029TIP3    H175502   3.770   5.026   2.264 -1.3656  0.3708  0.6534
18029TIP3    H275503   3.643   4.998   2.187 -0.3819 -0.7582 -0.6100
18030TIP3   OH275504   2.980   0.241   1.207  0.6348  0.8258 -0.2139
18030TIP3    H175505   2.919   0.269   1.275 -0.6912 -2.4413  0.1297
18030TIP3    H275506   3.062   0.226   1.253  1.1802  3.0980 -0.2906
18031TIP3   OH275507   0.561   2.863  14.756 -0.5679 -0.3711 -0.2746
18031TIP3    H175508   0.637   2.908  14.719 -1.9017  0.4655 -2.1569
18031TIP3    H275509   0.496   2.932  14.768 -1.5063 -1.2836  0.0090
18032TIP3   OH275510   4.625   6.672   1.124  0.3139 -0.1489  0.0799
18032TIP3    H175511   4.667   6.687   1.208  1.2085 -1.5789 -0.0931
18032TIP3    H275512   4.697   6.661   1.062 -0.3275  0.4660 -0.8074
18033TIP3   OH275513   2.569   1.042   5.136  0.5383 -0.1365 -0.1844
18033TIP3    H175514   2.637   1.106   5.115 -0.7354  1.3170 -0.1136
18033TIP3    H275515   2.615   0.958   5.142  2.4240  0.8947  0.6178
18034TIP3   OH275516   3.957   1.835  16.762 -0.2274  0.0817  0.5501
18034TIP3    H175517   3.944   1.894  16.688 -1.3113 -1.9567 -1.0030
18034TIP3    H275518   3.956   1.892  16.838 -4.6909  1.8701 -0.5049
18035TIP3   OH275519   2.495   2.250   0.950 -0.1328  0.1727  0.2443
18035TIP3    H175520   2.539   2.173   0.985  0.8489  0.4425 -0.3525
18035TIP3    H275521   2.544   2.324   0.985  1.6148  0.4448 -2.4742
18036TIP3   OH275522   3.552   1.086  14.697  0.1204 -0.3426 -0.5860
18036TIP3    H175523   3.469   1.128  14.719  1.0146  1.0305  0.3089
18036TIP3    H275524   3.537   0.993  14.712 -0.9051  0.0115  0.7370
18037TIP3   OH275525   5.445   0.550   3.325 -0.3604 -0.2531 -0.3838
18037TIP3    H175526   5.411   0.559   3.236 -0.8683 -0.0916 -0.1750
18037TIP3    H275527   5.433   0.636   3.365  3.3453  0.8936 -1.3188
18038TIP3   OH275528   2.215   6.396   5.977  0.6272 -0.2801  0.0446
18038TIP3    H175529   2.140   6.415   6.034 -0.4046  1.2121 -1.7117
18038TIP3    H275530   2.291   6.405   6.034 -0.3385  1.4552  1.1475
18039TIP3   OH275531   2.546   2.426   6.182  0.7373  0.0725 -0.1841
18039TIP3    H175532   2.530   2.520   6.181 -1.6601 -0.2828 -1.1112
18039TIP3    H275533   2.634   2.416   6.144 -0.3208  1.7588 -3.4556
18040TIP3   OH275534   2.742   4.805  15.025  0.1185 -0.5251 -0.2623
18040TIP3    H175535   2.681   4.873  15.053  1.6861  1.9340 -2.3364
18040TIP3    H275536   2.686   4.737  14.987 -1.4027  0.9528 -0.8013
18041TIP3   OH275537   0.423   2.445  12.747  0.4742  0.3587 -0.4740
18041TIP3    H175538   0.493   2.460  12.684 -0.2451 -0.2222 -1.4359
18041TIP3    H275539   0.468   2.427  12.830  1.4674 -0.1741 -1.1132
18042TIP3   OH275540   1.816   2.530  11.726  0.3917  0.3791 -0.4898
18042TIP3    H175541   1.897   2.488  11.755  0.1983 -0.2355 -0.8363
18042TIP3    H275542   1.756   2.521  11.800  0.2912 -0.1202 -0.6298
18043TIP3   OH275543   0.177   0.470  13.209  0.2132 -0.3729 -0.3500
18043TIP3    H175544   0.252   0.420  13.242  1.6458  0.6264 -1.9420
18043TIP3    H275545   0.159   0.433  13.123  0.5585  1.0461 -1.0633
18044TIP3   OH275546   1.834   5.397  12.630 -0.1838  0.0808 -0.3976
18044TIP3    H175547   1.767   5.411  12.697  0.4734 -1.4271  0.6501
18044TIP3    H275548   1.905   5.456  12.653  0.2372 -0.7646  0.5787
18045TIP3   OH275549   6.325   1.737   2.626 -0.7378 -0.4269 -0.1431
18045TIP3    H175550   6.345   1.672   2.694 -1.4633 -0.5154  0.0018
18045TIP3    H275551   6.259   1.694   2.571 -1.3708  0.2517  0.0697
18046TIP3   OH275552   0.863   3.051  13.737  0.0266 -0.3145 -0.5229
18046TIP3    H175553   0.938   3.099  13.702  0.6787 -0.6723  0.3630
18046TIP3    H275554   0.853   2.977  13.677  0.7976 -0.6255 -0.2758
18047TIP3   OH275555   2.006   4.021   1.782  0.3439  0.1939 -0.0672
18047TIP3    H175556   2.019   4.097   1.725  1.2714  0.9462  1.1083
18047TIP3    H275557   2.084   4.019   1.838  1.3003 -2.7214 -1.2777
18048TIP3   OH275558   6.092   1.221  11.452 -0.2775 -0.0206  0.0696
18048TIP3    H175559   6.025   1.287  11.471 -0.6802 -0.5612  0.5794
18048TIP3    H275560   6.174   1.270  11.451 -0.1478  0.0840  3.5208
18049TIP3   OH275561   1.858   0.636  13.300 -0.3849  0.2389  0.1848
18049TIP3    H175562   1.796   0.686  13.352  0.8506  0.9867  0.9931
18049TIP3    H275563   1.813   0.621  13.217 -1.1048  2.0282  0.2100
18050TIP3   OH275564   1.221   0.730  14.184 -0.1053 -0.2691  1.1653
18050TIP3    H175565   1.164   0.665  14.142  2.0784 -1.7599  0.3099
18050TIP3    H275566   1.196   0.728  14.276 -0.7983 -1.5866  0.9733
18051TIP3   OH275567   4.785   3.716   2.991 -0.3294  0.3251  0.5438
18051TIP3    H175568   4.774   3.784   2.924  1.3238 -0.5675 -0.7169
18051TIP3    H275569   4.707   3.661   2.982  0.6060 -0.7661 -1.9426
18052TIP3   OH275570   2.363   2.359  14.200  0.2251  0.2969 -0.0934
18052TIP3    H175571   2.333   2.273  14.230  0.5639 -0.0637 -0.7638
18052TIP3    H275572   2.288   2.416  14.213  0.3520  0.1590  1.4132
18053TIP3   OH275573   4.647   2.105  12.628 -0.2834 -0.0696  0.0173
18053TIP3    H175574   4.665   2.044  12.557 -0.3497  0.6669 -0.6473
18053TIP3    H275575   4.731   2.115  12.673  0.0324  0.3054 -0.6400
18054TIP3   OH275576   4.687   1.794  11.523 -0.0836 -0.2889 -0.3483
18054TIP3    H175577   4.776   1.772  11.553  0.1272 -1.1124 -1.5425
18054TIP3    H275578   4.698   1.875  11.474 -0.2780  0.5212  0.8885
18055TIP3   OH275579   1.560   6.427   1.203  0.1853 -0.7187 -0.1257
18055TIP3    H175580   1.546   6.476   1.284  1.0534 -0.7792  0.0662
18055TIP3    H275581   1.475   6.386   1.185 -0.6519  1.0616 -0.4484
18056TIP3   OH275582   4.679   5.543  16.292  0.2500 -0.2680 -0.8050
18056TIP3    H175583   4.596   5.495  16.282  0.7639 -1.4506  0.3297
18056TIP3    H275584   4.747   5.478  16.277  1.0685  0.9693 -3.0867
18057TIP3   OH275585   5.726   2.706   6.293  0.0138  0.1846 -0.1924
18057TIP3    H175586   5.753   2.614   6.291 -0.1777  0.1228  0.1164
18057TIP3    H275587   5.805   2.754   6.318 -0.2818 -0.0474  1.2835
18058TIP3   OH275588   0.536   1.362  15.341 -0.0681  0.1616  0.4256
18058TIP3    H175589   0.596   1.418  15.390 -0.7298  0.5053  0.8629
18058TIP3    H275590   0.456   1.360  15.394 -0.0424 -1.2546  0.4631
18059TIP3   OH275591   4.176   4.411  16.834 -0.0189 -0.0233 -0.0244
18059TIP3    H175592   4.120   4.456  16.771  1.2523 -0.4597 -1.5189
18059TIP3    H275593   4.260   4.457  16.829  0.5490 -0.9901  0.2307
18060TIP3   OH275594   6.415   4.925  15.675 -0.3833 -0.4833  0.3869
18060TIP3    H175595   6.456   4.859  15.731 -0.4589  0.3828  1.4890
18060TIP3    H275596   6.428   5.007  15.721 -0.6783  0.2281 -0.7556
18061TIP3   OH275597   0.399   5.176   1.448  0.1342  0.2580 -0.4100
18061TIP3    H175598   0.316   5.129   1.449  0.6212 -0.6430  1.1085
18061TIP3    H275599   0.445   5.143   1.372 -0.5918  0.2302 -0.8475
18062TIP3   OH275600   4.376   3.125  16.456 -0.0611  0.4399  0.0548
18062TIP3    H175601   4.298   3.106  16.508  0.5832  0.9342  1.2403
18062TIP3    H275602   4.438   3.162  16.519  1.1093  0.1104 -0.8769
18063TIP3   OH275603   5.581   3.976   3.201 -0.2052 -0.0337  0.2617
18063TIP3    H175604   5.517   3.969   3.130 -0.3405  1.1605  0.2327
18063TIP3    H275605   5.569   4.065   3.235  0.9885 -0.0118  0.6936
18064TIP3   OH275606   3.377   4.365  15.848  0.1576  0.3825  0.3250
18064TIP3    H175607   3.385   4.386  15.941 -2.0318 -0.1833  0.7039
18064TIP3    H275608   3.346   4.447  15.808  0.0341  0.3225  0.2960
18065TIP3   OH275609   1.591   2.018   0.852  0.0833 -0.8639  0.6636
18065TIP3    H175610   1.522   2.081   0.873  0.3968 -0.3005  0.0319
18065TIP3    H275611   1.662   2.071   0.815  0.0936 -1.6406 -0.5078
18066TIP3   OH275612   6.161   6.581  11.720 -0.6465  0.5336  0.3873
18066TIP3    H175613   6.159   6.671  11.754  1.8154  1.1911 -1.0045
18066TIP3    H275614   6.069   6.561  11.701 -1.1794  3.1035 -0.1546
18067TIP3   OH275615   4.956   0.478  16.715 -0.3651 -0.4492 -0.5097
18067TIP3    H175616   4.994   0.452  16.799 -0.5750 -1.2345 -0.6544
18067TIP3    H275617   4.972   0.404  16.657 -1.5966 -0.5554 -0.7376
18068TIP3   OH275618   4.430   4.348  13.369 -0.4671 -0.2946 -0.0550
18068TIP3    H175619   4.504   4.299  13.406  0.1900  0.9576  0.3595
18068TIP3    H275620   4.386   4.285  13.312  0.1596 -1.4499  0.6874
18069TIP3   OH275621   0.122   4.863  10.952  0.3612  0.6077 -0.3461
18069TIP3    H175622   0.068   4.796  10.911 -0.4729  0.8163  0.3718
18069TIP3    H275623   0.183   4.815  11.008 -0.2948  0.4386  0.2374
18070TIP3   OH275624   6.162   1.287  13.035  0.6728 -0.0512 -0.4266
18070TIP3    H175625   6.187   1.206  12.991  0.5141 -0.2162 -0.2144
18070TIP3    H275626   6.079   1.267  13.078  0.8324  0.1014 -0.0415
18071TIP3   OH275627   1.555   4.804  13.706  0.7768  0.0320  0.2522
18071TIP3    H175628   1.472   4.846  13.730  0.3891 -0.6734  0.1614
18071TIP3    H275629   1.556   4.723  13.756  1.4971  0.1119  0.3773
18072TIP3   OH275630   0.420   1.496   3.953 -0.1765 -0.1763 -0.7716
18072TIP3    H175631   0.443   1.574   3.902 -1.3971  0.1441 -0.8566
18072TIP3    H275632   0.355   1.450   3.899  0.7095 -1.4016 -0.8397
18073TIP3   OH275633   6.731   1.562  14.556  0.2441  0.2423 -0.0562
18073TIP3    H175634   6.696   1.576  14.644  1.4557  2.6985  0.1421
18073TIP3    H275635   6.793   1.490  14.565  1.1387  1.1450  1.3821
18074TIP3   OH275636   1.859   2.785   0.643 -0.2461  0.1686 -0.9713
18074TIP3    H175637   1.933   2.807   0.699 -0.0528 -0.8432 -0.8188
18074TIP3    H275638   1.877   2.830   0.561  0.3560  0.2298 -0.8111
18075TIP3   OH275639   2.106   3.496   0.112 -0.2562  0.4270 -0.0019
18075TIP3    H175640   2.109   3.473   0.020  0.3804 -0.1852  0.1629
18075TIP3    H275641   2.176   3.561   0.123 -0.7902  1.0310 -0.0801
18076TIP3   OH275642   5.598   2.643  17.204 -0.2157 -0.5122  0.2336
18076TIP3    H175643   5.658   2.592  17.150 -1.0085 -0.4959 -0.6909
18076TIP3    H275644   5.549   2.697  17.142  0.6061  1.4091  1.1740
18077TIP3   OH275645   0.493   3.409  16.716  0.2254 -0.4033  0.4057
18077TIP3    H175646   0.491   3.421  16.621 -2.6578  0.7374  0.5095
18077TIP3    H275647   0.458   3.492  16.750  0.6030 -1.0422  2.4306
18078TIP3   OH275648   1.406   2.214  15.768  0.2626 -0.5255  0.1343
18078TIP3    H175649   1.408   2.125  15.801 -0.2439 -0.3467  0.6639
18078TIP3    H275650   1.378   2.267  15.843  1.3221  0.1829  0.0473
18079TIP3   OH275651   1.434   5.306   3.027 -0.1872  0.5194 -0.4561
18079TIP3    H175652   1.477   5.278   2.946  0.3043 -1.5101  0.4318
18079TIP3    H275653   1.477   5.388   3.049  1.8539 -0.4088 -0.6887
18080TIP3   OH275654   4.082   0.526   6.006 -0.3097  0.3638  0.1800
18080TIP3    H175655   4.145   0.487   6.068  1.2046  1.8276 -0.3636
18080TIP3    H275656   4.136   0.552   5.931 -1.8253  0.3309 -0.9581
18081TIP3   OH275657   2.511   2.132  10.601  0.2641  0.8716 -0.2033
18081TIP3    H175658   2.557   2.052  10.579  1.4949  1.6238 -0.4674
18081TIP3    H275659   2.419   2.112  10.584  0.7357  0.1266 -2.1998
18082TIP3   OH275660   3.965   4.552  17.180  0.3499 -0.3027 -0.5311
18082TIP3    H175661   3.963   4.609  17.104 -0.4267 -0.5177 -0.6794
18082TIP3    H275662   4.046   4.576  17.226  0.8399 -0.1967 -1.4331
18083TIP3   OH275663   2.250   6.733  16.329  0.5432  0.1852 -0.7438
18083TIP3    H175664   2.155   6.721  16.320  0.4340  0.7056 -0.3385
18083TIP3    H275665   2.266   6.732  16.423  1.1514 -1.3728 -0.8331
18084TIP3   OH275666   5.128   0.110   4.672 -0.5086  0.3426 -0.0989
18084TIP3    H175667   5.055   0.162   4.705 -0.4022  1.7491 -1.9225
18084TIP3    H275668   5.197   0.121   4.737 -1.1715  0.8205  0.5427
18085TIP3   OH275669   2.285   0.550  13.204  0.5983  0.2778 -0.4608
18085TIP3    H175670   2.297   0.640  13.231  0.6173  0.7564 -1.9472
18085TIP3    H275671   2.219   0.515  13.264  0.4809  1.3163  0.0319
18086TIP3   OH275672   1.375   5.668  10.571 -0.4250  0.2052  0.5451
18086TIP3    H175673   1.381   5.751  10.523 -2.9094  0.8428  1.2046
18086TIP3    H275674   1.378   5.601  10.503 -0.7056  0.9314 -0.2048
18087TIP3   OH275675   6.054   1.387  13.430 -0.2884 -0.0230 -0.1088
18087TIP3    H175676   6.041   1.445  13.355  0.0218  0.9120  0.5559
18087TIP3    H275677   6.094   1.308  13.392  0.8669  0.8610 -0.7885
18088TIP3   OH275678   2.606   1.097  11.908  1.2125 -0.0034 -0.5135
18088TIP3    H175679   2.634   1.006  11.897  1.1708 -0.2224  0.9315
18088TIP3    H275680   2.675   1.137  11.960  0.9868  0.6598 -0.7134
18089TIP3   OH275681   6.363   4.477  13.501  0.0839  0.3316 -0.3717
18089TIP3    H175682   6.435   4.414  13.506 -0.6247 -0.4294  0.4725
18089TIP3    H275683   6.356   4.513  13.589 -0.9990 -0.0858 -0.2802
18090TIP3   OH275684   3.929   0.652   5.486  0.0211  0.1487  0.1688
18090TIP3    H175685   3.859   0.587   5.492 -0.3420  0.5732  0.6729
18090TIP3    H275686   3.892   0.730   5.526  0.3016  0.8050 -0.8197
18091TIP3   OH275687   3.923   4.746  16.977 -0.7249  0.4278  0.6932
18091TIP3    H175688   3.900   4.825  17.026  0.1147  0.6963  0.6807
18091TIP3    H275689   3.918   4.773  16.885  0.3241  0.7109  0.7021
18092TIP3   OH275690   3.509   4.173   5.704 -0.3054  0.0626 -0.4160
18092TIP3    H175691   3.535   4.153   5.794  1.5454  1.2394 -0.6246
18092TIP3    H275692   3.421   4.208   5.712  0.4035  1.6574  1.1899
18093TIP3   OH275693   6.071   4.746   1.485 -0.0759  0.3261  0.5569
18093TIP3    H175694   6.063   4.741   1.580  1.7192  1.1898  0.7872
18093TIP3    H275695   6.068   4.839   1.465  0.0316  0.1796 -0.1760
18094TIP3   OH275696   1.830   4.352  15.659  0.3127  0.6400  0.0734
18094TIP3    H175697   1.836   4.259  15.680 -0.0137  0.7914  0.8961
18094TIP3    H275698   1.920   4.384  15.664  0.9752 -0.2427 -3.4423
18095TIP3   OH275699   6.239   1.692   4.484 -0.3726  0.5444 -0.4471
18095TIP3    H175700   6.247   1.604   4.521 -0.2104  0.3121 -1.0094
18095TIP3    H275701   6.156   1.725   4.519 -0.7402 -0.0748 -0.7028
18096TIP3   OH275702   4.382   2.718  11.346  0.2949  0.2415 -0.2480
18096TIP3    H175703   4.313   2.653  11.357 -0.2453  0.5378 -1.6883
18096TIP3    H275704   4.335   2.801  11.337  0.9748  0.9316  1.8220
18097TIP3   OH275705   4.714   0.582   5.734 -0.4412  0.1768 -0.0825
18097TIP3    H175706   4.668   0.498   5.738  0.0212 -0.0323  1.4565
18097TIP3    H275707   4.789   0.571   5.791  0.7905  0.9818 -1.4659
18098TIP3   OH275708   5.296   5.863  11.159 -0.0338  0.4878 -0.5067
18098TIP3    H175709   5.390   5.874  11.176  0.0812 -0.4032 -0.4933
18098TIP3    H275710   5.269   5.794  11.220 -1.0090  1.6988  0.4668
18099TIP3   OH275711   4.094   1.552   3.130 -0.6038 -0.7676  0.0781
18099TIP3    H175712   4.002   1.563   3.153 -0.6334  0.3160 -0.4910
18099TIP3    H275713   4.114   1.628   3.074  0.0559 -2.0967 -1.5658
18100TIP3   OH275714   0.306   2.223   2.943 -0.3568 -0.0051  0.1847
18100TIP3    H175715   0.382   2.174   2.973  0.5171  0.6995 -0.7803
18100TIP3    H275716   0.234   2.160   2.944  1.1416 -2.0517 -3.0805
18101TIP3   OH275717   5.033   2.186   6.247 -0.1224  0.3547 -0.1016
18101TIP3    H175718   5.062   2.278   6.246 -0.6591  0.6619  2.7823
18101TIP3    H275719   5.100   2.141   6.298 -0.2203 -0.7599 -0.9280
18102TIP3   OH275720   1.335   6.133   4.045  0.1108  0.1096 -0.2816
18102TIP3    H175721   1.320   6.089   3.961  1.4078  0.8676 -0.9602
18102TIP3    H275722   1.266   6.199   4.050  0.8048  0.9800 -1.4585
18103TIP3   OH275723   0.950   5.294   4.678  0.6498 -0.1949  0.6494
18103TIP3    H175724   1.006   5.370   4.659 -0.1198  0.0315 -0.8227
18103TIP3    H275725   0.999   5.245   4.744  2.6229 -0.0186 -0.5906
18104TIP3   OH275726   2.774   1.507  15.887  0.2582 -0.0138 -0.0144
18104TIP3    H175727   2.811   1.427  15.924  1.5335  0.8744  0.7360
18104TIP3    H275728   2.795   1.503  15.794 -0.0709 -0.7451 -0.0610
18105TIP3   OH275729   2.401   0.676  15.256  0.3456  0.1512 -0.0237
18105TIP3    H175730   2.485   0.712  15.227  1.2174 -0.7221  1.3213
18105TIP3    H275731   2.423   0.623  15.332 -1.4432 -0.0951  0.3528
18106TIP3   OH275732   1.886   5.534   0.463  0.1138 -0.5332  0.0686
18106TIP3    H175733   1.904   5.628   0.461  0.7803 -0.5914  1.6808
18106TIP3    H275734   1.794   5.527   0.436 -0.2577  0.6884  0.9071
18107TIP3   OH275735   1.115   0.481   1.309 -0.6041 -0.4410  0.1989
18107TIP3    H175736   1.197   0.531   1.310 -1.3046  0.7764  2.0347
18107TIP3    H275737   1.140   0.395   1.276  1.1563  0.2792 -0.5004
18108TIP3   OH275738   0.793   5.301   1.892 -0.2733 -0.2009 -0.7575
18108TIP3    H175739   0.743   5.278   1.971  1.9635 -0.6811  0.5936
18108TIP3    H275740   0.754   5.383   1.862 -0.8843  0.2511  1.1263
18109TIP3   OH275741   3.732   4.067   4.530  0.2067  0.3677  0.6439
18109TIP3    H175742   3.668   4.048   4.599 -0.3853  2.6703  0.7985
18109TIP3    H275743   3.705   4.011   4.457 -0.2981 -0.7118  1.6222
18110TIP3   OH275744   5.209   2.970  11.238  0.6318 -0.3622 -0.3483
18110TIP3    H175745   5.162   3.032  11.294  2.9594  1.2077  0.0200
18110TIP3    H275746   5.232   3.020  11.160  1.5429 -1.0939 -0.5709
18111TIP3   OH275747   3.600   3.383  12.874 -0.0090 -1.0042  0.2703
18111TIP3    H175748   3.591   3.367  12.780 -1.4163  1.9298 -0.1884
18111TIP3    H275749   3.615   3.296  12.912 -0.7497 -2.4275 -2.4909
18112TIP3   OH275750   0.241   3.804   3.580 -0.7677 -0.5923  0.0640
18112TIP3    H175751   0.280   3.789   3.494  0.2298  0.1319  0.3757
18112TIP3    H275752   0.308   3.851   3.630 -1.0587 -1.5626  1.4596
18113TIP3   OH275753   2.039   0.789   4.808 -0.2055 -0.0731 -0.3698
18113TIP3    H175754   1.997   0.812   4.725  0.5904 -0.5336 -0.9070
18113TIP3    H275755   1.984   0.831   4.875 -1.6510 -0.8251 -1.0379
18114TIP3   OH275756   5.700   2.078   2.545 -0.5594 -0.3393 -0.4901
18114TIP3    H175757   5.677   1.999   2.495  0.1203  0.0027 -1.3636
18114TIP3    H275758   5.724   2.045   2.631  1.2266 -1.2641 -1.2995
18115TIP3   OH275759   5.065   4.691   4.158  0.2433 -0.6547  0.1059
18115TIP3    H175760   5.000   4.716   4.092 -1.2404 -0.9170  1.4073
18115TIP3    H275761   5.024   4.620   4.207  0.1157  1.2402  2.9941
18116TIP3   OH275762   3.254   1.817  15.607  0.3439 -0.4505  0.0832
18116TIP3    H175763   3.230   1.895  15.558  1.5809  0.2274  0.4937
18116TIP3    H275764   3.253   1.845  15.699 -1.2365 -1.5057  0.4235
18117TIP3   OH275765   1.185   6.367   5.348  0.0339 -0.4478 -0.3784
18117TIP3    H175766   1.251   6.305   5.317  0.9229  0.6628 -0.7705
18117TIP3    H275767   1.165   6.422   5.272 -0.2337  0.1818  0.1326
18118TIP3   OH275768   3.312   0.199  14.062 -0.6579 -0.0444 -0.6801
18118TIP3    H175769   3.237   0.142  14.079  0.1471 -1.0870 -0.5639
18118TIP3    H275770   3.382   0.140  14.035  0.7222  0.6881  1.0962
18119TIP3   OH275771   1.275   5.951   3.327  0.0428  0.1186 -0.5279
18119TIP3    H175772   1.232   6.031   3.356 -1.9434 -1.3763  0.9448
18119TIP3    H275773   1.250   5.943   3.235 -0.1610  0.9378 -0.5524
18120TIP3   OH275774   1.608   1.116   3.665  0.0496 -0.3496  0.5010
18120TIP3    H175775   1.691   1.077   3.639 -0.3751 -0.3224 -0.9634
18120TIP3    H275776   1.616   1.127   3.760  2.3277  1.0295  0.2445
18121TIP3   OH275777   4.669   1.048   5.597  0.6757 -0.6475  1.1481
18121TIP3    H175778   4.737   1.031   5.662  0.4050 -2.7328  0.9677
18121TIP3    H275779   4.667   1.143   5.588  2.7362 -0.4801  2.0080
18122TIP3   OH275780   1.919   6.406  16.476 -0.6868  0.0707  0.5200
18122TIP3    H175781   1.882   6.483  16.434 -2.0132  0.3811  2.1438
18122TIP3    H275782   1.920   6.340  16.407 -0.6789  1.1851 -0.5784
18123TIP3   OH275783   1.810   5.190  13.256 -0.0645  0.1441 -0.0221
18123TIP3    H175784   1.889   5.139  13.235 -0.8474 -0.8561 -0.6140
18123TIP3    H275785   1.805   5.255  13.186  0.4030  0.4289  0.1987
18124TIP3   OH275786   5.798   6.517  13.793  0.0909 -0.0950  0.5727
18124TIP3    H175787   5.880   6.472  13.774  0.8463  0.8721  1.4392
18124TIP3    H275788   5.784   6.575  13.718 -0.8427 -1.6365 -0.5064
18125TIP3   OH275789   6.679   4.472  13.832  0.6015  0.5270  0.2282
18125TIP3    H175790   6.625   4.493  13.756  0.8409  1.6254  0.3452
18125TIP3    H275791   6.625   4.413  13.885 -0.1552  0.9459 -0.0639
18126TIP3   OH275792   3.254   1.994  11.585 -0.0924 -0.4481 -0.2022
18126TIP3    H175793   3.202   1.920  11.554 -0.3053  0.0220 -0.9841
18126TIP3    H275794   3.285   2.037  11.505 -3.5419  2.9198  0.0028
18127TIP3   OH275795   1.249   1.846   1.122 -0.3160 -0.2503  0.4100
18127TIP3    H175796   1.310   1.891   1.181 -1.8864  0.0180  1.9029
18127TIP3    H275797   1.259   1.753   1.143 -0.6548 -0.1786  0.9171
18128TIP3   OH275798   4.455   1.692   0.063  0.0070 -0.0729  0.6095
18128TIP3    H175799   4.446   1.668  -0.030 -1.8111 -0.4734  0.8578
18128TIP3    H275800   4.446   1.787   0.064  4.9688  0.6690 -0.1155
18129TIP3   OH275801   0.724   2.537  13.278 -0.1585 -0.1475 -0.0151
18129TIP3    H175802   0.670   2.485  13.219 -0.2738  0.4341 -0.4378
18129TIP3    H275803   0.692   2.516  13.366 -1.6611  0.8074 -0.3006
18130TIP3   OH275804   2.596   5.909  14.575  0.5245  0.0389  0.6980
18130TIP3    H175805   2.626   5.853  14.503  0.1609 -0.0853  0.6410
18130TIP3    H275806   2.566   5.989  14.533  1.1036  0.3032  0.7850
18131TIP3   OH275807   1.770   1.095   1.943 -0.1993 -0.5549  0.0243
18131TIP3    H175808   1.739   1.178   1.908  0.0992 -0.1242  0.7610
18131TIP3    H275809   1.763   1.104   2.038  0.7914 -0.9810  0.1569
18132TIP3   OH275810   3.111   4.092   0.169 -0.2772  0.0726  0.5514
18132TIP3    H175811   3.164   4.146   0.228 -1.6306  1.9122  0.1648
18132TIP3    H275812   3.135   4.121   0.081 -0.0408 -0.9376  0.2725
18133TIP3   OH275813   4.266   5.616   4.384  0.1849  0.0933  0.2139
18133TIP3    H175814   4.317   5.638   4.306  1.6820 -0.7045  0.9095
18133TIP3    H275815   4.235   5.700   4.418  1.5466  0.6813  0.0643
18134TIP3   OH275816   5.928   1.291   5.007  0.0360  0.3183  0.4710
18134TIP3    H175817   5.861   1.238   5.050 -0.9470  1.4381  0.3719
18134TIP3    H275818   5.921   1.268   4.915 -0.7976  1.0088  0.3432
18135TIP3   OH275819   5.567   3.411  13.900  0.1805 -0.2268 -0.7864
18135TIP3    H175820   5.659   3.386  13.900  0.3638  0.2955 -2.7954
18135TIP3    H275821   5.519   3.329  13.895  0.4413 -0.5782  1.3901
18136TIP3   OH275822   0.951   2.654  15.671 -0.1948  0.8126  0.1700
18136TIP3    H175823   1.015   2.604  15.722 -1.4926 -1.1561 -0.0495
18136TIP3    H275824   0.879   2.669  15.731 -0.7463  0.5006 -0.4007
18137TIP3   OH275825   0.104   0.794  12.505  0.3072 -0.6628 -0.2443
18137TIP3    H175826   0.012   0.808  12.485  0.6295  0.1871 -1.2212
18137TIP3    H275827   0.124   0.858  12.574 -0.2863 -2.1785  1.4149
18138TIP3   OH275828   4.556   1.666   1.734 -0.3512  0.5442  0.0509
18138TIP3    H175829   4.545   1.611   1.657  0.1232  0.2283  0.2036
18138TIP3    H275830   4.501   1.626   1.801  1.5278 -0.9722  0.7840
18139TIP3   OH275831   4.783   4.955  16.807  0.1136 -0.3022 -0.1244
18139TIP3    H175832   4.780   4.901  16.728 -2.0365  0.2902 -0.5052
18139TIP3    H275833   4.699   4.938  16.851  0.4489  0.8584  1.0235
18140TIP3   OH275834   1.998   4.502  14.705 -0.3624 -0.0849  0.2561
18140TIP3    H175835   1.972   4.571  14.767  1.3035 -0.1112  1.0333
18140TIP3    H275836   2.055   4.444  14.756 -0.0071 -0.8431 -0.9676
18141TIP3   OH275837   6.788   6.488   2.540  0.3449  0.7143 -0.7519
18141TIP3    H175838   6.841   6.567   2.528 -0.7506  1.7336  0.8480
18141TIP3    H275839   6.698   6.520   2.544  0.0429 -0.1960  2.6785
18142TIP3   OH275840   5.998   3.087   6.315  0.6527  0.1025 -0.2566
18142TIP3    H175841   6.073   3.095   6.256  1.2264  3.0609  0.7095
18142TIP3    H275842   6.007   3.160   6.375 -1.6368 -0.9753  1.5450
18143TIP3   OH275843   0.379   3.118   2.976 -0.0328  0.2862  0.0424
18143TIP3    H175844   0.423   3.203   2.965 -0.1969  0.4803  0.8555
18143TIP3    H275845   0.366   3.087   2.886  0.3655  0.9468 -0.2569
18144TIP3   OH275846   5.042   0.346  10.838 -0.2405  0.2886  0.2091
18144TIP3    H175847   5.064   0.432  10.874 -2.1955 -0.0546  2.4421
18144TIP3    H275848   4.947   0.340  10.847 -0.6466 -0.7061 -3.2832
18145TIP3   OH275849   6.528   0.458  15.576 -0.3696 -0.2356 -0.4481
18145TIP3    H175850   6.593   0.391  15.556  0.9675  1.1092 -0.7644
18145TIP3    H275851   6.502   0.492  15.491  2.3562  2.7286 -0.2565
18146TIP3   OH275852   4.926   6.414  13.092  0.4440 -0.5298 -0.2067
18146TIP3    H175853   4.984   6.400  13.166 -1.4508  1.2053  1.7540
18146TIP3    H275854   4.942   6.505  13.066 -2.9014  0.9419  2.0658
18147TIP3   OH275855   0.332   5.233  13.534  0.1582  0.4462  0.2140
18147TIP3    H175856   0.366   5.224  13.623  0.1131  2.2085  0.4442
18147TIP3    H275857   0.241   5.260  13.546 -0.3190 -0.7979 -0.3943
18148TIP3   OH275858   4.045   4.284  11.512  0.3336 -0.2605  0.1262
18148TIP3    H175859   3.994   4.359  11.542  2.5568  0.9313  1.1700
18148TIP3    H275860   4.109   4.320  11.451  0.8805 -1.4500 -0.0418
18149TIP3   OH275861   0.979   3.128   3.488  0.4496 -0.2338  0.3457
18149TIP3    H175862   1.037   3.088   3.423  0.0767  1.7193 -1.2990
18149TIP3    H275863   0.896   3.141   3.442 -0.4496 -0.5244  1.8242
18150TIP3   OH275864   2.916   4.226  13.585  0.5022  0.3761 -0.1934
18150TIP3    H175865   2.844   4.174  13.622  2.3423 -1.3405  1.2215
18150TIP3    H275866   2.896   4.316  13.610 -0.3499 -0.2642  1.5811
18151TIP3   OH275867   6.553   2.343  14.607 -0.1764 -0.4573 -0.7372
18151TIP3    H175868   6.530   2.436  14.610 -1.7566 -0.8292  1.2175
18151TIP3    H275869   6.470   2.297  14.624  1.0568 -2.0802  1.5199
18152TIP3   OH275870   6.445   2.850   2.234  0.7191 -0.5625  0.3003
18152TIP3    H175871   6.500   2.901   2.293  1.1325 -1.1499  0.4361
18152TIP3    H275872   6.428   2.909   2.161  2.3611 -0.6664 -0.2261
18153TIP3   OH275873   5.470   5.638  12.227 -0.1796 -0.0873  0.2127
18153TIP3    H175874   5.389   5.645  12.176 -0.1753 -1.1548  0.0320
18153TIP3    H275875   5.448   5.578  12.299  0.5197 -0.6047  0.0051
18154TIP3   OH275876   3.839   0.739  11.932 -0.3581  0.2872  0.5086
18154TIP3    H175877   3.804   0.718  12.018 -0.1554  0.0577  0.5386
18154TIP3    H275878   3.836   0.834  11.926 -3.1478  0.2207 -0.3974
18155TIP3   OH275879   6.759   2.170   5.904  0.4365  0.5308  0.7886
18155TIP3    H175880   6.803   2.103   5.957  0.1982 -0.8255 -0.6472
18155TIP3    H275881   6.671   2.135   5.890  0.8554  0.1923 -1.5011
18156TIP3   OH275882   2.058   6.605   5.501 -0.0207  0.4103 -0.3759
18156TIP3    H175883   2.093   6.584   5.588 -0.1013  0.4513 -0.3335
18156TIP3    H275884   2.052   6.521   5.456  1.1643  0.5150 -0.7748
18157TIP3   OH275885   5.495   6.512  13.677 -0.3630  0.0926  0.4003
18157TIP3    H175886   5.580   6.554  13.673 -0.8396  1.0630  0.2742
18157TIP3    H275887   5.455   6.547  13.757 -0.7160 -0.2136  0.3602
18158TIP3   OH275888   6.704   3.441  14.900  0.1848  0.1400  0.3091
18158TIP3    H175889   6.792   3.433  14.936  0.4618  2.0746  0.1756
18158TIP3    H275890   6.715   3.429  14.806  0.0378 -1.1965  0.4478
18159TIP3   OH275891   0.565   0.089  14.246  0.1194  0.0570 -0.2981
18159TIP3    H175892   0.563   0.032  14.323 -0.7851  0.1270 -0.2563
18159TIP3    H275893   0.473   0.114  14.233  0.2346 -0.0981 -1.5066
18160TIP3   OH275894   1.302   2.325   3.269  0.3930 -0.2762 -0.0882
18160TIP3    H175895   1.271   2.239   3.297  1.7692 -0.0504  2.4757
18160TIP3    H275896   1.382   2.307   3.219  0.8007 -0.5297  0.6296
18161TIP3   OH275897   6.215   3.135  11.781  0.2318  0.3588 -0.5144
18161TIP3    H175898   6.287   3.108  11.724  0.7474  1.3075 -0.3204
18161TIP3    H275899   6.255   3.144  11.867 -0.7947 -2.4072  0.3743
18162TIP3   OH275900   2.482   4.231   2.669 -0.4675 -0.7152  0.3776
18162TIP3    H175901   2.438   4.249   2.586  0.2833 -0.0298  0.1164
18162TIP3    H275902   2.561   4.184   2.644  0.2132  0.2723  0.6062
18163TIP3   OH275903   4.199   1.350   2.781  0.7073  0.6059 -0.2571
18163TIP3    H175904   4.271   1.334   2.719  0.8693 -0.8267  0.2715
18163TIP3    H275905   4.138   1.406   2.733  1.0910 -0.0248 -1.5201
18164TIP3   OH275906   2.697   3.101   4.704 -0.0373 -0.0655 -0.3854
18164TIP3    H175907   2.658   3.187   4.720 -2.0997 -1.2236  1.2343
18164TIP3    H275908   2.751   3.084   4.781  1.0686  0.1204 -1.1021
18165TIP3   OH275909   6.724   2.944  10.871 -0.0240 -0.2258 -1.1484
18165TIP3    H175910   6.632   2.964  10.855  0.1604 -0.7374 -3.1433
18165TIP3    H275911   6.736   2.855  10.838  0.8867 -0.7484  0.4545
18166TIP3   OH275912   0.136   0.982  12.703  0.0324  0.1788  0.0778
18166TIP3    H175913   0.109   1.059  12.753 -0.8899  0.8082 -1.3288
18166TIP3    H275914   0.198   0.937  12.760 -1.0042  0.8312  1.7896
18167TIP3   OH275915   5.198   2.905  14.808 -0.2602  0.5972  0.2914
18167TIP3    H175916   5.122   2.947  14.849 -1.2657  0.0324 -0.9175
18167TIP3    H275917   5.245   2.864  14.881 -1.2772  0.7090  1.0313
18168TIP3   OH275918   6.398   0.894   1.702  0.3678 -0.2531  0.1014
18168TIP3    H175919   6.445   0.922   1.780  0.5453 -0.7478  0.1774
18168TIP3    H275920   6.307   0.920   1.718  0.6075  0.7158 -0.0491
18169TIP3   OH275921   4.481   0.637   2.415 -0.3716 -0.1472  0.0876
18169TIP3    H175922   4.559   0.626   2.470 -0.3431  0.8807  0.2916
18169TIP3    H275923   4.511   0.686   2.339 -1.0555  1.5620  0.8575
18170TIP3   OH275924   0.097   2.054  15.411  0.1632 -0.1381  0.3805
18170TIP3    H175925   0.034   1.984  15.399 -0.1022  0.0380  0.7572
18170TIP3    H275926   0.052   2.119  15.465  0.6635 -0.0127  0.6514
18171TIP3   OH275927   6.248   3.489  14.383  0.0535 -0.3904  0.3480
18171TIP3    H175928   6.198   3.415  14.349 -0.3217 -0.5317  1.1768
18171TIP3    H275929   6.229   3.490  14.477  3.2861 -1.8177  1.1928
18172TIP3   OH275930   0.874   6.207   0.435  0.1871 -0.4785  0.2591
18172TIP3    H175931   0.923   6.171   0.361 -0.6368  1.0347 -1.0781
18172TIP3    H275932   0.782   6.202   0.408 -0.0062  2.0960  0.1792
18173TIP3   OH275933   5.175   2.593  11.734  0.5689  0.3834  0.2997
18173TIP3    H175934   5.091   2.548  11.731  0.1879  1.0639  0.3916
18173TIP3    H275935   5.191   2.605  11.828  1.0559 -0.2621  0.3020
18174TIP3   OH275936   4.256   5.197   3.345 -0.3217  0.8433 -0.2002
18174TIP3    H175937   4.289   5.138   3.413  1.1615  0.2782 -1.3699
18174TIP3    H275938   4.256   5.283   3.387 -0.0642  0.4071  0.7243
18175TIP3   OH275939   4.765   1.565   1.888  0.4866 -0.6253 -0.1682
18175TIP3    H175940   4.699   1.624   1.854 -0.0911 -1.2528 -0.1667
18175TIP3    H275941   4.787   1.508   1.814  1.7906  0.2232 -0.4680
18176TIP3   OH275942   0.970   6.369  16.102 -0.2317  0.3472  0.3214
18176TIP3    H175943   0.968   6.395  16.194 -1.0335  2.9723 -0.3484
18176TIP3    H275944   0.992   6.449  16.055  2.9449 -1.4617 -1.6780
18177TIP3   OH275945   1.142   5.302   6.205 -0.3804 -0.2695  0.6411
18177TIP3    H175946   1.107   5.226   6.159  1.2877  0.4479 -2.0160
18177TIP3    H275947   1.201   5.266   6.271 -0.0179 -1.3068 -0.2269
18178TIP3   OH275948   6.497   6.629  13.759 -0.1243  0.2000 -0.5495
18178TIP3    H175949   6.448   6.697  13.805 -0.6246 -0.3094 -0.3194
18178TIP3    H275950   6.520   6.565  13.827 -0.9261 -0.5929 -0.9924
18179TIP3   OH275951   3.831   4.968   0.814 -0.2379 -0.6268 -0.6091
18179TIP3    H175952   3.901   4.939   0.872 -1.1634 -1.2722  0.2045
18179TIP3    H275953   3.840   4.912   0.736 -0.3143 -1.2253 -0.1923
18180TIP3   OH275954   0.058   2.322  12.496  0.1866 -0.0148 -0.2908
18180TIP3    H175955  -0.027   2.289  12.526  1.2617 -1.8537  0.9016
18180TIP3    H275956   0.061   2.412  12.528 -1.6857  0.4416 -1.2198
18181TIP3   OH275957   2.967   5.252   0.968  0.2714 -0.3473  0.1961
18181TIP3    H175958   3.011   5.209   1.042  2.6917 -1.9329 -2.0133
18181TIP3    H275959   2.933   5.181   0.915  0.6537  0.6300 -1.4171
18182TIP3   OH275960   6.337   6.052   2.148 -0.0299 -0.6042  0.8288
18182TIP3    H175961   6.265   5.995   2.119 -2.2793  1.4596  1.9468
18182TIP3    H275962   6.375   6.086   2.067 -0.9330 -1.0510  0.1928
18183TIP3   OH275963   1.792   3.932  15.404 -0.2635 -0.8360  0.7619
18183TIP3    H175964   1.781   3.873  15.330 -1.2188  0.0764  0.1542
18183TIP3    H275965   1.722   3.908  15.465 -1.2189  0.2100  0.1200
18184TIP3   OH275966   2.632   3.679  12.098  0.1162 -0.0301 -0.2991
18184TIP3    H175967   2.548   3.706  12.061 -0.4423 -0.5798  0.5371
18184TIP3    H275968   2.659   3.605  12.044 -0.2635 -0.2734 -0.1621
18185TIP3   OH275969   3.023   2.638   1.772 -0.2149 -0.1699  0.1679
18185TIP3    H175970   3.095   2.626   1.710  0.2777  0.6828  0.5510
18185TIP3    H275971   2.978   2.717   1.741  0.3370  0.5567  1.1593
18186TIP3   OH275972   1.799   1.330   0.706  0.6745 -0.2858 -0.6271
18186TIP3    H175973   1.768   1.252   0.751 -0.1307  0.1414 -0.4308
18186TIP3    H275974   1.732   1.396   0.722  1.3037  0.4287 -0.8574
18187TIP3   OH275975   3.397   0.318  15.386  0.7501 -0.3109 -0.3652
18187TIP3    H175976   3.397   0.223  15.398 -0.3424 -0.4476 -1.2453
18187TIP3    H275977   3.304   0.341  15.379  1.0488  0.5681 -1.9286
18188TIP3   OH275978   2.089   0.446  13.379 -0.0422 -0.5347 -0.1044
18188TIP3    H175979   2.072   0.392  13.456 -0.8361 -0.4024 -0.1804
18188TIP3    H275980   2.027   0.519  13.386  1.0701  0.4332  0.0386
18189TIP3   OH275981   2.080   5.908   2.990  0.0699  0.3547 -0.7708
18189TIP3    H175982   1.994   5.945   3.008  0.2496  0.4184 -0.0313
18189TIP3    H275983   2.134   5.935   3.064  0.4295 -0.6528 -0.6484
18190TIP3   OH275984   4.770   6.329   5.875 -0.0367 -0.0009  0.0559
18190TIP3    H175985   4.707   6.397   5.852  0.7792  0.5376 -0.6439
18190TIP3    H275986   4.718   6.249   5.879 -0.8242  0.4944 -0.1584
18191TIP3   OH275987   3.768   5.030  11.436 -0.3133  0.7123  0.4755
18191TIP3    H175988   3.799   5.000  11.351 -1.6480 -0.7105  0.4673
18191TIP3    H275989   3.673   5.031  11.429 -0.5205 -0.6780  2.3156
18192TIP3   OH275990   1.682   3.276  14.766 -1.2229 -0.1361 -0.0779
18192TIP3    H175991   1.764   3.325  14.756 -0.5762 -0.7245  1.9801
18192TIP3    H275992   1.616   3.343  14.780 -0.7715  0.2672  0.1477
18193TIP3   OH275993   5.963   6.294  11.383 -0.2356 -0.5884 -0.5064
18193TIP3    H175994   6.011   6.234  11.326  0.1535  0.0049 -0.8161
18193TIP3    H275995   5.986   6.381  11.351 -0.0719 -0.2413  0.5129
18194TIP3   OH275996   2.951   6.093  13.954  0.3686  0.1643 -0.0813
18194TIP3    H175997   2.869   6.092  14.003  0.2752 -0.8257 -0.2475
18194TIP3    H275998   2.998   6.170  13.987 -0.8727  1.0937 -0.4058
18195TIP3   OH275999   0.783   3.591  12.574  0.9356  0.0450  0.1147
18195TIP3    H176000   0.756   3.509  12.534 -0.8177  0.3632  0.5701
18195TIP3    H276001   0.824   3.640  12.503 -1.9824  0.5494 -1.3816
18196TIP3   OH276002   6.566   4.427  12.053 -0.2013 -0.1681  0.3398
18196TIP3    H176003   6.518   4.346  12.035 -0.7617  0.1262  0.4744
18196TIP3    H276004   6.576   4.469  11.968 -1.3306  0.3900  0.4597
18197TIP3   OH276005   1.736   3.476   1.782  0.4205  0.1721 -0.0186
18197TIP3    H176006   1.779   3.391   1.769 -1.4113 -1.5049  3.5178
18197TIP3    H276007   1.808   3.539   1.791  1.8239 -0.8992 -2.6622
18198TIP3   OH276008   5.694   5.590   6.105  0.2954 -0.0582  0.1738
18198TIP3    H176009   5.742   5.591   6.188  1.0968 -1.4839 -0.2399
18198TIP3    H276010   5.604   5.612   6.130  0.1526 -2.0220  1.6992
18199TIP3   OH276011   3.152   5.854   5.952  0.3928 -0.5856 -0.1908
18199TIP3    H176012   3.177   5.876   5.862  0.5229 -1.1761 -0.3066
18199TIP3    H276013   3.210   5.907   6.007 -0.7946  1.0359 -0.4248
18200TIP3   OH276014   5.267   5.062  13.674 -0.3372 -0.1217 -0.3232
18200TIP3    H176015   5.263   5.029  13.584  0.8029 -2.1705  0.3019
18200TIP3    H276016   5.190   5.023  13.717  0.7532 -1.7054  0.2968
18201TIP3   OH276017   5.500   0.237  15.736  0.6251 -0.0634  0.2700
18201TIP3    H176018   5.534   0.159  15.779  1.4821  0.5719  0.7659
18201TIP3    H276019   5.515   0.222  15.643  1.7123 -0.0699  0.4341
18202TIP3   OH276020   3.428   1.603  12.255 -0.1278 -0.5041 -0.1082
18202TIP3    H176021   3.467   1.599  12.168  0.0463  1.4984 -0.1727
18202TIP3    H276022   3.334   1.615  12.240  0.0430  1.1709 -0.1072
18203TIP3   OH276023   4.948   6.268  10.051  0.1330 -0.1094  0.1732
18203TIP3    H176024   4.999   6.343  10.082 -0.3532  0.0514  0.5930
18203TIP3    H276025   4.896   6.241  10.127  1.1517 -1.6072  0.3752
18204TIP3   OH276026   0.088   6.385   1.097  0.2209 -0.1312  0.5809
18204TIP3    H176027   0.003   6.357   1.063  0.4644  0.1622 -0.2938
18204TIP3    H276028   0.067   6.455   1.160 -0.1611  0.2617  0.0218
18205TIP3   OH276029   5.613   5.001  12.774 -0.0733 -0.6578  0.2113
18205TIP3    H176030   5.668   4.949  12.717 -1.0289  0.0860 -1.4684
18205TIP3    H276031   5.667   5.076  12.798 -0.0452 -0.3471 -0.7599
18206TIP3   OH276032   3.191   3.337   0.540  0.6271  0.1904  0.1425
18206TIP3    H176033   3.240   3.320   0.460  1.6619 -1.6476  1.1277
18206TIP3    H276034   3.256   3.337   0.610 -0.3223  1.2709  1.0801
18207TIP3   OH276035   4.989   0.529  10.621 -0.2854 -0.0100 -0.1317
18207TIP3    H176036   5.022   0.459  10.676 -0.1853 -0.4208 -0.7051
18207TIP3    H276037   4.921   0.572  10.673 -0.5589 -0.7231  0.0985
18208TIP3   OH276038   1.383   3.686  14.311  0.0933  0.3243 -0.3089
18208TIP3    H176039   1.388   3.669  14.406 -0.5501 -1.1027 -0.5054
18208TIP3    H276040   1.465   3.650  14.277  0.3691  0.9283 -0.2822
18209TIP3   OH276041   2.443   6.590   1.727  0.4766 -0.6915 -0.3151
18209TIP3    H176042   2.365   6.555   1.684  0.0870 -0.0535 -0.1535
18209TIP3    H276043   2.496   6.626   1.656  1.3371 -2.4014 -0.5961
18210TIP3   OH276044   6.182   1.698   6.046 -0.0826  0.0894 -0.5093
18210TIP3    H176045   6.252   1.691   6.112 -1.4227 -1.3443  0.8423
18210TIP3    H276046   6.108   1.653   6.086 -1.3503  0.3176 -2.5104
18211TIP3   OH276047   2.875   4.648   0.095 -0.3716 -0.6571 -0.3768
18211TIP3    H176048   2.805   4.586   0.077  0.0280 -0.7516 -1.7014
18211TIP3    H276049   2.923   4.655   0.013  0.0397  0.8373 -0.0495
18212TIP3   OH276050   0.777   0.718   2.016 -0.6214 -0.0047  0.0168
18212TIP3    H176051   0.831   0.796   2.030  0.1262  0.1611 -2.9819
18212TIP3    H276052   0.688   0.748   2.035 -0.0908  0.8248  1.3461
18213TIP3   OH276053   2.428   6.212   3.188  0.2877  0.3271  0.1771
18213TIP3    H176054   2.405   6.122   3.163  4.2587 -1.2683  1.4073
18213TIP3    H276055   2.419   6.262   3.107 -2.6214 -0.9358 -0.4076
18214TIP3   OH276056   2.702   1.939  16.117 -0.6218  0.1055 -0.0036
18214TIP3    H176057   2.634   1.878  16.088  1.1183 -2.2269  0.4747
18214TIP3    H276058   2.658   2.023  16.124 -2.8146 -0.7228 -2.2743
18215TIP3   OH276059   0.976   3.916   1.114 -0.1795  0.6114 -0.0045
18215TIP3    H176060   1.047   3.852   1.116  0.2534  1.0898  1.4549
18215TIP3    H276061   0.962   3.938   1.206 -2.3897  0.3638 -0.2286
18216TIP3   OH276062   2.448   6.432  12.162  0.2901  0.2993  0.2786
18216TIP3    H176063   2.421   6.457  12.250  0.9853 -1.1932  0.9394
18216TIP3    H276064   2.386   6.365  12.135  0.0086  0.8253 -0.4412
18217TIP3   OH276065   4.436   6.429   1.177 -0.0179 -0.0399 -0.3294
18217TIP3    H176066   4.509   6.446   1.236  1.0785  0.5222 -1.7967
18217TIP3    H276067   4.370   6.494   1.201  0.7409  0.7214 -0.2421
18218TIP3   OH276068   0.434   4.122  15.986  0.5178 -0.0932 -0.2880
18218TIP3    H176069   0.509   4.162  16.030 -0.6329 -0.5867  2.2689
18218TIP3    H276070   0.442   4.029  16.003 -2.1663  0.0700  2.7220
18219TIP3   OH276071   3.970   4.203   5.272  0.0163 -0.8307 -0.7086
18219TIP3    H176072   4.052   4.205   5.222  0.3672 -0.2193 -0.1206
18219TIP3    H276073   3.996   4.217   5.363 -0.7590 -0.3148 -0.5491
18220TIP3   OH276074   3.084   5.658   5.698  0.0477 -0.0618 -0.3502
18220TIP3    H176075   3.173   5.666   5.732  0.2093  1.6170 -1.0505
18220TIP3    H276076   3.083   5.573   5.654  1.1308 -0.3430  0.1308
18221TIP3   OH276077   6.754   0.908  11.318  0.1610  0.4525  1.1951
18221TIP3    H176078   6.746   0.865  11.403  0.7293 -0.1124  0.9738
18221TIP3    H276079   6.848   0.911  11.302  0.0430  0.2202  0.4218
18222TIP3   OH276080   0.487   1.031  12.235  0.2361 -0.2110  0.7287
18222TIP3    H176081   0.522   1.103  12.184 -0.0483 -1.0371 -0.6876
18222TIP3    H276082   0.531   1.037  12.320  1.4977  0.5827  0.0383
18223TIP3   OH276083   1.424   4.798   2.860 -0.0222  0.4869 -0.3172
18223TIP3    H176084   1.518   4.784   2.850  0.2864  1.0675  1.4723
18223TIP3    H276085   1.385   4.713   2.838  0.8395  0.4088 -1.6763
18224TIP3   OH276086   4.177   3.414   6.192 -0.1749 -0.1892 -0.1954
18224TIP3    H176087   4.086   3.440   6.181 -0.4357 -0.3817  1.2403
18224TIP3    H276088   4.205   3.456   6.273  1.6347  1.4111 -1.5638
18225TIP3   OH276089   2.477   6.289   4.743  0.1421 -0.0782  0.0480
18225TIP3    H176090   2.516   6.285   4.656  0.5096  0.2272  0.1955
18225TIP3    H276091   2.479   6.199   4.775 -1.3609 -0.4544 -0.8497
18226TIP3   OH276092   1.444   5.828  11.721  0.3435 -0.0696 -0.3044
18226TIP3    H176093   1.498   5.794  11.792  3.0550  1.6360 -1.3714
18226TIP3    H276094   1.466   5.773  11.646 -0.6393 -0.3549 -0.3854
18227TIP3   OH276095   2.683   6.757   1.064 -0.2531  0.1859  0.2763
18227TIP3    H176096   2.666   6.686   1.126  1.6517 -0.1913  0.4443
18227TIP3    H276097   2.654   6.724   0.980 -3.4652  0.9327  0.9655
18228TIP3   OH276098   1.234   4.792   1.198  0.1620  0.4529  0.0400
18228TIP3    H176099   1.297   4.762   1.263 -0.8403 -1.6446  0.1195
18228TIP3    H276100   1.153   4.804   1.247 -0.4207 -0.4648 -0.6698
18229TIP3   OH276101   3.293   4.439  10.984 -0.0321  0.2110 -0.2968
18229TIP3    H176102   3.274   4.356  11.029  0.8185  0.3008  0.2496
18229TIP3    H276103   3.367   4.419  10.927  1.8367  1.1666  1.6890
18230TIP3   OH276104   5.254   1.803  12.621 -0.5856  0.2009 -0.1346
18230TIP3    H176105   5.300   1.848  12.550 -0.4104  1.5619  0.8138
18230TIP3    H276106   5.172   1.772  12.581  0.4465 -0.9534 -1.4616
18231TIP3   OH276107   1.780   5.147   0.997 -0.1125  0.0234 -0.1983
18231TIP3    H176108   1.762   5.208   1.069 -1.4062 -1.4352  0.7804
18231TIP3    H276109   1.875   5.142   0.992  0.1260 -1.9547  3.3568
18232TIP3   OH276110   0.215   1.191   5.353  0.5704 -0.0367  0.2460
18232TIP3    H176111   0.147   1.131   5.384  0.7717 -0.6769 -0.5076
18232TIP3    H276112   0.248   1.233   5.432 -2.0033  1.7520  0.4877
18233TIP3   OH276113   2.204   2.359  13.278 -0.0867  0.1529 -0.9994
18233TIP3    H176114   2.265   2.432  13.265  2.0440 -1.0848  1.1646
18233TIP3    H276115   2.118   2.400  13.279  0.9982  2.6335 -0.1186
18234TIP3   OH276116   0.568   1.537   0.308  0.2525  0.5216 -0.2920
18234TIP3    H176117   0.660   1.517   0.290 -0.0185 -0.1337 -1.0174
18234TIP3    H276118   0.527   1.543   0.221 -0.8967 -1.7520  0.0253
18235TIP3   OH276119   5.998   4.841  13.167 -0.1155 -0.7584  0.0257
18235TIP3    H176120   6.050   4.922  13.164  0.4197 -1.1240 -1.1740
18235TIP3    H276121   6.009   4.810  13.257 -0.1128  0.3579  0.4327
18236TIP3   OH276122   1.090   3.684  12.483 -0.3828 -0.0340 -0.5844
18236TIP3    H176123   1.111   3.615  12.420  0.6203  0.0906 -0.3968
18236TIP3    H276124   1.016   3.730  12.443 -1.6601 -1.7367 -0.3016
18237TIP3   OH276125   3.054   6.021   3.108 -0.6743 -0.3886 -0.0763
18237TIP3    H176126   3.100   6.086   3.054 -0.0758  0.6439  1.5937
18237TIP3    H276127   3.018   5.959   3.045  1.3934 -0.1762 -1.5838
18238TIP3   OH276128   3.056   1.255  13.802 -0.2622  0.0709  0.1514
18238TIP3    H176129   3.000   1.186  13.769  0.4846 -0.8793  0.8200
18238TIP3    H276130   3.014   1.336  13.773  0.8235 -0.6027 -3.9439
18239TIP3   OH276131   4.841   4.913   0.449  0.2295  0.2754 -0.0896
18239TIP3    H176132   4.876   4.971   0.381  0.3285  1.1955  0.7287
18239TIP3    H276133   4.749   4.937   0.456 -0.3333 -1.2880 -1.3589
18240TIP3   OH276134   4.670   0.772   6.587  0.4706 -0.2286  0.4121
18240TIP3    H176135   4.576   0.793   6.587  1.1419  3.2858 -0.5842
18240TIP3    H276136   4.681   0.711   6.514 -0.9668 -0.5629  0.4323
18241TIP3   OH276137   4.852   6.007  16.131  0.4919  0.4259 -0.3692
18241TIP3    H176138   4.927   5.975  16.081 -0.9383 -1.9195 -1.1588
18241TIP3    H276139   4.832   5.937  16.193 -0.9962  1.0341 -0.1112
18242TIP3   OH276140   3.951   0.278  17.053  0.0992  0.7934 -0.5976
18242TIP3    H176141   4.000   0.198  17.035  0.3461  0.8479 -0.1658
18242TIP3    H276142   3.883   0.251  17.115 -0.1712  0.8042 -0.8830
18243TIP3   OH276143   3.691   4.218   4.271  0.3731  0.4667  0.1554
18243TIP3    H176144   3.719   4.139   4.225  3.0257  1.6035 -0.4004
18243TIP3    H276145   3.769   4.247   4.319 -0.4101  2.8779  0.1228
18244TIP3   OH276146   1.581   0.627  14.270  0.4922  0.6134 -0.0270
18244TIP3    H176147   1.491   0.619  14.240  0.2879  0.9172  0.5012
18244TIP3    H276148   1.633   0.624  14.190  0.2156 -2.2881 -0.2098
18245TIP3   OH276149   3.636   1.435  14.068 -0.0372  0.2753  0.4915
18245TIP3    H176150   3.647   1.435  14.163  1.9928 -2.0246  0.3620
18245TIP3    H276151   3.725   1.436  14.034 -0.5559 -2.4062 -1.2666
18246TIP3   OH276152   0.407   1.030  15.436  0.0217 -0.6886 -0.1722
18246TIP3    H176153   0.341   1.061  15.497  1.5663 -0.7747  1.6306
18246TIP3    H276154   0.392   0.936  15.428 -1.1734 -0.4316 -1.2262
18247TIP3   OH276155   4.064   1.630  14.916 -0.3881 -0.3866 -0.2662
18247TIP3    H176156   3.983   1.661  14.956  0.8521  1.0398  1.3337
18247TIP3    H276157   4.078   1.543  14.953  0.4040  0.6532  2.0826
18248TIP3   OH276158   0.119   2.455  13.500 -0.0448 -0.4631  0.2630
18248TIP3    H176159   0.056   2.383  13.504 -0.1713 -0.3216  0.9515
18248TIP3    H276160   0.102   2.507  13.578  0.3470  0.0694  0.0077
18249TIP3   OH276161   1.946   4.160  15.405  0.0488  0.3637 -0.1185
18249TIP3    H176162   1.889   4.222  15.449  1.1732 -0.2754  2.4406
18249TIP3    H276163   1.908   4.074  15.424 -1.2703  0.1250 -3.2816
18250TIP3   OH276164   2.671   1.592  12.694 -0.1300 -0.0065  0.2677
18250TIP3    H176165   2.638   1.576  12.606 -0.1592  2.1492 -0.1868
18250TIP3    H276166   2.756   1.635  12.680 -0.5928  1.3018  1.2145
18251TIP3   OH276167   4.019   1.296  14.344 -0.2432  0.2054  0.6185
18251TIP3    H176168   3.958   1.226  14.321 -0.5313  0.8241 -0.5716
18251TIP3    H276169   4.082   1.254  14.404 -2.1846 -0.2850  2.4594
18252TIP3   OH276170   0.351   0.039   3.026 -0.8382 -0.3960  0.6175
18252TIP3    H176171   0.409  -0.029   2.991  1.0812  0.1205  2.5852
18252TIP3    H276172   0.393   0.121   3.000 -1.2331 -0.0049  1.1953
18253TIP3   OH276173   0.508   4.245   2.532  0.0943 -0.0637 -0.4103
18253TIP3    H176174   0.493   4.263   2.439 -2.4152 -0.5581 -0.1681
18253TIP3    H276175   0.553   4.160   2.533 -0.6240 -0.4674 -1.1681
18254TIP3   OH276176   1.175   5.914   3.065  0.6354  0.1144  0.0796
18254TIP3    H176177   1.212   5.845   3.011  1.7092 -0.3190  1.2952
18254TIP3    H276178   1.096   5.942   3.020  1.2778 -0.5011 -1.4681
18255TIP3   OH276179   6.176   6.053   0.450  0.0563 -0.1992  0.1874
18255TIP3    H176180   6.126   6.129   0.479  0.6841  0.4437 -0.3824
18255TIP3    H276181   6.234   6.033   0.523 -1.4411 -1.3567  1.1227
18256TIP3   OH276182   6.568   0.688   2.231  0.4092  0.2822 -0.4736
18256TIP3    H176183   6.484   0.643   2.232 -0.1624  1.2640 -1.8251
18256TIP3    H276184   6.550   0.773   2.190  1.8704  0.8942  0.0623
18257TIP3   OH276185   6.649   3.702   2.087  0.1784 -0.4731  0.0705
18257TIP3    H176186   6.711   3.644   2.042  0.4461  1.1409 -1.8002
18257TIP3    H276187   6.701   3.778   2.112 -0.7211  0.2075 -0.0910
18258TIP3   OH276188   3.815   4.181   0.352  0.2971 -0.5570  0.2546
18258TIP3    H176189   3.831   4.219   0.266 -0.1048 -0.1279  0.3619
18258TIP3    H276190   3.726   4.210   0.375 -0.0604 -1.6443  0.3086
18259TIP3   OH276191   2.450   0.899   3.788 -0.2770 -0.5164  0.3927
18259TIP3    H176192   2.390   0.855   3.848 -1.0918  0.9430  0.7123
18259TIP3    H276193   2.533   0.902   3.836 -0.3206 -1.3463  0.5206
18260TIP3   OH276194   3.570   0.644  14.120  0.1047 -0.2627  0.3613
18260TIP3    H176195   3.527   0.646  14.206  1.8727 -0.0004  1.3012
18260TIP3    H276196   3.524   0.576  14.071 -3.1009  1.7946  0.2678
18261TIP3   OH276197   5.293   3.532   1.064 -0.4517  0.0446  0.5941
18261TIP3    H176198   5.305   3.607   1.123  0.7203 -0.2554  0.7611
18261TIP3    H276199   5.198   3.521   1.059 -0.7014  2.0476 -0.0830
18262TIP3   OH276200   2.319   5.598  15.440  0.5938 -0.1089  0.0906
18262TIP3    H176201   2.261   5.633  15.508 -0.9553  1.1604 -1.8056
18262TIP3    H276202   2.344   5.674  15.388  0.2225 -1.2784 -1.8889
18263TIP3   OH276203   0.248   6.374   3.049 -0.2092  0.1843  0.4110
18263TIP3    H176204   0.309   6.429   3.099 -1.9468  3.4698 -0.8051
18263TIP3    H276205   0.166   6.422   3.051 -1.3783 -1.4930 -2.3403
18264TIP3   OH276206   6.752   0.682   1.256  0.1964  0.1537 -0.3428
18264TIP3    H176207   6.739   0.591   1.228  2.9339 -1.5154  3.0038
18264TIP3    H276208   6.843   0.702   1.232 -0.2158  1.8916 -0.6081
18265TIP3   OH276209   4.098   3.942   6.210 -0.4305  0.6144  0.3369
18265TIP3    H176210   4.057   3.856   6.203  0.0551  0.3401  0.8044
18265TIP3    H276211   4.032   3.996   6.254 -0.8472  0.5669 -0.2120
18266TIP3   OH276212   0.808   6.219   3.630  0.1446 -0.0884 -0.2514
18266TIP3    H176213   0.799   6.170   3.712 -1.5834 -1.0170 -0.9284
18266TIP3    H276214   0.723   6.262   3.619  0.3074 -0.0623 -1.5942
18267TIP3   OH276215   1.442   5.834   2.852 -0.6714  0.2743  0.3209
18267TIP3    H176216   1.358   5.847   2.809 -1.3587 -0.2097  1.4459
18267TIP3    H276217   1.507   5.847   2.784 -1.6934 -0.1176 -0.7609
18268TIP3   OH276218   1.475   1.588   4.727  0.4464  1.0000 -0.6410
18268TIP3    H176219   1.453   1.671   4.769  0.0969  1.0299 -0.8768
18268TIP3    H276220   1.564   1.568   4.758 -0.5722 -0.0761  1.8578
18269TIP3   OH276221   4.092   3.233   2.375 -0.0643  0.5204 -0.3279
18269TIP3    H176222   4.109   3.258   2.284 -0.4120  1.2980 -0.1855
18269TIP3    H276223   4.102   3.138   2.376  1.1852  0.6345 -0.9008
18270TIP3   OH276224   1.367   2.687   4.424 -0.2059 -0.0386  0.0544
18270TIP3    H176225   1.399   2.706   4.336  1.0051 -1.5927  0.1157
18270TIP3    H276226   1.352   2.592   4.424 -1.5954  0.1426  1.0942
18271TIP3   OH276227   1.913   4.264   5.793 -0.0905 -0.7079  0.2244
18271TIP3    H176228   1.820   4.282   5.782  0.3565  1.0483 -1.0327
18271TIP3    H276229   1.948   4.342   5.836  0.9356 -1.0094 -0.0362
18272TIP3   OH276230   4.538   2.374   4.859 -0.3358 -0.1931 -0.7789
18272TIP3    H176231   4.516   2.365   4.766 -1.0685 -2.5706 -0.4565
18272TIP3    H276232   4.504   2.294   4.899  0.4576  0.5169  1.4589
18273TIP3   OH276233   1.380   2.284  14.862  0.2397 -0.4531  0.0589
18273TIP3    H176234   1.333   2.357  14.823 -0.8602 -0.1526  1.8324
18273TIP3    H276235   1.360   2.289  14.955  0.0777 -3.0298  0.2556
18274TIP3   OH276236   5.000   6.646  16.792 -0.5115  0.3669  0.4292
18274TIP3    H176237   5.066   6.642  16.862 -1.1369 -2.3951  0.9458
18274TIP3    H276238   4.931   6.702  16.827 -0.2098  0.0974  1.4825
18275TIP3   OH276239   0.624   1.469  13.507  0.0661 -0.4873  0.1944
18275TIP3    H176240   0.532   1.446  13.501  0.3274 -1.6916  0.5136
18275TIP3    H276241   0.670   1.395  13.468  0.9345 -0.2875  0.8070
18276TIP3   OH276242   6.290   6.343   1.004 -0.0784  0.3045  0.2421
18276TIP3    H176243   6.247   6.412   1.054 -0.6561  0.7784 -0.8711
18276TIP3    H276244   6.246   6.263   1.031 -0.5138  0.5748  0.3515
18277TIP3   OH276245   1.969   2.131  14.230 -0.8355  0.2898  0.1064
18277TIP3    H176246   1.975   2.116  14.136  0.2582  3.4453 -0.4453
18277TIP3    H276247   1.880   2.165  14.243 -0.2964  1.9582 -0.2422
18278TIP3   OH276248   5.976   5.324  16.364  0.2178  0.5531  0.2139
18278TIP3    H176249   5.987   5.419  16.360  1.5038  0.3870 -1.0521
18278TIP3    H276250   6.051   5.293  16.415 -0.1966  0.2091  0.6228
18279TIP3   OH276251   5.020   3.948  16.574  0.0903 -0.3403  0.0745
18279TIP3    H176252   5.074   3.875  16.544 -0.5794 -0.6457 -0.4058
18279TIP3    H276253   4.950   3.907  16.625 -1.3129 -0.2176 -1.6710
18280TIP3   OH276254   5.958   5.093   5.738  0.3064  0.2494 -0.4064
18280TIP3    H176255   6.005   5.152   5.680 -0.7324  1.2147 -0.3099
18280TIP3    H276256   5.900   5.150   5.788  1.1712 -0.5281  1.6163
18281TIP3   OH276257   1.557   5.104  13.349 -0.2609  0.1238  0.3200
18281TIP3    H176258   1.612   5.144  13.281  0.7165 -0.2525  0.8665
18281TIP3    H276259   1.612   5.105  13.427 -1.4336  0.7227  1.1651
18282TIP3   OH276260   1.682   5.045  13.709  0.3818 -0.3137 -0.3411
18282TIP3    H176261   1.625   5.093  13.770 -1.3798 -1.4965 -0.9704
18282TIP3    H276262   1.641   4.959  13.700 -0.0190  0.0882 -3.8836
18283TIP3   OH276263   2.053   4.422   5.394 -0.1792 -0.6369 -0.0152
18283TIP3    H176264   2.130   4.444   5.340 -0.5995 -0.3784 -0.5198
18283TIP3    H276265   2.029   4.504   5.436 -0.4204 -0.6227 -0.1772
18284TIP3   OH276266   4.290   1.146  16.760  0.3056  0.0131  0.4315
18284TIP3    H176267   4.345   1.223  16.749  1.0906 -0.7920 -1.8403
18284TIP3    H276268   4.282   1.135  16.855  1.6380  1.8249  0.7999
18285TIP3   OH276269   5.306   5.874   4.932 -0.0692 -0.7339 -0.6744
18285TIP3    H176270   5.327   5.852   5.023  1.0301  1.0768 -0.4459
18285TIP3    H276271   5.242   5.944   4.939  0.3146 -0.3148 -1.2693
18286TIP3   OH276272   0.532   3.472  15.480 -0.1858 -0.2880  0.7922
18286TIP3    H176273   0.558   3.387  15.445  0.3693 -0.3045  1.2257
18286TIP3    H276274   0.611   3.505  15.525 -0.2131  0.7138  0.1447
18287TIP3   OH276275   6.331   4.990  11.892  1.0239  0.0626 -0.0764
18287TIP3    H176276   6.277   4.999  11.813  1.1905  1.4491 -0.0600
18287TIP3    H276277   6.295   4.914  11.937  0.8500 -0.6845 -1.4238
18288TIP3   OH276278   3.027   6.398  13.189  0.1000 -0.1740  0.3213
18288TIP3    H176279   3.041   6.336  13.260 -2.8106  1.6261  2.7067
18288TIP3    H276280   3.109   6.446  13.182  0.5024 -0.4744  2.4597
18289TIP3   OH276281   5.465   4.475  15.239  0.1115  0.4728 -0.3230
18289TIP3    H176282   5.519   4.451  15.314  0.6625 -0.7111 -1.0675
18289TIP3    H276283   5.491   4.414  15.170 -1.7726  0.2316 -0.8792
18290TIP3   OH276284   5.503   1.771   4.139 -0.2892  0.1650 -0.1667
18290TIP3    H176285   5.538   1.712   4.073 -0.3163 -1.7023  1.3994
18290TIP3    H276286   5.579   1.817   4.173  0.3580 -1.8171  1.2488
18291TIP3   OH276287   3.711   1.400  14.879  0.1988  0.4053 -0.0169
18291TIP3    H176288   3.628   1.446  14.894  0.2119  0.5703 -0.4412
18291TIP3    H276289   3.698   1.353  14.796 -0.0061 -0.7958  0.6722
18292TIP3   OH276290   2.224   1.175  16.151 -0.0195  0.4374 -0.1267
18292TIP3    H176291   2.198   1.263  16.180 -2.3620 -0.1343 -0.3347
18292TIP3    H276292   2.250   1.130  16.231 -0.8987  0.6661  0.2965
18293TIP3   OH276293   6.018   4.246  12.501 -0.3282 -0.3301  0.1099
18293TIP3    H176294   5.933   4.260  12.543 -0.8684  0.3542 -1.1334
18293TIP3    H276295   6.001   4.175  12.438  0.0918 -0.3575  0.0279
18294TIP3   OH276296   0.019   5.185  10.633 -1.4933  0.1752 -0.1515
18294TIP3    H176297  -0.001   5.140  10.715 -0.8457  2.2842  1.2596
18294TIP3    H276298  -0.007   5.276  10.650 -1.1582  0.6949 -2.2431
18295TIP3   OH276299   3.552   2.504   0.367 -0.8051 -0.3618  0.0694
18295TIP3    H176300   3.576   2.596   0.358 -3.5202  0.3793 -0.3052
18295TIP3    H276301   3.477   2.504   0.426 -0.8912 -2.3416  0.0297
18296TIP3   OH276302   2.039   3.454  15.724  0.1112  0.1160  0.0326
18296TIP3    H176303   2.092   3.478  15.649  0.7283  0.3139  0.5197
18296TIP3    H276304   2.091   3.388  15.771  0.2644  0.8446  0.9142
18297TIP3   OH276305   6.546   2.924   0.099 -0.6201 -0.2621 -0.7958
18297TIP3    H176306   6.531   2.897   0.190  1.7022  2.6137  0.6066
18297TIP3    H276307   6.491   3.001   0.087  1.6832  1.5267 -0.5122
18298TIP3   OH276308   4.331   1.696   0.830  0.2059 -0.3856 -0.3935
18298TIP3    H176309   4.275   1.771   0.846 -0.1317 -0.5223 -0.8960
18298TIP3    H276310   4.361   1.707   0.739  0.5287 -0.6122 -0.3188
18299TIP3   OH276311   2.886   2.380  14.193  0.1271  0.1815  0.4442
18299TIP3    H176312   2.808   2.367  14.247 -0.8144 -0.3447 -0.9736
18299TIP3    H276313   2.872   2.323  14.117  2.1009 -0.2530  0.3451
18300TIP3   OH276314   3.161   0.449   0.313  0.5094  0.2594 -0.3877
18300TIP3    H176315   3.246   0.494   0.314  0.8547 -0.3820  0.8752
18300TIP3    H276316   3.160   0.398   0.393 -1.1328  0.3362 -0.3269
18301TIP3   OH276317   0.001   5.130   4.336  0.2233 -0.3824  0.0256
18301TIP3    H176318  -0.007   5.035   4.323 -0.2894 -0.2550 -0.6623
18301TIP3    H276319   0.086   5.141   4.379 -0.9983 -1.3861  2.9607
18302TIP3   OH276320   5.760   4.079  16.463 -0.2306  0.1295 -0.1008
18302TIP3    H176321   5.827   4.119  16.518 -0.6357  1.0843 -0.2865
18302TIP3    H276322   5.681   4.081  16.517 -0.2416 -0.4980 -0.0851
18303TIP3   OH276323   2.539   6.732  11.784  1.2956  0.8567 -0.0197
18303TIP3    H176324   2.576   6.770  11.704  0.9488  2.7260  0.6774
18303TIP3    H276325   2.462   6.785  11.803 -0.2134 -1.2511  0.1064
18304TIP3   OH276326   1.138   4.214  15.631 -0.0716  0.0922  0.2799
18304TIP3    H176327   1.051   4.173  15.635 -0.1070  0.1845  0.4435
18304TIP3    H276328   1.197   4.142  15.610 -0.2692  0.1391 -0.4871
18305TIP3   OH276329   0.991   2.629   2.464 -0.3936 -0.7311  0.3296
18305TIP3    H176330   1.082   2.609   2.441 -0.6188 -1.0020 -0.3228
18305TIP3    H276331   0.981   2.593   2.553  0.2439 -0.3506  0.5652
18306TIP3   OH276332   5.120   3.823   0.630 -0.2921  0.7174 -0.3359
18306TIP3    H176333   5.068   3.843   0.707 -1.1692 -0.9651 -0.4463
18306TIP3    H276334   5.199   3.782   0.664 -1.4148 -1.5878 -0.3220
18307TIP3   OH276335   5.702   3.597  12.419  0.5557 -0.1454  0.4317
18307TIP3    H176336   5.639   3.561  12.357  0.3664  0.9292 -0.0323
18307TIP3    H276337   5.651   3.613  12.499 -0.5385  3.2570 -0.7670
18308TIP3   OH276338   2.618   3.852  14.660  0.0103  0.5900 -0.1930
18308TIP3    H176339   2.697   3.906  14.658  0.5819 -0.2269 -0.1301
18308TIP3    H276340   2.634   3.783  14.596 -0.6592  0.4201 -0.1836
18309TIP3   OH276341   1.504   3.782   0.836 -0.1559 -0.2335  1.0021
18309TIP3    H176342   1.565   3.722   0.878  0.0718  0.5362  1.8082
18309TIP3    H276343   1.446   3.726   0.786  1.5529 -0.9706 -0.2725
18310TIP3   OH276344   1.360   5.347   2.666 -0.2581 -0.1057  0.6486
18310TIP3    H176345   1.315   5.304   2.593 -1.1905  0.1785  1.0320
18310TIP3    H276346   1.402   5.276   2.715 -0.2547 -0.3753  0.2523
18311TIP3   OH276347   5.947   3.858  11.878 -0.2358  0.7808  0.1975
18311TIP3    H176348   6.032   3.894  11.855  0.1874  1.5740  2.6874
18311TIP3    H276349   5.962   3.809  11.959 -1.6902 -1.2670 -0.6618
18312TIP3   OH276350   3.819   1.749  13.952 -0.0276 -0.3080  0.4045
18312TIP3    H176351   3.845   1.676  13.896 -0.6222 -1.3137  1.3924
18312TIP3    H276352   3.879   1.820  13.929  0.8651 -1.2512 -0.2610
18313TIP3   OH276353   5.788   3.675   1.879  0.1657  0.3004  0.5035
18313TIP3    H176354   5.733   3.735   1.930  1.4269  0.1495  2.1163
18313TIP3    H276355   5.770   3.589   1.917  0.7009  0.0954  0.3029
18314TIP3   OH276356   2.474   2.632   5.660 -0.2503  0.0956  0.1591
18314TIP3    H176357   2.454   2.725   5.676 -2.8719 -0.4117  0.2724
18314TIP3    H276358   2.392   2.596   5.626  0.9833 -2.0048 -0.7437
18315TIP3   OH276359   3.888   3.256   1.016 -0.0909  0.1425  0.4394
18315TIP3    H176360   3.900   3.162   1.025 -0.9321 -0.0297 -0.1154
18315TIP3    H276361   3.826   3.280   1.085 -0.3546  0.1781  0.1937
18316TIP3   OH276362   6.334   1.561   4.254 -0.3721  0.5197 -0.1399
18316TIP3    H176363   6.393   1.494   4.289 -1.5763  0.1164  1.2311
18316TIP3    H276364   6.302   1.607   4.332 -0.9502  1.5011 -0.9401
18317TIP3   OH276365   5.107   4.278   2.015  0.0885  0.5851 -0.1603
18317TIP3    H176366   5.105   4.297   1.922 -0.5245  1.9253  0.1087
18317TIP3    H276367   5.099   4.183   2.020 -1.1625  0.5956 -1.4406
18318TIP3   OH276368   4.663   3.364  16.475  0.0306  0.1122 -0.2014
18318TIP3    H176369   4.727   3.433  16.456  0.3131  0.6432  2.2919
18318TIP3    H276370   4.613   3.398  16.550 -1.5234 -1.3548 -0.5055
18319TIP3   OH276371   3.702   2.268   0.896 -0.4899  0.3216 -0.1520
18319TIP3    H176372   3.688   2.285   0.802 -0.1766 -1.7943 -0.6343
18319TIP3    H276373   3.781   2.213   0.898 -0.6383  0.1412  1.3525
18320TIP3   OH276374   3.754   4.817  11.685  0.7019  0.0345 -0.3189
18320TIP3    H176375   3.665   4.782  11.688 -0.1468  2.0473 -0.0795
18320TIP3    H276376   3.769   4.834  11.592  0.4691  0.5232 -0.2711
18321TIP3   OH276377   1.154   3.154  15.781 -0.8890 -0.6185  0.2431
18321TIP3    H176378   1.173   3.070  15.823  0.8265 -0.2634  0.2369
18321TIP3    H276379   1.129   3.131  15.692 -1.6023 -1.1825  0.5766
18322TIP3   OH276380   2.829   4.135   1.571 -0.4823  0.1364  0.4285
18322TIP3    H176381   2.735   4.122   1.558 -0.2679 -0.4033 -0.7072
18322TIP3    H276382   2.849   4.216   1.524 -0.4652  0.5379  1.1162
18323TIP3   OH276383   1.092   2.108  16.858 -0.1689  0.2501 -0.0841
18323TIP3    H176384   1.040   2.129  16.780  0.8081 -0.8229 -1.0799
18323TIP3    H276385   1.032   2.058  16.914 -0.3474 -0.6750 -1.0556
18324TIP3   OH276386   2.193   0.385  15.173  0.4459  0.8184  0.4183
18324TIP3    H176387   2.133   0.397  15.100  0.5683 -0.8691  0.0011
18324TIP3    H276388   2.191   0.291  15.190  2.0546  0.9011  1.1910
18325TIP3   OH276389   6.400   4.866  16.065  0.5866  1.0173 -0.0353
18325TIP3    H176390   6.330   4.924  16.034  0.2023 -0.4434 -2.0894
18325TIP3    H276391   6.397   4.875  16.160 -1.4867  2.0302 -0.1282
18326TIP3   OH276392   1.923   3.767   5.620 -0.6012 -0.4564 -0.2526
18326TIP3    H176393   1.993   3.716   5.660 -0.4895  0.9252  1.4314
18326TIP3    H276394   1.860   3.702   5.588  0.2337 -1.6485  0.4695
18327TIP3   OH276395   3.515   1.853   0.580 -0.0370 -0.3620 -0.3584
18327TIP3    H176396   3.459   1.919   0.540  1.0561  0.9274  0.1651
18327TIP3    H276397   3.604   1.875   0.550  0.6877  0.0355  1.8839
18328TIP3   OH276398   6.217   6.062   5.303  0.0006 -0.4505  0.2884
18328TIP3    H176399   6.171   6.091   5.381 -0.3005 -1.0373  0.3294
18328TIP3    H276400   6.151   6.060   5.234  0.3584  0.5217 -0.1106
18329TIP3   OH276401   0.160   1.407   1.601 -0.0492  0.4256  0.3046
18329TIP3    H176402   0.123   1.405   1.513 -0.8393  0.1414  0.6283
18329TIP3    H276403   0.088   1.379   1.657  0.6883 -0.1681  0.9643
18330TIP3   OH276404   5.072   6.356  15.659  0.3404  0.6676  0.2733
18330TIP3    H176405   5.091   6.429  15.718 -2.0388  0.4822  1.4130
18330TIP3    H276406   5.039   6.397  15.580 -0.9157  0.8848  0.8818
18331TIP3   OH276407   5.622   1.749   2.857 -0.4643  0.2000 -0.3687
18331TIP3    H176408   5.584   1.668   2.822 -1.1358  0.8972 -1.3085
18331TIP3    H276409   5.575   1.765   2.939  0.4321 -0.9296  0.3925
18332TIP3   OH276410   4.341   6.036   0.847  0.3688  0.3053 -0.3014
18332TIP3    H176411   4.414   6.033   0.785 -0.6192  1.5852 -1.5901
18332TIP3    H276412   4.379   6.007   0.930  2.7630  2.3570 -0.5525
18333TIP3   OH276413   3.038   5.867  14.101  0.7515  0.2154 -0.3845
18333TIP3    H176414   3.000   5.942  14.055  0.9859  1.3099  1.1510
18333TIP3    H276415   3.099   5.905  14.164 -2.1742 -0.8435  3.4932
18334TIP3   OH276416   0.320   5.273  14.025 -0.2229  0.0717 -0.2142
18334TIP3    H176417   0.226   5.258  14.037 -0.2277  0.4797  0.2667
18334TIP3    H276418   0.360   5.238  14.104  0.2399 -2.0020 -1.3094
18335TIP3   OH276419   2.106   5.937  11.920  0.3777  0.4331 -0.3585
18335TIP3    H176420   2.135   6.006  11.979  1.1962  0.0320 -0.2854
18335TIP3    H276421   2.185   5.910  11.873  0.5428 -1.9377  1.1278
18336TIP3   OH276422   4.537   0.869  14.299  0.2749 -0.0844  0.1739
18336TIP3    H176423   4.560   0.778  14.319  2.0896  0.4920  0.8562
18336TIP3    H276424   4.568   0.883  14.210 -1.5896 -0.6032 -0.6129
18337TIP3   OH276425   4.330   0.481   5.837  0.0968 -0.4285  0.3381
18337TIP3    H176426   4.369   0.455   5.754  0.5567 -0.9130  0.6978
18337TIP3    H276427   4.396   0.539   5.876  0.2094 -0.7827  0.6848
18338TIP3   OH276428   2.055   1.259   3.552  0.2885 -0.2960  0.0457
18338TIP3    H176429   2.024   1.207   3.478  1.0932  0.0353 -0.5440
18338TIP3    H276430   2.061   1.196   3.624  2.1368 -1.2973 -0.8835
18339TIP3   OH276431   6.567   2.317  12.376  0.2405  0.7102  0.0721
18339TIP3    H176432   6.614   2.318  12.293  3.0858 -0.8722  1.4802
18339TIP3    H276433   6.519   2.234  12.375 -1.2224  1.5230 -0.6505
18340TIP3   OH276434   5.624   5.838   1.598 -0.3821  0.3543 -0.8602
18340TIP3    H176435   5.606   5.905   1.532 -0.0570 -0.7391 -2.0866
18340TIP3    H276436   5.615   5.755   1.552 -0.2747 -0.4513  0.5070
18341TIP3   OH276437   6.279   0.143   3.531 -0.1841 -0.0153 -0.4729
18341TIP3    H176438   6.350   0.143   3.468 -0.8278 -2.4215 -1.3097
18341TIP3    H276439   6.251   0.234   3.536  1.3421  0.5832 -1.9590
18342TIP3   OH276440   3.558   6.676   4.641  0.0179  0.0035  0.3485
18342TIP3    H176441   3.603   6.751   4.602  1.6907 -1.4109 -0.5210
18342TIP3    H276442   3.597   6.667   4.728  0.3371 -0.3034  0.1736
18343TIP3   OH276443   4.456   2.925   1.782 -0.7451  0.2639  0.1478
18343TIP3    H176444   4.389   2.857   1.773 -0.4500 -0.0387  0.2436
18343TIP3    H276445   4.484   2.920   1.873  0.9597 -1.0830 -0.4023
18344TIP3   OH276446   6.576   4.038   4.634  0.4722  0.1808  0.3580
18344TIP3    H176447   6.502   4.077   4.681 -0.5010  0.8375 -1.6037
18344TIP3    H276448   6.646   4.102   4.641  0.0814  0.6226  0.2972
18345TIP3   OH276449   3.931   4.734  10.677 -0.1072  0.2174  0.2894
18345TIP3    H176450   3.860   4.744  10.614  0.3347  0.8006 -0.1309
18345TIP3    H276451   3.944   4.821  10.714 -0.3557 -0.1172  1.1947
18346TIP3   OH276452   3.450   0.214   3.247  0.3589 -0.3402  0.1482
18346TIP3    H176453   3.452   0.132   3.198 -0.4614 -0.0297 -0.4238
18346TIP3    H276454   3.358   0.240   3.247  0.5710  0.4266  0.5696
18347TIP3   OH276455   3.133   4.493   4.129 -0.0523  0.0280 -0.1097
18347TIP3    H176456   3.059   4.552   4.143  0.9006  0.9581  1.2876
18347TIP3    H276457   3.140   4.443   4.210  0.4945 -0.4857 -0.4587
18348TIP3   OH276458   3.446   0.472  13.687  0.0337  0.7158  0.5991
18348TIP3    H176459   3.467   0.504  13.599 -1.9978 -3.6169 -1.7378
18348TIP3    H276460   3.355   0.499  13.701 -0.7002 -1.2445 -0.1149
18349TIP3   OH276461   0.584   5.284  12.095 -0.7296  0.0961 -0.3738
18349TIP3    H176462   0.545   5.197  12.098 -0.7764  0.0971 -0.8247
18349TIP3    H276463   0.618   5.298  12.183 -1.2861 -0.1138 -0.1227
18350TIP3   OH276464   3.778   2.446  14.933 -0.5270 -0.3482  0.3446
18350TIP3    H176465   3.696   2.410  14.966 -0.4753 -0.9978 -0.2060
18350TIP3    H276466   3.758   2.471  14.842 -0.9519  2.3225  1.0719
18351TIP3   OH276467   6.651   6.673   2.750  0.2665  0.1646  0.1119
18351TIP3    H176468   6.734   6.632   2.772 -0.2792 -1.2321 -0.3169
18351TIP3    H276469   6.590   6.642   2.816 -0.3347 -0.3515 -0.6753
18352TIP3   OH276470   3.268   0.379   3.446 -0.3517  0.6015 -0.1739
18352TIP3    H176471   3.204   0.324   3.401 -3.0004  1.8056  1.8485
18352TIP3    H276472   3.296   0.326   3.521 -1.3593  1.1949  0.6419
18353TIP3   OH276473   6.099   2.200   2.784 -0.1253 -0.4445 -0.1173
18353TIP3    H176474   6.060   2.197   2.697  1.3338  0.0507 -0.8170
18353TIP3    H276475   6.193   2.213   2.768  0.8089 -4.0502  1.3736
18354TIP3   OH276476   4.737   1.692   0.136  0.5705  0.3103  0.0078
18354TIP3    H176477   4.779   1.755   0.077  2.9215 -0.9385  0.2325
18354TIP3    H276478   4.654   1.671   0.094  0.7805  1.7916 -1.2333
18355TIP3   OH276479   3.145   4.097   3.127  0.1388 -0.3640 -0.2718
18355TIP3    H176480   3.071   4.141   3.168  0.7095  1.3037 -0.9297
18355TIP3    H276481   3.124   4.096   3.033 -0.5299 -2.9093 -0.1812
18356TIP3   OH276482   5.442   4.759   1.943  0.3769  0.1765  0.1841
18356TIP3    H176483   5.454   4.664   1.929  1.1816  0.1568  0.8994
18356TIP3    H276484   5.384   4.765   2.018 -1.8193  0.2787 -1.4458
18357TIP3   OH276485   2.348   2.510  11.869  0.1218 -0.0756  0.4231
18357TIP3    H176486   2.322   2.437  11.926 -0.2593 -0.4783 -0.2439
18357TIP3    H276487   2.443   2.502  11.862  0.1281 -0.2543  0.6839
18358TIP3   OH276488   2.202   4.018  16.585 -0.1069  0.9430 -0.5690
18358TIP3    H176489   2.272   4.054  16.531  1.5476 -0.6641  0.4340
18358TIP3    H276490   2.141   3.978  16.522  0.2703  1.6511 -1.3966
18359TIP3   OH276491   5.872   6.024  14.803  0.6091  0.1404 -0.3689
18359TIP3    H176492   5.825   5.989  14.879  0.8746  0.7627  0.0912
18359TIP3    H276493   5.813   6.090  14.766  0.4567 -0.2022 -0.7340
18360TIP3   OH276494   0.866   5.398  16.451 -0.9513  0.2431  0.8163
18360TIP3    H176495   0.871   5.355  16.365 -2.3115  0.9310  0.3638
18360TIP3    H276496   0.938   5.461  16.450 -0.8883  0.1730  0.2200
18361TIP3   OH276497   6.480   4.433  14.636  0.8829  0.2067 -0.1222
18361TIP3    H176498   6.552   4.441  14.573  1.6200  0.0753  0.6901
18361TIP3    H276499   6.497   4.501  14.701 -0.3096  0.8576 -0.4676
18362TIP3   OH276500   5.974   1.187   0.016 -0.3526  0.0768 -0.1881
18362TIP3    H176501   5.902   1.215   0.073 -1.6169 -0.5621 -1.4107
18362TIP3    H276502   5.935   1.121  -0.040  1.6934 -1.6709  0.3352
18363TIP3   OH276503   4.448   3.900   2.730  0.0065  0.0777  0.4509
18363TIP3    H176504   4.505   3.855   2.792  0.3248 -1.4610 -0.8866
18363TIP3    H276505   4.362   3.860   2.743 -0.4540  1.3304  1.4170
18364TIP3   OH276506   2.144   5.830  14.696 -0.1984  0.2503  0.5166
18364TIP3    H176507   2.133   5.804  14.605  0.5905  2.0187 -0.1243
18364TIP3    H276508   2.239   5.836  14.708 -0.2760 -0.2567  1.5685
18365TIP3   OH276509   6.459   0.749   1.326 -0.2156 -0.6418  0.0762
18365TIP3    H176510   6.447   0.829   1.378  0.4382 -0.8182  0.5033
18365TIP3    H276511   6.549   0.755   1.294 -0.0784 -1.3389  0.3255
18366TIP3   OH276512   2.777   5.651   6.172  0.0213  0.0855  0.1789
18366TIP3    H176513   2.712   5.692   6.229 -0.9178 -0.5641 -0.3855
18366TIP3    H276514   2.772   5.558   6.193  2.7345  0.2514  2.0595
18367TIP3   OH276515   5.403   6.787   0.252  0.3780  0.3868  0.6231
18367TIP3    H176516   5.476   6.734   0.218 -1.3189 -1.1029 -0.9445
18367TIP3    H276517   5.400   6.765   0.345  2.2533  0.9294  0.8612
18368TIP3   OH276518   3.084   4.977  13.065  0.0043 -0.8039 -0.5158
18368TIP3    H176519   2.994   5.001  13.086  0.6642  0.1219  1.5224
18368TIP3    H276520   3.094   4.888  13.100 -0.1979 -1.0114 -0.9867
18369TIP3   OH276521   2.550   6.468   0.460 -0.2902  0.1882 -0.4126
18369TIP3    H176522   2.629   6.424   0.490 -1.9863 -2.1163  0.9406
18369TIP3    H276523   2.548   6.452   0.365  0.1374 -1.0089 -0.2331
18370TIP3   OH276524   4.060   2.093   0.248  0.1563  0.4574 -0.4905
18370TIP3    H176525   4.003   2.132   0.314 -0.8153  1.3585 -1.8205
18370TIP3    H276526   4.017   2.010   0.225 -0.2695  0.8071 -0.9863
18371TIP3   OH276527   2.484   5.108   3.545  0.1696 -0.3415 -0.5461
18371TIP3    H176528   2.545   5.035   3.551 -0.0986 -0.4765  0.7134
18371TIP3    H276529   2.403   5.076   3.583 -0.5318  0.0288 -1.6712
18372TIP3   OH276530   2.714   3.873  15.131  0.0373  0.1310 -0.3651
18372TIP3    H176531   2.639   3.874  15.191 -0.7575 -1.0751 -1.2779
18372TIP3    H276532   2.750   3.961  15.136 -1.9927  1.0346 -0.5749
18373TIP3   OH276533   0.789   2.136   5.602 -0.8900 -0.0414  0.4329
18373TIP3    H176534   0.710   2.107   5.557 -2.0960  0.2780  2.2510
18373TIP3    H276535   0.804   2.069   5.668  1.6592 -1.2527 -1.2096
18374TIP3   OH276536   0.666   4.448  14.288 -0.3108 -0.6179  0.5960
18374TIP3    H176537   0.588   4.442  14.232 -0.1897  0.0753  0.3401
18374TIP3    H276538   0.704   4.533  14.267  0.7006 -1.0841  0.4960
18375TIP3   OH276539   2.418   0.313   5.002  0.0270  0.0422  0.2739
18375TIP3    H176540   2.487   0.344   4.943 -0.2401  0.1543  0.0210
18375TIP3    H276541   2.371   0.392   5.027 -1.3144 -0.2492 -1.2024
18376TIP3   OH276542   4.591   5.336   5.162 -0.0431 -0.5596  0.1476
18376TIP3    H176543   4.567   5.263   5.220 -1.7395 -0.7885 -0.7859
18376TIP3    H276544   4.596   5.297   5.075  1.3138  0.0251 -0.0706
18377TIP3   OH276545   0.727   0.213   1.931 -0.8739  0.2404 -0.5272
18377TIP3    H176546   0.645   0.180   1.969  0.5217 -1.4729  1.1854
18377TIP3    H276547   0.775   0.134   1.905  1.5723  0.9438  1.4881
18378TIP3   OH276548   5.630   1.248  11.913 -0.6993  0.2091  0.1867
18378TIP3    H176549   5.605   1.336  11.940 -1.2146  0.6348 -1.4958
18378TIP3    H276550   5.555   1.193  11.938 -1.4362  0.6956 -0.8625
18379TIP3   OH276551   1.457   2.759   4.176  1.0876  0.1694  0.5238
18379TIP3    H176552   1.388   2.728   4.118  1.6069 -2.1307  1.0256
18379TIP3    H276553   1.470   2.850   4.151 -0.6439  0.0610 -1.0139
18380TIP3   OH276554   4.283   1.426  14.158 -0.4048  0.2248 -0.6981
18380TIP3    H176555   4.335   1.438  14.078 -0.1949 -1.5161 -0.8698
18380TIP3    H276556   4.289   1.332  14.176 -0.5860  0.5480  1.2815
18381TIP3   OH276557   2.533   1.143  14.882 -0.0181 -0.0782  0.4407
18381TIP3    H176558   2.585   1.132  14.962  0.7397  1.0744  0.1221
18381TIP3    H276559   2.446   1.169  14.914  0.4473  0.9789  0.8800
18382TIP3   OH276560   3.634   0.045  10.524  0.3216  0.4149 -0.1471
18382TIP3    H176561   3.676  -0.022  10.471 -0.7248 -2.5290  2.4558
18382TIP3    H276562   3.540   0.033  10.509  0.1227  1.3997  0.2396
18383TIP3   OH276563   3.675   3.971  16.846  0.4211 -0.3285 -0.0965
18383TIP3    H176564   3.661   4.058  16.884  2.1281  0.0505 -0.2272
18383TIP3    H276565   3.587   3.940  16.824 -0.1755  1.8272 -1.0533
18384TIP3   OH276566   1.049   4.734   0.527  0.3653 -0.6118 -0.2572
18384TIP3    H176567   1.040   4.691   0.612  1.8703  0.5119  0.5175
18384TIP3    H276568   1.135   4.707   0.495  0.1251 -0.4267 -1.1020
18385TIP3   OH276569   3.579   4.886   5.853 -0.3486 -0.5810  0.1451
18385TIP3    H176570   3.660   4.929   5.825 -0.6194  0.1524  0.4712
18385TIP3    H276571   3.556   4.929   5.935 -1.1809 -0.6466 -0.0516
18386TIP3   OH276572   1.817   4.326   3.235 -0.1041  0.2798 -0.7538
18386TIP3    H176573   1.771   4.372   3.306  0.9183  0.3228 -0.0918
18386TIP3    H276574   1.898   4.294   3.276  0.7894  0.8019 -2.0329
18387TIP3   OH276575   1.836   4.873   5.332  0.0188  0.1152  0.5274
18387TIP3    H176576   1.786   4.955   5.331 -1.5339 -0.7692  1.6667
18387TIP3    H276577   1.802   4.823   5.258 -0.5270 -0.3280  1.0701
18388TIP3   OH276578   2.136   6.120  15.158  0.1021  0.3386  0.0610
18388TIP3    H176579   2.081   6.180  15.108 -1.7208 -0.3573  1.1121
18388TIP3    H276580   2.099   6.034  15.141 -0.0245 -0.0079  1.8550
18389TIP3   OH276581   1.672   5.875  11.942  0.2911 -0.3524  0.1127
18389TIP3    H176582   1.736   5.909  12.004  0.4615  0.1298 -0.3202
18389TIP3    H276583   1.615   5.818  11.994  0.6861 -0.2855  0.6212
18390TIP3   OH276584   3.782   6.643   0.085 -0.2677 -0.3601 -0.7346
18390TIP3    H176585   3.795   6.707   0.155  1.2523  0.3437 -1.6172
18390TIP3    H276586   3.870   6.608   0.069 -0.6570 -0.7772 -2.0351
18391TIP3   OH276587   4.036   5.575   3.565 -0.1308  0.3833  0.4862
18391TIP3    H176588   3.980   5.502   3.594  0.6637 -0.6699 -0.5362
18391TIP3    H276589   4.056   5.623   3.645 -3.9900  1.9698  0.7305
18392TIP3   OH276590   4.561   4.835   5.613 -0.2461  0.5036  0.1645
18392TIP3    H176591   4.518   4.921   5.609  0.1749  0.6938 -0.3948
18392TIP3    H276592   4.489   4.772   5.617 -0.5598  0.8728  0.3746
18393TIP3   OH276593   4.307   1.633   6.725 -0.1752 -0.2259  0.0684
18393TIP3    H176594   4.254   1.707   6.754  0.4454  1.0084 -1.7478
18393TIP3    H276595   4.352   1.665   6.647 -1.4620 -3.1423 -2.0626
18394TIP3   OH276596   5.077   5.896  12.234 -0.1395  0.4997  0.0502
18394TIP3    H176597   5.046   5.940  12.156 -0.5244  2.2913  1.1592
18394TIP3    H276598   4.999   5.856  12.273  0.1452 -0.8977 -0.7445
18395TIP3   OH276599   5.532   5.178  12.071 -0.0061  0.2056  0.2165
18395TIP3    H176600   5.541   5.233  11.993  0.1787 -1.0632 -0.7051
18395TIP3    H276601   5.535   5.088  12.037 -2.2534 -0.4107  1.4006
18396TIP3   OH276602   4.691   4.246  16.724  0.6700 -1.0633 -0.0443
18396TIP3    H176603   4.743   4.325  16.738  1.0146 -1.3314  0.2036
18396TIP3    H276604   4.716   4.188  16.796 -0.6454 -0.8508  0.6217
18397TIP3   OH276605   3.666   5.365   0.300  0.2274 -0.2705  0.5562
18397TIP3    H176606   3.615   5.446   0.306  0.9622  0.2073  0.5658
18397TIP3    H276607   3.604   5.295   0.320 -0.2181  0.3621  1.4519
18398TIP3   OH276608   2.098   3.968   1.446  0.4551 -0.2845  0.0739
18398TIP3    H176609   2.024   3.912   1.471  0.1910 -0.3802 -0.8717
18398TIP3    H276610   2.107   4.029   1.519 -1.6084  0.7624 -0.4680
18399TIP3   OH276611   4.370   0.292   0.646  0.0070 -0.0239  0.2478
18399TIP3    H176612   4.428   0.282   0.722 -0.7838  0.8073  0.9844
18399TIP3    H276613   4.323   0.374   0.662  0.3620  0.5770 -1.5084
18400TIP3   OH276614   4.985   4.468   2.843  0.6190  0.3612  0.3846
18400TIP3    H176615   4.901   4.456   2.887 -0.7345  0.0631 -2.1207
18400TIP3    H276616   4.990   4.563   2.827  0.5638  0.3303  0.1834
18401TIP3   OH276617   4.810   5.878   0.228  0.1522  0.0719  0.5679
18401TIP3    H176618   4.814   5.948   0.293 -0.5494  0.6770 -0.0216
18401TIP3    H276619   4.793   5.923   0.145 -0.4636 -0.8028  0.2054
18402TIP3   OH276620   3.425   5.271  14.681  0.2253 -0.4564 -0.2353
18402TIP3    H176621   3.405   5.331  14.609  3.8326  0.0431 -1.0149
18402TIP3    H276622   3.407   5.184  14.646  0.1903 -0.1257 -1.0589
18403TIP3   OH276623   0.093   0.187   3.341  0.3695  0.5664 -0.6796
18403TIP3    H176624   0.075   0.242   3.264  1.4569  0.4269 -1.0601
18403TIP3    H276625   0.043   0.227   3.412  0.8532  1.8517 -1.0361
18404TIP3   OH276626   5.834   1.301   2.096 -0.5555  0.6723  0.0272
18404TIP3    H176627   5.898   1.372   2.105 -0.9843  1.1161 -0.3577
18404TIP3    H276628   5.749   1.343   2.110 -0.6958 -0.2145  2.1761
18405TIP3   OH276629   1.260   1.685  14.556 -0.7366 -0.0626 -0.2002
18405TIP3    H176630   1.168   1.661  14.556 -0.8510  0.3439 -0.9117
18405TIP3    H276631   1.304   1.611  14.598 -1.2306 -0.9259 -1.1350
18406TIP3   OH276632   1.105   3.291   0.378 -0.0773  0.2471  0.0361
18406TIP3    H176633   1.106   3.196   0.367  2.1793  0.2499 -0.0467
18406TIP3    H276634   1.015   3.310   0.407 -1.1317 -1.6680 -1.6953
18407TIP3   OH276635   1.471   2.697   3.814 -0.5022 -0.5213  0.1615
18407TIP3    H176636   1.380   2.670   3.797 -0.3194 -1.5116  0.6544
18407TIP3    H276637   1.521   2.654   3.744 -0.3013 -0.8000  0.4749
18408TIP3   OH276638   3.187   2.685  14.900 -0.2530 -0.5127  0.2578
18408TIP3    H176639   3.138   2.674  14.819 -0.3812 -1.7823  0.4977
18408TIP3    H276640   3.147   2.762  14.941 -0.7965 -0.4098 -0.4349
18409TIP3   OH276641   0.160   6.782  11.237  0.1330  0.0385 -0.6385
18409TIP3    H176642   0.131   6.711  11.295  0.6073 -0.7245 -1.3080
18409TIP3    H276643   0.096   6.784  11.167  0.0974  0.3139 -0.6011
18410TIP3   OH276644   5.640   0.374   5.956  0.2888  0.5795 -0.4568
18410TIP3    H176645   5.584   0.308   5.916 -0.7003  0.6980  0.6891
18410TIP3    H276646   5.645   0.350   6.048  0.2161  1.8850 -0.0945
18411TIP3   OH276647   1.534   4.552   1.653  0.5398 -0.0813 -0.1907
18411TIP3    H176648   1.582   4.585   1.578  1.1130  0.3190  0.3377
18411TIP3    H276649   1.472   4.489   1.617 -0.8615  1.8215 -1.2652
18412TIP3   OH276650   0.086   4.299  14.333  0.1088 -0.6048  0.1175
18412TIP3    H176651   0.165   4.262  14.372  0.0967 -2.7754 -1.7263
18412TIP3    H276652   0.058   4.367  14.395  4.1161  1.2502  0.2199
18413TIP3   OH276653   5.417   4.990   5.788  0.2518 -0.3384  0.4478
18413TIP3    H176654   5.437   5.084   5.787  1.2427 -0.5134 -1.5833
18413TIP3    H276655   5.499   4.948   5.764 -0.1512 -1.7510  1.4465
18414TIP3   OH276656   0.693   0.075  11.033 -0.5902  0.2469 -0.2251
18414TIP3    H176657   0.642   0.002  11.067  0.4124 -0.0288  0.7629
18414TIP3    H276658   0.749   0.037  10.966 -0.8356  0.3186 -0.4711
18415TIP3   OH276659   3.323   0.154  11.024  0.4500 -0.3272  0.2987
18415TIP3    H176660   3.244   0.148  11.078  1.0626 -1.1160  1.1501
18415TIP3    H276661   3.367   0.234  11.053 -0.1673  0.2699 -0.3813
18416TIP3   OH276662   5.140   5.188  12.080  0.1184  0.4665 -0.0441
18416TIP3    H176663   5.178   5.105  12.054  1.4871  1.2772 -0.7467
18416TIP3    H276664   5.211   5.252  12.069 -0.7608  1.6644  0.8789
18417TIP3   OH276665   4.689   5.659  10.616  0.0261 -0.4870  0.4493
18417TIP3    H176666   4.652   5.745  10.595  1.1052  0.1396  1.0400
18417TIP3    H276667   4.631   5.624  10.684 -1.0564 -0.7243 -0.5689
18418TIP3   OH276668   4.728   0.118   0.053 -0.0335  0.1874 -0.1263
18418TIP3    H176669   4.740   0.132   0.147 -1.6881  0.6669  0.0469
18418TIP3    H276670   4.765   0.197   0.013 -1.1294  0.9387  0.2817
18419TIP3   OH276671   5.813   1.910  16.522  0.0898 -0.7625 -0.7372
18419TIP3    H176672   5.804   1.996  16.481 -1.9467 -0.4311  0.2680
18419TIP3    H276673   5.884   1.920  16.585 -0.4231  0.3323 -0.3169
18420TIP3   OH276674   5.912   0.175  12.189 -0.0200  0.0912 -0.1258
18420TIP3    H176675   5.858   0.242  12.147  0.7024  0.3254 -0.6938
18420TIP3    H276676   5.925   0.108  12.122 -0.6503 -0.5945  0.4053
18421TIP3   OH276677   3.482   0.836   3.317 -0.4228 -0.1228 -0.6029
18421TIP3    H176678   3.504   0.886   3.238 -0.8426 -0.2946 -0.8302
18421TIP3    H276679   3.393   0.862   3.338  0.3957  1.5401  1.0653
18422TIP3   OH276680   2.383   2.525  12.330  0.1899  0.0779 -0.2633
18422TIP3    H176681   2.449   2.516  12.262 -1.6542 -0.2268 -2.1108
18422TIP3    H276682   2.397   2.614  12.364  0.7524  0.4909 -1.4942
18423TIP3   OH276683   3.990   5.309   5.236  0.0275 -0.1059  0.0016
18423TIP3    H176684   3.989   5.261   5.319  1.0659  0.2921  0.2610
18423TIP3    H276685   4.033   5.250   5.175 -1.3803 -0.6976 -0.4760
18424TIP3   OH276686   0.659   4.039   3.648 -0.8258  0.0989  0.3671
18424TIP3    H176687   0.588   4.070   3.590 -1.3405  0.2034  1.0427
18424TIP3    H276688   0.652   4.094   3.726 -0.7938 -0.7195  0.9584
18425TIP3   OH276689   1.893   1.534   0.071 -0.3197  0.1880 -0.7416
18425TIP3    H176690   1.867   1.489   0.151 -0.2578  0.4567 -0.5715
18425TIP3    H276691   1.872   1.626   0.086  2.7433  0.8408  0.3245
18426TIP3   OH276692   2.073   3.539   5.733  0.1077 -0.1537 -0.4236
18426TIP3    H176693   1.989   3.523   5.689  1.7918 -1.1014 -3.5336
18426TIP3    H276694   2.062   3.498   5.819 -2.1413 -1.4806 -1.2352
18427TIP3   OH276695   4.139   1.485   0.561  0.1445  0.3624 -0.2879
18427TIP3    H176696   4.215   1.477   0.620  0.0915  1.0946 -0.0979
18427TIP3    H276697   4.068   1.513   0.618 -0.6496 -1.6749 -0.2220
18428TIP3   OH276698   0.419   6.413  10.347  0.4500 -0.1615  0.0201
18428TIP3    H176699   0.499   6.460  10.322  0.0168 -0.7301 -2.7104
18428TIP3    H276700   0.395   6.363  10.269 -3.6987  1.5559 -0.0819
18429TIP3   OH276701   1.106   3.203   1.359  0.6220  0.4164  0.4309
18429TIP3    H176702   1.158   3.237   1.432 -1.3480  2.1062  1.1597
18429TIP3    H276703   1.098   3.109   1.377 -0.5835  0.9129  2.9879
18430TIP3   OH276704   5.018   4.646  12.557  0.1443 -0.5967  0.6528
18430TIP3    H176705   5.063   4.689  12.629 -1.1474 -0.2441  1.2729
18430TIP3    H276706   5.077   4.657  12.482  1.5155 -0.9831  1.6302
18431TIP3   OH276707   3.375   2.388  13.755 -0.0848 -0.1160  0.2114
18431TIP3    H176708   3.323   2.313  13.785  1.1308 -0.7733  0.7469
18431TIP3    H276709   3.447   2.349  13.705  0.5850  0.6770  0.5335
18432TIP3   OH276710   0.180   2.577   0.557 -0.3652  0.0486  0.3222
18432TIP3    H176711   0.188   2.483   0.576 -0.2541 -0.0175 -0.0453
18432TIP3    H276712   0.139   2.581   0.471 -2.4324  0.3622  1.2578
18433TIP3   OH276713   4.478   0.511  12.069  0.1954  0.2579 -0.1955
18433TIP3    H176714   4.442   0.563  11.997 -1.5949  0.7076  0.9656
18433TIP3    H276715   4.572   0.509  12.052 -0.0747  1.0663 -2.0668
18434TIP3   OH276716   0.011   3.352  10.422 -0.0056 -0.5932 -0.1434
18434TIP3    H176717   0.053   3.397  10.349 -0.2935  0.3290  0.2433
18434TIP3    H276718  -0.003   3.262  10.391 -1.8310  0.2310 -1.9409
18435TIP3   OH276719   2.238   4.078   1.247  0.0244 -0.2104  0.0540
18435TIP3    H176720   2.171   4.036   1.300 -0.2384  1.6329  1.2820
18435TIP3    H276721   2.283   4.006   1.204 -0.4431 -1.7251  1.9556
18436TIP3   OH276722   5.284   3.092   0.176  0.7737 -0.3295 -0.5164
18436TIP3    H176723   5.212   3.047   0.220  1.0847  1.6881  2.3555
18436TIP3    H276724   5.335   3.022   0.135 -1.8827 -1.9438 -1.3010
18437TIP3   OH276725   1.031   3.756   0.504  0.5959  0.3297  0.1680
18437TIP3    H176726   0.970   3.818   0.464  0.6384  0.2334 -0.0453
18437TIP3    H276727   0.974   3.689   0.543  0.5430  0.6019  0.5665
18438TIP3   OH276728   2.961   3.823   5.720  0.0562  0.0784  0.0815
18438TIP3    H176729   2.903   3.898   5.717  0.6678  0.6694  1.7720
18438TIP3    H276730   3.041   3.856   5.761  0.5484 -1.3423  0.3311
18439TIP3   OH276731   6.533   4.126  11.461 -0.1815 -0.3460  0.7666
18439TIP3    H176732   6.577   4.042  11.453  0.3183 -0.5137  3.9511
18439TIP3    H276733   6.587   4.175  11.523 -1.6000  1.5530  0.5947
18440TIP3   OH276734   5.091   3.183   5.229 -0.0509 -0.1404  0.7592
18440TIP3    H176735   5.113   3.269   5.266 -1.1426  1.1635 -1.4188
18440TIP3    H276736   5.176   3.141   5.214  0.5665  1.1082  0.6328
18441TIP3   OH276737   2.572   0.210  14.216  0.2959 -0.2338 -0.0187
18441TIP3    H176738   2.616   0.153  14.279  0.2035 -1.4734 -1.0173
18441TIP3    H276739   2.513   0.263  14.269  0.8445 -0.6284  1.0246
18442TIP3   OH276740   4.367   5.641  14.190  0.6715  0.0004 -0.0360
18442TIP3    H176741   4.337   5.555  14.219  1.1948  0.2437  1.2846
18442TIP3    H276742   4.373   5.633  14.094  1.5854 -1.7184  0.1239
18443TIP3   OH276743   1.755   2.262  10.552  1.0204 -0.1357  0.5784
18443TIP3    H176744   1.780   2.350  10.523  0.9110 -0.1656  0.3865
18443TIP3    H276745   1.681   2.276  10.610 -1.7398 -0.3199 -2.6238
18444TIP3   OH276746   0.458   1.124  14.868  0.1815  0.7370  0.5281
18444TIP3    H176747   0.480   1.183  14.940  1.8509  2.3904 -1.1976
18444TIP3    H276748   0.472   1.177  14.789  1.2091 -1.8148 -1.1285
18445TIP3   OH276749   1.075   4.075   1.533  0.1076  0.7628 -0.1122
18445TIP3    H176750   1.136   4.007   1.561 -2.0654 -0.7084  1.3573
18445TIP3    H276751   1.108   4.155   1.574  3.4570  1.0390 -2.9110
18446TIP3   OH276752   0.781   5.791   3.015 -0.4209 -0.5876  0.7365
18446TIP3    H176753   0.827   5.731   2.956  0.3551  0.7589 -0.0828
18446TIP3    H276754   0.757   5.737   3.090 -1.0435 -2.2673 -0.5945
18447TIP3   OH276755   3.694   5.883   1.519 -0.5968  0.1472  0.4232
18447TIP3    H176756   3.719   5.953   1.579 -0.0281 -0.8014  1.3269
18447TIP3    H276757   3.770   5.870   1.463 -1.1570  1.0875 -0.5852
18448TIP3   OH276758   6.306   1.210   1.526  0.3845 -0.7467 -0.1974
18448TIP3    H176759   6.261   1.292   1.546  1.7011 -0.4878  1.9907
18448TIP3    H276760   6.241   1.159   1.477 -1.0787  0.8797 -0.0543
18449TIP3   OH276761   5.754   3.972  11.738  0.5305  0.4377 -0.0226
18449TIP3    H176762   5.758   4.058  11.780  1.3069  0.6112 -0.4240
18449TIP3    H276763   5.803   3.915  11.797 -0.5765  0.0982  0.5997
18450TIP3   OH276764   0.664   0.318  16.901  0.4781 -0.2023 -0.3676
18450TIP3    H176765   0.723   0.279  16.837  0.5015 -0.4862 -0.1768
18450TIP3    H276766   0.667   0.258  16.976  0.5523  0.1925 -0.0501
18451TIP3   OH276767   2.472   5.423   5.829  0.0709 -0.2035  0.4085
18451TIP3    H176768   2.454   5.513   5.858 -3.7583 -0.6047 -0.1171
18451TIP3    H276769   2.498   5.433   5.737 -0.7658  0.3915  0.2198
18452TIP3   OH276770   1.154   0.935   2.177 -0.0752  0.1703 -0.0798
18452TIP3    H176771   1.186   1.025   2.173 -0.7992  0.4746  0.6537
18452TIP3    H276772   1.231   0.881   2.158  0.1350  0.9552 -1.6129
18453TIP3   OH276773   6.332   1.829  12.233 -0.2374  0.4079 -0.2780
18453TIP3    H176774   6.308   1.873  12.151  0.9760  1.5390 -0.0619
18453TIP3    H276775   6.428   1.832  12.234 -0.1957 -0.7563  0.5747
18454TIP3   OH276776   3.623   5.731  16.386 -0.4809 -0.3184  0.2357
18454TIP3    H176777   3.700   5.732  16.330 -0.7862 -0.5450 -0.1959
18454TIP3    H276778   3.631   5.650  16.436  0.2219  0.2873  1.1476
18455TIP3   OH276779   6.334   1.175   4.785 -0.0610 -0.2267  0.1625
18455TIP3    H176780   6.278   1.172   4.708 -0.1543  1.7102  0.1037
18455TIP3    H276781   6.275   1.157   4.858 -0.8003  1.6896  0.0886
18456TIP3   OH276782   2.813   6.239  11.745  0.0899  0.1316 -0.2399
18456TIP3    H176783   2.824   6.144  11.755 -0.3555  0.2146  1.4296
18456TIP3    H276784   2.881   6.277  11.801 -0.2667  0.7872 -0.2460
18457TIP3   OH276785   2.207   0.317   5.820  0.1756 -0.2025  0.0750
18457TIP3    H176786   2.198   0.272   5.904  0.3469  1.7659  1.2203
18457TIP3    H276787   2.300   0.340   5.815  0.7573 -2.4959 -1.9387
18458TIP3   OH276788   2.501   0.416  12.656 -0.8332  0.4460 -0.2293
18458TIP3    H176789   2.576   0.359  12.639 -2.5504 -1.4244 -2.1035
18458TIP3    H276790   2.477   0.398  12.747  1.3040  1.5690  0.6247
18459TIP3   OH276791   5.967   1.351  10.479 -0.0335 -0.0201 -0.7169
18459TIP3    H176792   5.924   1.277  10.523  0.8119 -1.0505 -1.5720
18459TIP3    H276793   6.044   1.369  10.532  0.8375 -1.0836 -1.5756
18460TIP3   OH276794   5.472   3.866  12.801  0.3151  0.1911 -0.1677
18460TIP3    H176795   5.380   3.872  12.777  0.3912  3.1636 -0.1094
18460TIP3    H276796   5.472   3.840  12.893 -0.5866  1.4425  0.2193
18461TIP3   OH276797   2.338   4.749   0.061  0.3153 -0.1050  0.5823
18461TIP3    H176798   2.278   4.737   0.135  1.9398  1.4385  2.2790
18461TIP3    H276799   2.425   4.740   0.099  1.2310 -1.2828 -1.6006
18462TIP3   OH276800   4.870   1.360  12.728 -0.5041 -0.6516 -0.5788
18462TIP3    H176801   4.787   1.364  12.679  0.8145 -1.1817 -3.0199
18462TIP3    H276802   4.856   1.292  12.793 -2.2074 -0.2430 -0.4594
18463TIP3   OH276803   2.559   1.292  16.372 -0.0755  0.4460  0.5015
18463TIP3    H176804   2.610   1.221  16.333 -1.3843 -0.8589  1.0920
18463TIP3    H276805   2.508   1.328  16.299 -0.1330  0.1480  0.3942
18464TIP3   OH276806   2.979   6.627   1.720  0.1607  0.5758 -0.0756
18464TIP3    H176807   2.890   6.628   1.684 -0.2654  0.1806  0.9414
18464TIP3    H276808   2.991   6.716   1.754 -0.1010  0.4320  0.3953
18465TIP3   OH276809   2.879   3.492  14.646 -0.5594 -0.1781  0.5115
18465TIP3    H176810   2.800   3.441  14.628 -0.4618 -1.2195  2.6228
18465TIP3    H276811   2.851   3.557  14.710 -0.0373  0.4710  0.0815
18466TIP3   OH276812   3.401   5.035   1.308 -0.0424  0.2814  0.4797
18466TIP3    H176813   3.426   5.114   1.261  2.0209  0.4927  1.8255
18466TIP3    H276814   3.479   4.980   1.306 -0.3599 -0.3107  2.3604
18467TIP3   OH276815   2.135   0.833  17.162  0.4356  0.7563  0.0659
18467TIP3    H176816   2.064   0.801  17.106 -0.4338  0.9133  1.0544
18467TIP3    H276817   2.166   0.756  17.209  1.8553  0.4230 -1.3181
18468TIP3   OH276818   4.125   1.479  12.159  0.3051  0.0056  0.1257
18468TIP3    H176819   4.131   1.383  12.158  0.0321 -0.0366  1.4029
18468TIP3    H276820   4.050   1.499  12.104 -0.7959 -0.6297  1.3588
18469TIP3   OH276821   1.147   4.846  16.652  0.0522 -0.2400  0.3704
18469TIP3    H176822   1.192   4.915  16.701 -0.7868  0.3144  0.3787
18469TIP3    H276823   1.087   4.807  16.716  1.4005 -1.8577  0.7351
18470TIP3   OH276824   0.731   6.763  14.885  0.1582  0.0912  0.5963
18470TIP3    H176825   0.701   6.679  14.920 -2.1511  0.0466 -1.2059
18470TIP3    H276826   0.771   6.742  14.801  0.3810  0.7070  0.5418
18471TIP3   OH276827   3.730   1.179  11.680  0.5058 -0.5562  0.4430
18471TIP3    H176828   3.784   1.258  11.673 -1.7722  1.0066 -0.9725
18471TIP3    H276829   3.682   1.176  11.597 -1.3557 -1.9892  1.5159
18472TIP3   OH276830   3.657   0.792   3.883  0.0285  0.7527 -0.0213
18472TIP3    H176831   3.652   0.707   3.926  1.3160  1.3121  1.3169
18472TIP3    H276832   3.571   0.832   3.898 -0.5326 -0.2399 -0.5383
18473TIP3   OH276833   4.320   0.869  15.661 -0.0579  0.1107  0.3912
18473TIP3    H176834   4.364   0.926  15.724 -1.6882  1.5321  0.3436
18473TIP3    H276835   4.390   0.831  15.609  1.1588  1.2775  1.1124
18474TIP3   OH276836   6.018   4.229  10.891  0.1455 -0.4452 -0.3399
18474TIP3    H176837   6.064   4.208  10.972  1.0620  1.4360 -0.3046
18474TIP3    H276838   6.086   4.265  10.834 -0.4486 -1.8816 -2.0444
18475TIP3   OH276839   2.397   5.795   2.343  0.4497  0.1615 -0.4569
18475TIP3    H176840   2.330   5.747   2.390 -0.0726  0.9915 -0.3272
18475TIP3    H276841   2.438   5.730   2.286  1.2477 -0.9230  1.2757
18476TIP3   OH276842   5.661   3.046   6.279  0.4257 -0.0754  0.4351
18476TIP3    H176843   5.712   3.066   6.357  0.6155 -2.1084  0.8727
18476TIP3    H276844   5.654   3.130   6.233  1.0099  0.9904  2.1974
18477TIP3   OH276845   1.334   1.778  16.210  0.6195 -0.2542 -0.3725
18477TIP3    H176846   1.363   1.868  16.226  0.2478 -0.4714  1.8125
18477TIP3    H276847   1.309   1.777  16.118  2.2069  1.4249 -0.8698
18478TIP3   OH276848   1.905   6.590   2.175 -0.0938 -0.2999  0.2464
18478TIP3    H176849   1.999   6.575   2.173 -0.2283 -1.0950 -0.6162
18478TIP3    H276850   1.893   6.655   2.245  1.0217 -0.5983  0.7429
18479TIP3   OH276851   1.803   3.310  12.865  0.2583  0.8672  0.4545
18479TIP3    H176852   1.872   3.244  12.865  0.0870  0.6829 -0.0662
18479TIP3    H276853   1.846   3.391  12.837  0.5360  1.0585  1.4021
18480TIP3   OH276854   1.266   4.998  16.839 -0.1991 -0.2085 -0.0168
18480TIP3    H176855   1.319   5.071  16.870  1.0955 -1.1588  0.0809
18480TIP3    H276856   1.181   5.011  16.881 -0.7589  2.4345 -1.6828
18481TIP3   OH276857   4.214   2.955  14.627 -0.0357 -0.0675 -0.6001
18481TIP3    H176858   4.238   3.005  14.549 -0.7003  0.3430 -0.5497
18481TIP3    H276859   4.180   2.872  14.592 -0.8117  0.3161 -0.7817
18482TIP3   OH276860   3.370   2.938  13.924  0.1610  0.8694  0.1978
18482TIP3    H176861   3.368   2.843  13.914 -1.5409  0.7945  1.0098
18482TIP3    H276862   3.451   2.956  13.972  0.0387 -0.2512  0.8350
18483TIP3   OH276863   5.359   5.506  15.376 -0.2802 -0.0393 -0.3798
18483TIP3    H176864   5.335   5.598  15.366  1.4111  0.6327  1.2177
18483TIP3    H276865   5.448   5.501  15.341 -0.5680 -1.2123 -0.9789
18484TIP3   OH276866   3.476   5.977  16.382  0.4113  0.0432  0.4969
18484TIP3    H176867   3.530   5.907  16.418  0.3085 -0.3734 -0.1640
18484TIP3    H276868   3.527   6.057  16.399  0.7096 -0.2230  0.8894
18485TIP3   OH276869   3.975   1.474   1.897 -0.0279  0.0363  0.2158
18485TIP3    H176870   4.008   1.433   1.977  0.4108 -0.0491 -0.0062
18485TIP3    H276871   3.880   1.473   1.908  0.0157 -0.2121  0.6203
18486TIP3   OH276872   6.208   5.072   3.886 -0.3366 -0.4553  0.0065
18486TIP3    H176873   6.251   5.133   3.827 -2.9990  2.9731  1.3001
18486TIP3    H276874   6.235   5.099   3.974 -1.7628 -0.9133  0.6305
18487TIP3   OH276875   1.764   3.590  14.347 -0.0728 -0.5814 -0.3432
18487TIP3    H176876   1.769   3.653  14.276  1.9458 -1.4459 -1.0467
18487TIP3    H276877   1.744   3.507  14.304 -1.4723 -0.6743  0.4277
18488TIP3   OH276878   6.679   5.957  12.088  0.4349 -0.8779 -0.2641
18488TIP3    H176879   6.705   6.027  12.148 -4.0309  1.4458 -0.6388
18488TIP3    H276880   6.701   5.990  12.001 -2.5821  0.7220 -0.5203
18489TIP3   OH276881   3.270   3.324  12.590 -0.1301  0.4948  0.1090
18489TIP3    H176882   3.243   3.348  12.501 -1.5573  0.6940  0.5599
18489TIP3    H276883   3.353   3.369  12.604  1.2096 -1.2271 -1.8603
18490TIP3   OH276884   4.041   1.923  11.744 -0.0215 -0.2982  0.3445
18490TIP3    H176885   4.018   1.841  11.789  1.2474  0.2024  2.0047
18490TIP3    H276886   3.997   1.991  11.794 -0.2793  0.1207 -0.4421
18491TIP3   OH276887   1.183   2.000   4.238  0.6441  0.4625  0.3504
18491TIP3    H176888   1.222   1.983   4.153 -0.0943  1.6730 -0.2675
18491TIP3    H276889   1.089   1.991   4.223  0.4621  1.4201  0.8374
18492TIP3   OH276890   2.105   3.072   1.508 -0.3104 -0.0000 -0.0816
18492TIP3    H176891   2.194   3.108   1.506  0.1859 -1.2011 -1.3016
18492TIP3    H276892   2.071   3.098   1.594  1.2406  0.4276  0.4422
18493TIP3   OH276893   4.609   6.525  14.144 -0.3089  0.2140  0.2082
18493TIP3    H176894   4.556   6.527  14.224 -2.5347 -0.4232 -1.1382
18493TIP3    H276895   4.548   6.550  14.074  0.2830 -3.2997 -1.8420
18494TIP3   OH276896   0.857   3.747  13.035 -0.4002 -0.0328 -0.3125
18494TIP3    H176897   0.922   3.794  12.982 -0.5112 -1.3555 -1.6830
18494TIP3    H276898   0.853   3.660  12.997 -3.1370  0.0486 -0.4572
18495TIP3   OH276899   3.404   1.714  11.667  0.5020  0.0415  0.1534
18495TIP3    H176900   3.431   1.670  11.748  1.1393  1.3225  0.6628
18495TIP3    H276901   3.330   1.661  11.635 -1.8318  1.1649  3.2042
18496TIP3   OH276902   2.322   5.876   1.174  0.8602 -0.1118  0.0030
18496TIP3    H176903   2.253   5.894   1.238 -0.1770 -0.7735 -0.8881
18496TIP3    H276904   2.275   5.864   1.091  1.9124 -1.8178 -0.3989
18497TIP3   OH276905   3.388   1.639   2.595 -0.6267  0.1842  0.4808
18497TIP3    H176906   3.308   1.657   2.546 -0.8134  0.8264  1.0015
18497TIP3    H276907   3.407   1.547   2.578 -1.7176 -0.0920  0.6843
18498TIP3   OH276908   4.803   2.079  14.263  1.1467  0.0667 -0.3835
18498TIP3    H176909   4.710   2.089  14.244  1.0809  0.2188  0.0047
18498TIP3    H276910   4.811   1.988  14.293  0.9676  0.3148  0.4358
18499TIP3   OH276911   3.396   6.432  11.650  0.4619  0.2240  0.4067
18499TIP3    H176912   3.380   6.405  11.741  0.8542 -0.5902  0.2418
18499TIP3    H276913   3.450   6.361  11.613 -2.2395 -1.0519 -1.3771
18500TIP3   OH276914   0.452   0.858  14.904 -0.2207  0.0955 -0.0312
18500TIP3    H176915   0.446   0.822  14.816 -0.2803 -0.4485  0.1927
18500TIP3    H276916   0.487   0.946  14.892  2.9504 -1.0962 -0.3517
18501TIP3   OH276917   1.340   4.033  15.480  0.2215  0.0996  0.1072
18501TIP3    H176918   1.296   3.958  15.520 -1.8835  2.4624  2.6354
18501TIP3    H276919   1.391   4.071  15.551 -0.9278  2.5663 -0.3004
18502TIP3   OH276920   5.208   2.881  17.126  0.4654 -1.1083 -0.7827
18502TIP3    H176921   5.124   2.838  17.110  1.0193 -2.1243 -1.0335
18502TIP3    H276922   5.232   2.855  17.216 -0.6629  1.2266  0.2768
18503TIP3   OH276923   5.560   5.229   0.153  0.0773  0.0128  0.2211
18503TIP3    H176924   5.494   5.256   0.089  0.4998  0.9113  0.1415
18503TIP3    H276925   5.633   5.290   0.138  0.2495  0.1231  1.4407
18504TIP3   OH276926   3.670   2.351   6.119 -0.4518  0.2472 -0.0381
18504TIP3    H176927   3.707   2.361   6.207 -0.1429  0.7699 -0.2204
18504TIP3    H276928   3.575   2.358   6.132 -0.4812 -0.7874  0.3914
18505TIP3   OH276929   5.311   2.963  13.366 -0.7848 -0.4173  0.4843
18505TIP3    H176930   5.335   3.056  13.372 -0.0963 -0.4394 -1.3493
18505TIP3    H276931   5.364   2.921  13.434 -0.3188  0.3935  0.6459
18506TIP3   OH276932   2.205   0.562  16.231  0.0166  0.4246 -0.8038
18506TIP3    H176933   2.163   0.645  16.252 -1.0323 -0.2323 -0.2694
18506TIP3    H276934   2.152   0.525  16.160 -1.3812 -1.1956  1.0040
18507TIP3   OH276935   1.985   3.865  16.830  0.2082  0.7439  0.8335
18507TIP3    H176936   1.965   3.787  16.882  0.1671  0.2589  0.1061
18507TIP3    H276937   2.076   3.852  16.801  0.2674  1.0620  0.8717
18508TIP3   OH276938   2.098   5.670   6.405  0.3862  1.0854  0.0598
18508TIP3    H176939   2.103   5.607   6.477 -0.6254  0.2120 -0.6017
18508TIP3    H276940   2.185   5.709   6.401  1.6748 -1.6543 -0.7179
18509TIP3   OH276941   0.115   3.822   5.331  0.6507 -0.2861  0.0838
18509TIP3    H176942   0.196   3.771   5.329 -0.3850 -2.1973  2.1393
18509TIP3    H276943   0.048   3.759   5.357 -0.9379  1.8572  1.5096
18510TIP3   OH276944   3.277   3.036   1.424 -0.2928 -0.0918 -0.4999
18510TIP3    H176945   3.249   3.065   1.337  0.6051  0.5210 -0.5876
18510TIP3    H276946   3.287   2.941   1.415 -2.5731 -0.4004 -0.3862
18511TIP3   OH276947   6.426   3.078   2.042  0.2130 -0.3541  0.1876
18511TIP3    H176948   6.498   3.115   2.094  0.2568 -0.2127  0.0261
18511TIP3    H276949   6.365   3.151   2.029  0.2641 -0.3531 -0.0663
18512TIP3   OH276950   4.827   6.440   0.571 -0.0687 -0.0185 -0.3680
18512TIP3    H176951   4.758   6.421   0.509 -0.7880 -2.3317  1.0307
18512TIP3    H276952   4.786   6.432   0.657  1.4007  0.8794  0.4694
18513TIP3   OH276953   6.606   1.951   5.182  0.4857  0.9767  0.2385
18513TIP3    H176954   6.684   1.954   5.127 -0.6131  0.6737 -1.4227
18513TIP3    H276955   6.571   1.863   5.169 -0.8822  1.5544 -0.1896
18514TIP3   OH276956   4.615   0.578  11.730  0.0061 -0.1576 -0.1757
18514TIP3    H176957   4.618   0.602  11.637 -0.7966  0.2070 -0.1234
18514TIP3    H276958   4.521   0.576  11.750  0.0747 -2.3524  0.0975
18515TIP3   OH276959   0.613   5.918  12.549 -0.5452 -0.1840 -0.3339
18515TIP3    H176960   0.523   5.944  12.529 -0.0780  1.1936 -0.8044
18515TIP3    H276961   0.630   5.955  12.636  0.0573  0.9563 -0.9137
18516TIP3   OH276962   5.935   6.095  13.757 -0.4330 -0.1968  0.3979
18516TIP3    H176963   5.929   6.024  13.821 -2.6969 -0.5691 -0.1328
18516TIP3    H276964   5.979   6.055  13.681  1.9540  0.1572  1.5206
18517TIP3   OH276965   2.058   6.484   1.440  0.0603 -0.2250  0.2625
18517TIP3    H176966   2.031   6.534   1.517  0.2085  0.7830 -0.3268
18517TIP3    H276967   2.030   6.537   1.366  0.6101 -0.8120 -0.3774
18518TIP3   OH276968   0.975   3.155  11.702 -0.3023  0.0650  0.1146
18518TIP3    H176969   1.062   3.144  11.664 -0.2770  1.0301 -0.1233
18518TIP3    H276970   0.915   3.133  11.631 -0.2552  1.8820 -0.5186
18519TIP3   OH276971   5.139   2.519   4.656  0.1145 -0.3103 -0.6627
18519TIP3    H176972   5.053   2.553   4.679 -0.1141 -1.9156  1.0587
18519TIP3    H276973   5.131   2.424   4.667  1.5079 -0.7174 -2.5741
18520TIP3   OH276974   1.278   4.754   1.966  0.2413 -0.1894  0.1430
18520TIP3    H176975   1.352   4.701   1.993  0.9622  0.4348 -0.5570
18520TIP3    H276976   1.201   4.702   1.991  0.9061 -2.2182 -1.6829
18521TIP3   OH276977   0.499   5.092  13.075  0.5020  0.6129 -0.1905
18521TIP3    H176978   0.575   5.061  13.123  0.1120  0.6311  0.4409
18521TIP3    H276979   0.499   5.040  12.994  0.3013 -0.4895  0.5028
18522TIP3   OH276980   1.496   3.573   0.469  0.1884 -0.2044  0.3597
18522TIP3    H176981   1.502   3.636   0.398 -1.6700  0.2828  0.5802
18522TIP3    H276982   1.587   3.557   0.495  0.7879  1.0748 -0.8316
18523TIP3   OH276983   5.934   1.280  12.087  0.2253 -0.1912  0.1190
18523TIP3    H176984   5.927   1.231  12.169 -0.3864  0.5071  0.5036
18523TIP3    H276985   6.018   1.254  12.050  0.1854 -1.0510  0.6175
18524TIP3   OH276986   2.541   1.945  14.331  0.1207 -0.6757 -0.5177
18524TIP3    H176987   2.542   1.933  14.236 -0.4475 -1.0877 -0.4780
18524TIP3    H276988   2.633   1.944  14.357  0.2442 -1.3067 -0.9753
18525TIP3   OH276989   1.395   0.936  15.224  0.3675 -0.1948 -0.2747
18525TIP3    H176990   1.393   1.018  15.175  1.9038 -0.5550 -1.0205
18525TIP3    H276991   1.474   0.891  15.192 -0.3401 -1.8864  0.2341
18526TIP3   OH276992   5.593   4.408   0.545 -0.0303 -0.0374 -0.2542
18526TIP3    H176993   5.532   4.358   0.599  0.7124  1.5319  2.2327
18526TIP3    H276994   5.547   4.419   0.462 -1.9813 -1.1866  0.5813
18527TIP3   OH276995   0.471   5.472  15.018 -0.5773  0.6219 -0.0640
18527TIP3    H176996   0.384   5.454  14.981 -0.3258 -0.4019 -0.1797
18527TIP3    H276997   0.469   5.433  15.106 -0.1863  0.4855 -0.1141
18528TIP3   OH276998   6.108   5.066   2.177  0.0382  0.1728  0.0072
18528TIP3    H176999   6.022   5.107   2.170 -0.2064 -0.5414 -1.8007
18528TIP3    H277000   6.138   5.087   2.265 -0.7176  2.9016 -0.3064
18529TIP3   OH277001   5.603   6.542   0.196 -1.2313 -0.1288 -0.0159
18529TIP3    H177002   5.611   6.447   0.204 -3.7273 -0.3931  0.1442
18529TIP3    H277003   5.690   6.572   0.171  0.3177 -2.1510  2.5063
18530TIP3   OH277004   0.000   1.565  15.277  0.2002 -0.3953  0.1900
18530TIP3    H177005   0.025   1.637  15.220  2.1506 -0.2115  1.2093
18530TIP3    H277006  -0.092   1.581  15.298  0.4989  1.5901  0.1068
18531TIP3   OH277007   3.624   3.499   0.196  0.3328  0.4163  0.1451
18531TIP3    H177008   3.706   3.456   0.168  0.7785 -0.0840  2.0419
18531TIP3    H277009   3.651   3.587   0.221  0.6134 -0.1686  2.0808
18532TIP3   OH277010   3.527   6.749  11.191  0.1136 -0.1749  0.0862
18532TIP3    H177011   3.530   6.820  11.255  1.4315 -0.2271  0.1010
18532TIP3    H277012   3.602   6.764  11.134 -0.1420 -1.0216 -0.4972
18533TIP3   OH277013   2.865   3.548   5.782 -0.2219 -0.5366  0.4136
18533TIP3    H177014   2.899   3.634   5.757 -1.3088 -0.2279 -0.0692
18533TIP3    H277015   2.777   3.566   5.816 -0.1946 -1.3808  0.9504
18534TIP3   OH277016   0.887   3.991  14.409  0.0031  0.1247  0.0766
18534TIP3    H177017   0.942   3.916  14.432 -0.2430 -0.7612 -1.9778
18534TIP3    H277018   0.831   4.005  14.485  1.9800  0.0823  1.6244
18535TIP3   OH277019   1.204   1.624  13.741  0.4513 -0.2490  0.1319
18535TIP3    H177020   1.272   1.556  13.751  2.4546  1.6558  0.2166
18535TIP3    H277021   1.181   1.621  13.649  0.9647 -0.6544  0.0060
18536TIP3   OH277022   2.112   3.159   4.885 -0.1267 -0.2721 -0.6993
18536TIP3    H177023   2.079   3.089   4.942 -0.7111  0.1942 -0.4643
18536TIP3    H277024   2.045   3.227   4.888  0.0598 -0.0333 -1.5663
18537TIP3   OH277025   1.332   0.638   1.378  0.3803  0.1009 -0.5436
18537TIP3    H177026   1.255   0.664   1.429 -0.3909 -2.3467 -0.3553
18537TIP3    H277027   1.343   0.709   1.314 -1.4324  0.9836  0.0480
18538TIP3   OH277028   0.346   5.431  15.249  0.1643 -0.5861 -0.0710
18538TIP3    H177029   0.274   5.400  15.195  1.1807 -0.6369 -1.4400
18538TIP3    H277030   0.307   5.499  15.304 -0.9688 -0.7664 -0.6283
18539TIP3   OH277031   2.064   3.619  13.226  0.6037 -0.2183  0.3605
18539TIP3    H177032   2.029   3.702  13.193 -0.4115 -1.0959 -0.8652
18539TIP3    H277033   2.029   3.613  13.316  2.0987  1.4489  1.0963
18540TIP3   OH277034   2.498   1.501  14.078 -0.1335 -0.1025  0.3048
18540TIP3    H177035   2.567   1.565  14.094  0.8770 -1.1683  0.3663
18540TIP3    H277036   2.420   1.553  14.058  0.0414  1.2189  2.6593
18541TIP3   OH277037   3.823   5.397   6.517  0.5181  0.3863  0.1018
18541TIP3    H177038   3.835   5.465   6.583  1.2365 -0.7549  1.1803
18541TIP3    H277039   3.842   5.441   6.434  2.2671  1.2061  0.8772
18542TIP3   OH277040   6.388   1.856  11.570  0.8239 -0.1948 -0.7147
18542TIP3    H177041   6.313   1.914  11.579 -0.3238 -1.6304 -0.5988
18542TIP3    H277042   6.396   1.841  11.476  0.1267 -1.0560 -0.6503
18543TIP3   OH277043   1.169   4.419   4.744  0.6440 -0.0392  0.1012
18543TIP3    H177044   1.222   4.481   4.694  0.5994 -1.1728 -1.4125
18543TIP3    H277045   1.211   4.334   4.730  0.0539 -0.5357  1.2080
18544TIP3   OH277046   3.718   1.661  15.937 -0.6668 -0.6620  0.1729
18544TIP3    H177047   3.747   1.581  15.979 -0.9507 -0.5313  0.6232
18544TIP3    H277048   3.624   1.651  15.927 -0.5008 -1.0454 -1.2043
18545TIP3   OH277049   1.780   2.795   0.993  0.1447 -0.3573  0.5611
18545TIP3    H177050   1.838   2.842   0.934  0.4577  0.3135  1.3866
18545TIP3    H277051   1.700   2.781   0.942  0.4323  0.1412 -0.0412
18546TIP3   OH277052   4.427   1.951   2.745 -0.1050 -0.0033 -0.1672
18546TIP3    H177053   4.385   1.888   2.688 -0.8336 -0.0885  0.4461
18546TIP3    H277054   4.438   2.030   2.691 -1.6470  0.2408 -0.1590
18547TIP3   OH277055   6.341   0.508  12.816 -0.0258 -0.4604  0.2567
18547TIP3    H177056   6.284   0.568  12.864  0.2871  0.6988 -0.7514
18547TIP3    H277057   6.369   0.558  12.739  2.4855 -0.8984  0.7742
18548TIP3   OH277058   0.407   4.763  13.534 -0.3508 -0.6159 -0.0451
18548TIP3    H177059   0.335   4.719  13.579 -1.6386  0.1554 -1.2654
18548TIP3    H277060   0.370   4.847  13.506  1.0595 -0.1576 -0.6141
18549TIP3   OH277061   4.164   6.684  11.685 -0.6112  0.5119  0.4754
18549TIP3    H177062   4.174   6.644  11.599  0.0703  0.3643  0.6164
18549TIP3    H277063   4.209   6.624  11.745 -0.3605  1.0257  0.8122
18550TIP3   OH277064   6.770   4.504  12.560  0.5787 -0.0175  0.3972
18550TIP3    H177065   6.730   4.422  12.590 -0.5188  0.1615 -0.5023
18550TIP3    H277066   6.703   4.571  12.575  1.5822  0.7896  1.4089
18551TIP3   OH277067   0.587   0.197   4.861  0.4935  0.2497  0.2623
18551TIP3    H177068   0.546   0.157   4.937  0.4699 -0.7899 -0.2877
18551TIP3    H277069   0.567   0.291   4.870 -0.0967  0.0506  1.1590
18552TIP3   OH277070   1.936   6.063   4.765  0.0693 -0.0474 -0.6512
18552TIP3    H177071   1.986   6.132   4.722 -0.7460  0.0831 -1.4328
18552TIP3    H277072   1.984   6.044   4.845  1.7018 -0.3657 -1.6647
18553TIP3   OH277073   1.830   6.193  16.839  0.6326  0.4260 -0.2581
18553TIP3    H177074   1.817   6.259  16.771  1.3692  0.4442 -0.3931
18553TIP3    H277075   1.742   6.170  16.868  0.3103  0.3762 -1.2534
18554TIP3   OH277076   2.271   4.536   1.335  0.0623 -0.1143 -0.3648
18554TIP3    H177077   2.203   4.470   1.347 -1.2753  1.2924  0.1751
18554TIP3    H277078   2.240   4.590   1.262  0.9102  0.1764 -0.5228
18555TIP3   OH277079   1.694   6.292  15.213  0.1872  0.3553  0.0283
18555TIP3    H177080   1.778   6.255  15.185  0.1252  0.6519 -0.5627
18555TIP3    H277081   1.633   6.218  15.209  0.0098  0.5383 -1.3885
18556TIP3   OH277082   4.238   2.910   6.470  0.4130  0.4708 -0.0593
18556TIP3    H177083   4.263   2.884   6.559  0.3405 -1.6482 -0.6076
18556TIP3    H277084   4.312   2.882   6.416 -0.1857  0.3708 -0.8341
18557TIP3   OH277085   0.647   4.872  17.178 -0.1206  0.4393  0.4059
18557TIP3    H177086   0.643   4.949  17.120 -1.7218  0.8033  0.9565
18557TIP3    H277087   0.628   4.798  17.121 -0.9296  0.7169  0.2968
18558TIP3   OH277088   4.885   0.222  12.157  0.3768 -0.3562 -0.4001
18558TIP3    H177089   4.906   0.155  12.222 -0.1416  0.0273  0.1903
18558TIP3    H277090   4.964   0.276  12.152 -0.4149  1.2111  1.9695
18559TIP3   OH277091   6.299   4.309  15.490 -0.2445  0.0252  0.4495
18559TIP3    H177092   6.207   4.282  15.496  0.2315 -1.5672  0.8437
18559TIP3    H277093   6.333   4.300  15.579  0.7372 -1.0651 -0.0182
18560TIP3   OH277094   5.418   1.608   5.610  0.0081  0.2367  0.8000
18560TIP3    H177095   5.391   1.664   5.537 -0.5092 -0.2446  0.6211
18560TIP3    H277096   5.510   1.587   5.591 -0.1652 -0.0073  0.2027
18561TIP3   OH277097   2.000   5.566  13.556  0.3182  0.5509 -0.4304
18561TIP3    H177098   1.924   5.609  13.517 -0.9971 -0.7997  0.5419
18561TIP3    H277099   1.976   5.474  13.560  1.6128  0.2337  0.8214
18562TIP3   OH277100   0.357   0.752   4.832  1.0428 -0.5440 -0.1170
18562TIP3    H177101   0.344   0.846   4.816  2.5498 -0.2299  0.3314
18562TIP3    H277102   0.269   0.715   4.832  0.4969  0.6736 -1.4638
18563TIP3   OH277103   5.559   5.521  11.236  0.6347  0.0159 -0.3387
18563TIP3    H177104   5.588   5.456  11.300  2.1201  1.3133  0.3567
18563TIP3    H277105   5.500   5.472  11.178  1.5204 -1.9048  0.2815
18564TIP3   OH277106   4.046   4.915  16.663 -0.0872 -0.2210 -0.4649
18564TIP3    H177107   4.113   4.846  16.665  1.1578  0.9434 -0.4137
18564TIP3    H277108   4.064   4.969  16.740 -2.2090 -0.8495  0.5482
18565TIP3   OH277109   6.450   5.017   4.935 -0.2541  0.3144  0.3086
18565TIP3    H177110   6.393   5.076   4.984 -0.0914 -0.3016  1.2743
18565TIP3    H277111   6.493   4.964   5.003  0.0578 -0.4885 -0.5013
18566TIP3   OH277112   5.082   6.279  11.300  0.3108  0.2411 -0.5655
18566TIP3    H177113   5.133   6.358  11.318  0.5730  0.0340 -0.3961
18566TIP3    H277114   5.101   6.258  11.209  0.4864  0.1961 -0.5188
18567TIP3   OH277115   6.665   3.774   0.348 -0.5338 -0.5717 -0.6451
18567TIP3    H177116   6.640   3.863   0.323 -1.4061 -0.5508  0.2189
18567TIP3    H277117   6.674   3.778   0.443 -2.4524 -1.8021 -0.3486
18568TIP3   OH277118   4.049   2.712   4.111  0.3437  0.3002  0.8819
18568TIP3    H177119   4.136   2.749   4.100  0.7617 -1.2154 -1.9854
18568TIP3    H277120   3.991   2.788   4.121  1.7413  1.4252  0.7400
18569TIP3   OH277121   3.618   5.976   5.459  0.3253 -0.7615  0.7633
18569TIP3    H177122   3.601   5.883   5.475 -0.5804 -0.5938  0.7939
18569TIP3    H277123   3.537   6.020   5.483 -0.0055 -0.1774 -1.2468
18570TIP3   OH277124   4.521   3.343   0.316  0.3339  0.3191  0.1032
18570TIP3    H177125   4.437   3.338   0.270  0.1869 -0.8122  0.4616
18570TIP3    H277126   4.508   3.411   0.381  0.0947  0.9899 -0.6243
18571TIP3   OH277127   6.009   5.449   1.555  0.1863  0.1880  0.1994
18571TIP3    H177128   5.979   5.371   1.601  1.0811  0.6868  1.7414
18571TIP3    H277129   5.931   5.502   1.543 -0.1496 -0.1640  0.7728
18572TIP3   OH277130   4.419   6.468  13.202 -0.3081  0.1662  0.2179
18572TIP3    H177131   4.424   6.421  13.119 -1.4189 -0.7303  0.6168
18572TIP3    H277132   4.488   6.534  13.198  0.4767 -0.6949 -0.8846
18573TIP3   OH277133   4.990   5.651  13.020  0.4182  0.0743 -0.8156
18573TIP3    H177134   5.030   5.722  12.969  0.1074  1.0001  0.1875
18573TIP3    H277135   4.896   5.670  13.017  0.1747 -1.1878 -1.8298
18574TIP3   OH277136   6.040   3.076  16.873  0.0475 -0.1865 -0.3293
18574TIP3    H177137   6.009   3.072  16.783  0.4409 -0.6459 -0.4439
18574TIP3    H277138   5.970   3.035  16.924  0.5403 -1.4237 -0.6129
18575TIP3   OH277139   2.256   5.130   2.172  0.1201  0.1343  0.7385
18575TIP3    H177140   2.349   5.123   2.195  0.0043  0.7096  1.4213
18575TIP3    H277141   2.246   5.072   2.097  1.4096  1.4577 -0.5282
18576TIP3   OH277142   6.687   1.801   3.522  0.0956  0.0591  0.1732
18576TIP3    H177143   6.605   1.756   3.545  0.3668 -1.1510 -1.1377
18576TIP3    H277144   6.721   1.832   3.606  0.2623 -2.8269  1.2829
18577TIP3   OH277145   0.439   1.895   0.875 -0.1369  0.3905 -0.3365
18577TIP3    H177146   0.515   1.846   0.907 -0.4302 -0.0218 -0.2698
18577TIP3    H277147   0.363   1.847   0.909 -0.4275  1.2442  0.2761
18578TIP3   OH277148   1.968   0.836  14.728  0.1567 -0.1056  0.2532
18578TIP3    H177149   1.922   0.799  14.803  1.0528 -1.6702  0.0553
18578TIP3    H277150   2.048   0.873  14.765  0.7934 -1.2366  0.0390
18579TIP3   OH277151   3.879   0.370  14.416 -0.0787  0.8246  0.0053
18579TIP3    H177152   3.960   0.345  14.373  0.4483  0.8276  0.9569
18579TIP3    H277153   3.810   0.334  14.360  0.5968 -0.0233 -0.3160
18580TIP3   OH277154   0.019   1.218  12.412  0.2446  0.0105 -0.4910
18580TIP3    H177155   0.051   1.222  12.502 -0.3489  0.6325 -0.3049
18580TIP3    H277156   0.043   1.303  12.375  2.4648 -1.0186 -1.6126
18581TIP3   OH277157   0.416   4.282  12.836 -0.6849 -0.9642 -0.3452
18581TIP3    H177158   0.477   4.217  12.871  1.2126  0.4618 -0.8564
18581TIP3    H277159   0.423   4.356  12.896 -0.0154  0.1680 -1.7599
18582TIP3   OH277160   3.737   2.675  15.512  0.1628 -0.2605 -0.3921
18582TIP3    H177161   3.800   2.716  15.453 -0.8483  1.4336 -0.3761
18582TIP3    H277162   3.680   2.747  15.539  0.2764 -1.0844  2.2647
18583TIP3   OH277163   6.134   4.729  15.316 -0.0706 -0.3579 -0.3992
18583TIP3    H177164   6.219   4.688  15.327  0.2726  0.0163 -1.5177
18583TIP3    H277165   6.149   4.822  15.336 -0.6091 -0.5591  1.0769
18584TIP3   OH277166   5.858   3.720   0.891  0.0083 -0.1596  0.4478
18584TIP3    H177167   5.828   3.659   0.959 -0.1642 -0.3404  0.2078
18584TIP3    H277168   5.777   3.758   0.856  0.1161  0.2273  0.6139
18585TIP3   OH277169   1.536   1.798   0.682  0.0293 -0.2341  0.5284
18585TIP3    H177170   1.571   1.873   0.730  1.1915 -0.5738  0.2445
18585TIP3    H277171   1.443   1.796   0.705 -0.8472  3.2313 -1.9304
18586TIP3   OH277172   1.419   0.979   5.732  0.3257  0.6530 -0.3338
18586TIP3    H177173   1.401   1.041   5.662 -2.2121  0.2806 -0.1105
18586TIP3    H277174   1.409   1.030   5.813 -0.6291  0.2283 -0.1754
18587TIP3   OH277175   6.667   6.594   0.800 -0.3859  0.0314 -0.1409
18587TIP3    H177176   6.602   6.597   0.729 -0.3960  1.2534 -0.1008
18587TIP3    H277177   6.697   6.684   0.809  0.7600 -0.3790  0.3741
18588TIP3   OH277178   0.722   3.717  15.411  0.1905  0.2484 -0.1080
18588TIP3    H177179   0.657   3.747  15.474 -0.1897  0.4653 -0.6031
18588TIP3    H277180   0.780   3.661  15.462 -1.6245 -1.7333 -0.1024
18589TIP3   OH277181   1.105   6.525  15.198 -0.2595  0.2557 -0.1444
18589TIP3    H177182   1.079   6.512  15.289 -1.9089  2.8928 -0.1352
18589TIP3    H277183   1.096   6.438  15.158 -2.4819 -0.3978  1.5448
18590TIP3   OH277184   3.894   3.466  16.135 -0.6757 -0.3772  0.7056
18590TIP3    H177185   3.875   3.461  16.041 -0.3632 -0.3522  0.6384
18590TIP3    H277186   3.892   3.560  16.154 -3.0542 -0.4793  1.2184
18591TIP3   OH277187   0.668   5.508  15.634  0.1308 -0.4865 -0.0777
18591TIP3    H177188   0.666   5.417  15.664 -0.9672  0.0608  1.6845
18591TIP3    H277189   0.739   5.547  15.684 -1.0400  0.1924  1.1217
18592TIP3   OH277190   3.720   2.492   5.685 -0.3190 -0.5061  0.8460
18592TIP3    H177191   3.700   2.400   5.666 -2.1228 -0.1496  0.8493
18592TIP3    H277192   3.761   2.524   5.605  2.1609 -1.7696  1.5077
18593TIP3   OH277193   2.598   1.362  16.902 -0.0447 -0.0452 -0.0539
18593TIP3    H177194   2.563   1.335  16.817 -0.0288  0.6514 -0.2893
18593TIP3    H277195   2.595   1.458  16.900 -0.4670 -0.0241  0.9003
18594TIP3   OH277196   6.232   3.966  15.426 -0.2251  0.6420 -0.1442
18594TIP3    H177197   6.267   3.937  15.511 -2.5170 -2.3632 -0.0748
18594TIP3    H277198   6.308   3.968  15.368  0.8082 -1.1001  1.0570
18595TIP3   OH277199   0.401   6.775   4.462  0.1601  0.1608 -0.5043
18595TIP3    H177200   0.343   6.834   4.510 -0.0383 -0.2037 -0.2890
18595TIP3    H277201   0.431   6.826   4.387  2.1434  1.4974  1.0889
18596TIP3   OH277202   6.576   5.510   5.289 -0.0791  0.0805 -0.0985
18596TIP3    H177203   6.569   5.576   5.220  0.1688  0.7438  0.5050
18596TIP3    H277204   6.625   5.438   5.248 -0.6052  0.1405 -0.8474
18597TIP3   OH277205   4.348   2.421   2.196  0.1661  0.0663  0.1662
18597TIP3    H177206   4.349   2.476   2.274  1.7702  0.1980  0.0817
18597TIP3    H277207   4.334   2.332   2.229 -1.1939  0.3481  0.4048
18598TIP3   OH277208   6.559   0.078  15.816 -0.0960 -0.2126  0.0726
18598TIP3    H177209   6.494   0.140  15.850 -0.5028 -0.4044 -0.3370
18598TIP3    H277210   6.608   0.050  15.893 -1.1628 -0.8235  0.5433
18599TIP3   OH277211   0.258   1.514  14.413 -0.2809  0.0154 -0.2318
18599TIP3    H177212   0.295   1.458  14.346 -0.9473  0.4551 -0.9969
18599TIP3    H277213   0.213   1.454  14.473 -1.4159 -0.2511 -1.3148
18600TIP3   OH277214   1.969   0.314  16.962  0.1155  0.3158 -0.7022
18600TIP3    H177215   1.947   0.354  17.047  1.0093  0.5111 -0.5596
18600TIP3    H277216   2.006   0.229  16.984 -1.5317 -0.5300 -0.9990
18601TIP3   OH277217   5.311   3.057   5.146 -0.2720  0.3844  0.3621
18601TIP3    H177218   5.389   3.087   5.099  0.7861 -2.4481  0.1452
18601TIP3    H277219   5.273   2.991   5.090 -1.3864 -0.0919  1.6328
18602TIP3   OH277220   1.067   0.179   4.761  0.0425  0.1646 -0.5305
18602TIP3    H177221   1.107   0.233   4.829 -1.1369 -1.3158  1.4878
18602TIP3    H277222   0.981   0.219   4.746 -0.1494 -0.1422 -0.2825
18603TIP3   OH277223   4.868   3.753   0.409 -0.5467 -0.0342 -0.4265
18603TIP3    H177224   4.790   3.742   0.355 -2.2213  0.4833  1.7234
18603TIP3    H277225   4.839   3.809   0.481  2.5744  2.4929 -0.9438
18604TIP3   OH277226   0.099   2.567   0.299  0.6330 -0.3732  0.9461
18604TIP3    H177227   0.137   2.586   0.214  2.1101 -0.8014  1.4789
18604TIP3    H277228   0.024   2.511   0.280  1.1570 -0.7627 -0.0440
18605TIP3   OH277229   5.153   0.102  16.586  0.1654  0.0810 -0.0574
18605TIP3    H177230   5.232   0.144  16.553 -0.5855  1.3261 -0.3608
18605TIP3    H277231   5.082   0.162  16.562 -1.0095 -1.5036 -0.7159
18606TIP3   OH277232   5.054   6.026   1.642 -0.0017  0.4003 -0.0270
18606TIP3    H177233   5.117   6.004   1.574  0.9003 -0.0398  0.9180
18606TIP3    H277234   4.990   5.954   1.641  0.6101 -0.1607  0.2840
18607TIP3   OH277235   6.557   4.112  16.280  0.3014  0.5822 -0.4932
18607TIP3    H177236   6.473   4.069  16.294 -0.2573  2.3924  2.5757
18607TIP3    H277237   6.622   4.048  16.309 -0.1248 -0.0815 -0.9737
18608TIP3   OH277238   1.185   1.453  11.810  0.1623 -0.5929 -0.0274
18608TIP3    H177239   1.253   1.515  11.837  0.7990 -0.7033 -1.3072
18608TIP3    H277240   1.188   1.384  11.876  0.7794 -0.2163  0.3501
18609TIP3   OH277241   4.057   4.888  12.734  0.3225  0.0002 -0.2279
18609TIP3    H177242   4.065   4.905  12.640  1.9899 -0.4989 -0.2131
18609TIP3    H277243   4.142   4.851  12.758  0.3719  1.2720  1.7286
18610TIP3   OH277244   2.450   3.876   3.338 -0.1824  0.1950  0.5230
18610TIP3    H177245   2.501   3.795   3.348 -1.2025 -0.2443  2.8175
18610TIP3    H277246   2.360   3.846   3.328 -0.5838  1.0244  1.5133
18611TIP3   OH277247   0.152   3.847  11.913 -0.0441  0.0251 -0.5235
18611TIP3    H177248   0.105   3.849  11.996  0.1599  3.1083 -0.3824
18611TIP3    H277249   0.086   3.873  11.848  0.4262  0.1341 -0.9582
18612TIP3   OH277250   5.711   1.819   1.904 -0.1198 -0.0987 -0.1055
18612TIP3    H177251   5.646   1.882   1.875  0.5522  0.0981 -1.2322
18612TIP3    H277252   5.708   1.748   1.839  0.9154  0.0126 -0.2971
18613TIP3   OH277253   5.144   3.587   2.079  0.4861  0.1703 -0.6572
18613TIP3    H177254   5.198   3.641   2.021 -0.2538  1.0442 -0.5439
18613TIP3    H277255   5.207   3.548   2.140  0.8757  2.2240  0.3084
18614TIP3   OH277256   2.265   4.848  16.679  1.0367 -0.7257 -0.2875
18614TIP3    H177257   2.214   4.922  16.711  2.0122 -0.9197  1.8832
18614TIP3    H277258   2.228   4.828  16.593 -1.3060  0.2846  0.4208
18615TIP3   OH277259   0.861   6.762  16.375  0.1072  0.2723  0.1124
18615TIP3    H177260   0.850   6.672  16.346  1.1455  0.1750  0.0042
18615TIP3    H277261   0.792   6.810  16.329 -0.3161 -0.4222  0.0051
18616TIP3   OH277262   3.346   2.750   2.360  0.0392 -0.3785 -0.3212
18616TIP3    H177263   3.416   2.701   2.403  0.0316  1.0517  1.4682
18616TIP3    H277264   3.283   2.684   2.332  1.2242 -1.5512 -0.2668
18617TIP3   OH277265   3.500   5.980  15.323  0.0505  0.7523 -0.1787
18617TIP3    H177266   3.538   5.963  15.409  0.1402 -0.1376 -0.3901
18617TIP3    H277267   3.424   5.922  15.318 -0.5752  1.5548 -0.2915
18618TIP3   OH277268   5.055   1.946   5.636 -0.2348 -0.6351  0.5315
18618TIP3    H177269   5.128   1.960   5.696 -0.1715  0.4269  0.2276
18618TIP3    H277270   5.094   1.953   5.549 -0.7409  0.1748  0.3682
18619TIP3   OH277271   2.855   2.654  14.064 -0.1441  0.1907  0.2180
18619TIP3    H177272   2.882   2.652  14.156  1.4287  0.3573 -0.2221
18619TIP3    H277273   2.780   2.594  14.060 -1.6864  1.8388  2.0304
18620TIP3   OH277274   6.167   4.119   4.997  1.0442  0.1150  0.2601
18620TIP3    H177275   6.092   4.166   4.961  1.5078  1.6706  1.2352
18620TIP3    H277276   6.140   4.027   4.997  0.6415  0.0930 -3.0880
18621TIP3   OH277277   2.113   2.412   3.473 -0.4506  0.2901  0.4836
18621TIP3    H177278   2.166   2.389   3.397  0.1088  2.0334  0.2856
18621TIP3    H277279   2.122   2.338   3.532 -2.0664 -1.8026 -1.6722
18622TIP3   OH277280   0.605   5.497  17.123 -0.3180 -0.3341 -0.0475
18622TIP3    H177281   0.626   5.590  17.129  1.4622 -0.7863  2.1020
18622TIP3    H277282   0.689   5.453  17.132 -0.8917 -2.1947 -2.6703
18623TIP3   OH277283   1.567   5.485   4.096 -0.0124 -0.4381 -0.1212
18623TIP3    H177284   1.538   5.394   4.088  0.2080 -0.4448 -0.9762
18623TIP3    H277285   1.645   5.481   4.151 -0.2630 -0.7081  0.2179
18624TIP3   OH277286   3.720   5.435   5.227  0.3224 -0.0845 -1.2943
18624TIP3    H177287   3.772   5.357   5.206 -2.4917 -2.9587  1.4056
18624TIP3    H277288   3.690   5.467   5.142  2.6045 -1.0813 -2.5707
18625TIP3   OH277289   1.316   0.966   2.812  0.6292  0.0522  0.3247
18625TIP3    H177290   1.234   0.999   2.774  0.3393 -1.3485 -0.3280
18625TIP3    H277291   1.311   0.871   2.801  1.2683 -0.2832  2.4610
18626TIP3   OH277292   1.727   6.775   4.771  0.4309 -0.1840  0.1488
18626TIP3    H177293   1.671   6.792   4.848  1.1423 -2.3353  1.2104
18626TIP3    H277294   1.814   6.761   4.808  0.8208 -1.1223 -1.0672
18627TIP3   OH277295   4.858   1.525  15.931 -0.4371  0.0505  0.6097
18627TIP3    H177296   4.829   1.571  15.852  0.3807 -2.0085 -0.9705
18627TIP3    H277297   4.783   1.531  15.991 -1.1645  1.4579 -0.3728
18628TIP3   OH277298   0.201   0.380   1.207 -0.2768 -0.2389 -0.4388
18628TIP3    H177299   0.179   0.330   1.128  1.3900  1.4859 -2.0863
18628TIP3    H277300   0.278   0.431   1.183 -0.0247  0.7602  2.1684
18629TIP3   OH277301   1.972   4.332   1.820  0.4565  0.2419 -0.9998
18629TIP3    H177302   2.033   4.314   1.748 -1.6526  0.7191 -3.0188
18629TIP3    H277303   1.918   4.405   1.789 -1.2434 -0.2475  0.6112
18630TIP3   OH277304   5.976   0.482   4.069 -0.0851  0.3314  0.0353
18630TIP3    H177305   5.948   0.547   4.134  0.8663  0.8351 -0.0423
18630TIP3    H277306   5.899   0.471   4.013 -0.0066  2.0791 -0.4925
18631TIP3   OH277307   4.272   5.429   5.324 -0.1776  0.0556  0.2173
18631TIP3    H177308   4.295   5.384   5.242 -2.0395  0.1739 -0.4397
18631TIP3    H277309   4.260   5.358   5.387 -1.0925 -0.2521 -0.2770
18632TIP3   OH277310   1.497   6.492  15.169 -0.0839 -0.3452  0.1742
18632TIP3    H177311   1.453   6.514  15.251  0.6054 -1.9586  1.0190
18632TIP3    H277312   1.573   6.440  15.195  0.5748 -0.2728 -1.4475
18633TIP3   OH277313   0.367   0.876  16.537  0.4759  0.1310 -0.5198
18633TIP3    H177314   0.441   0.937  16.542  1.5237 -1.1621  0.4985
18633TIP3    H277315   0.370   0.843  16.447  0.7527  0.5228 -0.6600
18634TIP3   OH277316   5.474   3.325  11.981 -0.4505  0.1302  0.0694
18634TIP3    H177317   5.531   3.308  11.907 -1.1233 -0.3725 -0.3375
18634TIP3    H277318   5.410   3.388  11.949 -1.4805 -1.0070 -0.1484
18635TIP3   OH277319   1.466   0.829  13.262  0.3294 -0.4796  0.6690
18635TIP3    H177320   1.504   0.906  13.220 -0.9763 -0.1879 -0.0162
18635TIP3    H277321   1.455   0.766  13.191 -0.6135 -0.4951  0.8161
18636TIP3   OH277322   5.996   2.490   5.351 -0.0437  0.2957  0.4914
18636TIP3    H177323   6.063   2.431   5.316  0.2010  0.9708 -0.1866
18636TIP3    H277324   5.985   2.462   5.443 -0.1819 -1.0249  0.1026
18637TIP3   OH277325   2.453   3.014   1.794  0.2954  0.7242  0.3330
18637TIP3    H177326   2.379   3.048   1.844 -1.8476 -0.4215 -1.8580
18637TIP3    H277327   2.452   3.064   1.712  1.3419  0.0080 -0.1437
18638TIP3   OH277328   0.459   2.814   1.895  0.9776  0.0569 -0.1973
18638TIP3    H177329   0.543   2.775   1.871  0.9646  0.0129 -0.1712
18638TIP3    H277330   0.452   2.801   1.989  0.6494 -0.5189 -0.2952
18639TIP3   OH277331   3.019   6.404   1.493  0.4617  0.1133 -0.4682
18639TIP3    H177332   3.081   6.421   1.564 -0.5632 -1.5020  0.8999
18639TIP3    H277333   2.974   6.488   1.480 -1.2907 -0.1242  2.8482
18640TIP3   OH277334   2.470   2.135   0.276 -0.3523 -0.4467 -0.0914
18640TIP3    H177335   2.501   2.046   0.290  0.9065 -0.0824 -0.4311
18640TIP3    H277336   2.398   2.127   0.214  0.5644 -1.1123 -1.0901
18641TIP3   OH277337   4.056   4.052  13.109  0.3542 -0.7035 -0.3482
18641TIP3    H177338   4.045   3.963  13.073  0.0314 -0.1217 -1.7781
18641TIP3    H277339   4.142   4.051  13.151  1.3296 -1.1204 -2.2298
18642TIP3   OH277340   2.991   1.193  13.028 -0.8876  1.1286 -0.0461
18642TIP3    H177341   3.064   1.207  13.088 -0.3279 -0.4921 -0.3029
18642TIP3    H277342   3.005   1.105  12.993 -2.2504  1.2970 -1.1033
18643TIP3   OH277343   5.637   4.707  16.554 -0.0646  0.1747  0.1300
18643TIP3    H177344   5.579   4.783  16.552 -0.3705 -0.0647  0.0203
18643TIP3    H277345   5.598   4.648  16.618 -0.6163 -0.5312 -0.8344
18644TIP3   OH277346   6.792   5.197  13.218  0.2996  0.6256 -0.0247
18644TIP3    H177347   6.887   5.192  13.218  0.2421 -1.4239 -0.0713
18644TIP3    H277348   6.771   5.255  13.291  1.5800  1.7104 -0.4872
18645TIP3   OH277349   3.208   0.056  10.771  0.0046  0.1301  0.0513
18645TIP3    H177350   3.117   0.031  10.781  0.3758 -0.8117  1.3840
18645TIP3    H277351   3.230   0.101  10.853  1.1742 -1.1312  0.4718
18646TIP3   OH277352   2.260   3.863  15.240  0.5480  0.0103 -0.2787
18646TIP3    H177353   2.350   3.838  15.257  0.0127 -0.3764  2.4776
18646TIP3    H277354   2.251   3.950  15.279 -0.9191 -1.1203  2.1491
18647TIP3   OH277355   2.319   1.003  16.920 -0.3153  0.3619 -0.0982
18647TIP3    H177356   2.351   1.078  16.971 -0.8697  0.9199 -0.5462
18647TIP3    H277357   2.311   0.932  16.983  1.2444  0.3650  0.1350
18648TIP3   OH277358   6.491   3.777  14.743  0.1823  0.4489  0.4641
18648TIP3    H177359   6.460   3.732  14.822 -0.5396  1.2655  0.6540
18648TIP3    H277360   6.564   3.831  14.773  2.1951 -1.7928 -0.0552
18649TIP3   OH277361   2.302   6.716   6.154 -0.3557  0.2409 -0.0222
18649TIP3    H177362   2.361   6.790   6.168 -0.8737  0.4544  1.1336
18649TIP3    H277363   2.296   6.674   6.240  1.1184 -2.0743 -0.9438
18650TIP3   OH277364   1.876   6.087   3.105  0.3864  0.5499  0.9775
18650TIP3    H177365   1.785   6.059   3.109  0.4704  0.0035 -0.2837
18650TIP3    H277366   1.882   6.138   3.024  1.4705 -0.6085  0.2769
18651TIP3   OH277367   2.568   6.645   0.811 -0.0101 -0.3797 -0.1137
18651TIP3    H177368   2.594   6.553   0.802 -0.4135 -0.8020  2.3432
18651TIP3    H277369   2.473   6.643   0.802  0.1234  0.1710 -2.2045
18652TIP3   OH277370   3.998   2.885   4.673 -0.3851  0.2315  0.6058
18652TIP3    H177371   4.048   2.844   4.744  1.7585  2.1952  0.3503
18652TIP3    H277372   4.009   2.979   4.687 -0.2438  0.6822 -2.0619
18653TIP3   OH277373   5.481   1.591   4.634  0.2217 -0.1550  0.2106
18653TIP3    H177374   5.503   1.615   4.724 -0.4630 -0.2221  0.4027
18653TIP3    H277375   5.526   1.509   4.619 -2.5593 -2.1471  1.7799
18654TIP3   OH277376   1.791   5.370  12.096 -0.4153  0.4696 -0.1532
18654TIP3    H177377   1.753   5.352  12.182  0.4139  0.5646  0.2312
18654TIP3    H277378   1.835   5.289  12.071 -1.3752  0.1428 -0.8886
18655TIP3   OH277379   5.880   3.069  12.491  0.4116  0.1212  0.2894
18655TIP3    H177380   5.837   3.105  12.413  0.9698 -0.2569 -0.2120
18655TIP3    H277381   5.871   3.137  12.557 -0.1946  0.3979 -0.0629
18656TIP3   OH277382   6.748   3.526  15.191 -0.1925  0.2584  0.4027
18656TIP3    H177383   6.769   3.473  15.114 -1.4253  0.0823  0.1568
18656TIP3    H277384   6.785   3.477  15.264 -1.7882 -1.2996  0.2442
18657TIP3   OH277385   3.369   2.862   3.397 -0.0352 -0.9359  0.2538
18657TIP3    H177386   3.457   2.896   3.380 -0.0492 -0.5168  0.9602
18657TIP3    H277387   3.383   2.793   3.463 -0.2761 -0.5735  0.6908
18658TIP3   OH277388   4.100   6.738  15.802 -0.0241  0.4379  0.7830
18658TIP3    H177389   4.085   6.827  15.834 -0.5042  0.4605  0.5174
18658TIP3    H277390   4.174   6.746  15.742 -0.4413  0.7733  0.3009
18659TIP3   OH277391   6.640   0.807  11.941 -0.6131 -0.2463  0.2343
18659TIP3    H177392   6.617   0.807  12.034 -1.2637 -0.1604  0.0771
18659TIP3    H277393   6.721   0.757  11.936 -1.7872 -2.2965  0.5554
18660TIP3   OH277394   2.847   0.668  14.216 -0.0791  0.0388 -0.4528
18660TIP3    H177395   2.887   0.636  14.136  0.0523 -1.4915  0.1947
18660TIP3    H277396   2.773   0.609  14.232 -1.7248  1.9029 -0.8224
18661TIP3   OH277397   4.070   1.003  15.892  0.0278 -0.4421  0.6691
18661TIP3    H177398   4.149   0.950  15.901 -0.1527 -0.9771 -0.5678
18661TIP3    H277399   4.004   0.957  15.944 -0.0355 -1.2677 -0.1116
18662TIP3   OH277400   1.475   1.572  12.170  0.0508  0.8568 -0.1902
18662TIP3    H177401   1.486   1.513  12.095  0.0721  2.0534 -1.1610
18662TIP3    H277402   1.543   1.638  12.159 -0.0077  1.1049  0.8448
18663TIP3   OH277403   5.720   3.047   5.563 -0.4154 -0.1243  0.5134
18663TIP3    H177404   5.713   2.987   5.637  1.0379 -0.9633  0.0263
18663TIP3    H277405   5.674   3.003   5.492 -0.0026 -0.3278  0.3647
18664TIP3   OH277406   4.666   3.417   1.907  0.9304 -0.2647  0.3951
18664TIP3    H177407   4.598   3.362   1.945  1.6915 -1.3273  0.2889
18664TIP3    H277408   4.686   3.376   1.823 -0.8692  2.1556 -1.3766
18665TIP3   OH277409   6.766   1.527  14.837  0.1957  0.0416 -0.1447
18665TIP3    H177410   6.844   1.488  14.798  1.1529 -0.8635  2.4812
18665TIP3    H277411   6.785   1.621  14.838 -0.2280  0.2233 -2.4703
18666TIP3   OH277412   3.124   2.519   6.012 -0.1023 -0.0492 -0.5919
18666TIP3    H177413   3.106   2.601   5.966  2.9711  1.1724  0.0874
18666TIP3    H277414   3.094   2.535   6.102 -0.3042 -0.0011 -0.6677
18667TIP3   OH277415   4.983   0.818  15.499  0.0987 -0.6467 -0.3415
18667TIP3    H177416   4.987   0.912  15.516 -0.1026 -0.6731 -0.1483
18667TIP3    H277417   4.894   0.793  15.523  0.0828 -0.8462 -0.6045
18668TIP3   OH277418   4.543   6.047   0.665  0.4048 -0.3723 -0.5793
18668TIP3    H177419   4.508   6.062   0.577  0.8179 -3.4577 -1.3729
18668TIP3    H277420   4.625   6.000   0.651  0.3281 -1.2069  1.4572
18669TIP3   OH277421   1.058   0.327  15.049 -0.2054  0.5043  0.8883
18669TIP3    H177422   1.041   0.243  15.007  1.5763  0.8309 -0.6472
18669TIP3    H277423   1.042   0.392  14.980  0.0882  1.2731  1.5287
18670TIP3   OH277424   2.169   5.196  12.471  0.2684  0.4918 -0.3730
18670TIP3    H177425   2.113   5.120  12.490  1.4181  0.0493  1.5901
18670TIP3    H277426   2.108   5.265  12.444 -0.9774 -0.6147 -0.5042
18671TIP3   OH277427   3.406   6.700  10.913  0.5749 -0.3375 -0.5264
18671TIP3    H177428   3.348   6.747  10.852  0.8777  0.0988 -0.4825
18671TIP3    H277429   3.421   6.762  10.984  2.3195  0.1391 -1.2653
18672TIP3   OH277430   0.074   3.817  10.797 -0.1872 -0.5318 -0.4741
18672TIP3    H177431  -0.009   3.832  10.842  0.3925 -2.5135  1.4466
18672TIP3    H277432   0.108   3.905  10.778 -2.7946  0.3176 -1.5824
18673TIP3   OH277433   3.994   3.800  12.022 -0.1357 -0.2479  0.4646
18673TIP3    H177434   4.076   3.827  12.063  1.6761 -2.8056 -1.1671
18673TIP3    H277435   3.947   3.753  12.091  0.6940 -0.4692  0.8936
18674TIP3   OH277436   6.231   6.768  13.155  0.4277 -0.4558 -0.7800
18674TIP3    H177437   6.145   6.752  13.116  0.9640 -1.2513 -1.6734
18674TIP3    H277438   6.234   6.711  13.232 -0.7968  1.4211  0.7457
18675TIP3   OH277439   3.965   3.590  14.297 -0.2680  0.2534 -0.5500
18675TIP3    H177440   3.927   3.503  14.300 -1.3891  0.7223 -0.7902
18675TIP3    H277441   3.956   3.618  14.206  0.3093  0.5308 -0.5293
18676TIP3   OH277442   5.179   4.074  15.761  0.4373 -0.1502 -0.3367
18676TIP3    H177443   5.117   4.069  15.834  0.8168 -1.3111 -0.0759
18676TIP3    H277444   5.157   3.998  15.707  0.3922  0.5089 -1.2522
18677TIP3   OH277445   5.097   1.314   4.225  0.1508  0.0354  0.5465
18677TIP3    H177446   5.009   1.304   4.262 -0.4875  0.7244 -0.6859
18677TIP3    H277447   5.119   1.406   4.242  0.7993 -0.2285  1.1690
18678TIP3   OH277448   3.950   3.988  12.365  0.5166 -0.5509  0.0464
18678TIP3    H177449   3.927   3.896  12.353  0.9945 -0.7650  0.7485
18678TIP3    H277450   3.921   4.030  12.284  2.1938 -1.6624 -1.1950
18679TIP3   OH277451   0.306   5.151  15.322 -0.3672  0.0084  0.0011
18679TIP3    H177452   0.254   5.072  15.305  1.8038 -2.0814  2.3347
18679TIP3    H277453   0.248   5.206  15.375 -0.8151 -1.5519  1.1999
18680TIP3   OH277454   3.683   3.927   5.863 -0.0660  0.7043 -0.1504
18680TIP3    H177455   3.659   4.009   5.908 -1.3040 -0.3595  1.2299
18680TIP3    H277456   3.705   3.867   5.934  1.0117 -0.1311 -1.1621
18681TIP3   OH277457   1.761   6.520   0.009  0.2382  0.6223 -0.4628
18681TIP3    H177458   1.819   6.492  -0.062  0.4842  2.3629 -0.9889
18681TIP3    H277459   1.687   6.561  -0.035 -0.9333 -0.6563  0.2382
18682TIP3   OH277460   1.317   3.024   2.165 -0.6212 -0.6329  0.1002
18682TIP3    H177461   1.305   3.111   2.202  2.3166  0.7531 -1.8075
18682TIP3    H277462   1.405   2.999   2.192  0.0712 -1.2863 -2.4392
18683TIP3   OH277463   1.339   4.852  13.845 -0.0952 -0.0454 -0.1533
18683TIP3    H177464   1.270   4.790  13.822 -1.4739  0.6157  1.8568
18683TIP3    H277465   1.341   4.851  13.941  1.7282  1.0135 -0.1272
18684TIP3   OH277466   3.213   3.915  15.762  0.0449  0.5477  0.5867
18684TIP3    H177467   3.174   3.934  15.848 -1.9544 -0.3649 -0.0517
18684TIP3    H277468   3.137   3.905  15.703  1.3669  2.0730 -1.5137
18685TIP3   OH277469   2.954   3.330   2.860 -0.4712  0.0843  0.0440
18685TIP3    H177470   3.028   3.298   2.912  0.7035 -0.5430 -1.8929
18685TIP3    H277471   2.991   3.400   2.806 -1.7206  0.9633  0.2834
18686TIP3   OH277472   0.491   1.570  16.402  0.1591 -0.2919  0.2708
18686TIP3    H177473   0.470   1.600  16.313 -0.0486 -3.9612 -1.0733
18686TIP3    H277474   0.549   1.638  16.437 -1.6064  2.4860 -1.6840
18687TIP3   OH277475   4.938   2.534   0.763 -0.1664  0.1020 -0.2264
18687TIP3    H177476   4.893   2.492   0.837  0.2842  0.6049  0.3385
18687TIP3    H277477   4.874   2.596   0.729 -0.2630  0.0940 -0.0615
18688TIP3   OH277478   1.335   5.449  14.643  0.0807  0.5784  0.2758
18688TIP3    H177479   1.285   5.436  14.724 -0.0240  1.8117  0.4272
18688TIP3    H277480   1.402   5.514  14.666  2.3742 -1.6420  0.3247
18689TIP3   OH277481   1.282   1.433  14.931 -0.1875 -0.1304  0.2143
18689TIP3    H177482   1.239   1.418  14.847 -2.7513  1.1123  1.1804
18689TIP3    H277483   1.261   1.523  14.953 -2.5397 -1.3020  3.6381
18690TIP3   OH277484   3.028   4.998   2.052 -0.1044  0.3747  0.0818
18690TIP3    H177485   2.983   5.006   2.137 -0.5745 -2.0996  0.1649
18690TIP3    H277486   2.977   5.052   1.992 -0.8113  0.7813  1.0317
18691TIP3   OH277487   1.677   6.018  13.168 -0.0519  0.3869  0.1633
18691TIP3    H177488   1.660   5.937  13.215 -3.0077  0.5930 -0.3304
18691TIP3    H277489   1.590   6.050  13.143  1.1996  1.5864 -3.2439
18692TIP3   OH277490   2.591   6.774   0.134 -0.2575 -0.2996  0.1441
18692TIP3    H177491   2.549   6.826   0.202  0.8945  2.5634 -1.1779
18692TIP3    H277492   2.538   6.788   0.056  0.1615 -1.0211 -0.2800
18693TIP3   OH277493   6.591   4.340   0.553  0.2652  0.3643  0.0513
18693TIP3    H177494   6.683   4.364   0.567  0.4136 -0.0669 -0.1558
18693TIP3    H277495   6.560   4.403   0.488  0.8154 -0.3405 -0.9227
18694TIP3   OH277496   2.917   3.208  14.504  0.2961 -0.7219  0.6482
18694TIP3    H177497   2.865   3.242  14.432  2.8866  0.1952 -0.9196
18694TIP3    H277498   2.874   3.242  14.583 -0.9685  0.6604 -0.5863
18695TIP3   OH277499   1.413   1.373  12.345 -0.4093 -0.3084  0.3340
18695TIP3    H177500   1.447   1.456  12.313 -1.9159  0.5910  0.9283
18695TIP3    H277501   1.477   1.308  12.317  0.4091  0.9435 -0.8249
18696TIP3   OH277502   0.805   3.110  17.118  0.3809 -0.1273 -0.3105
18696TIP3    H177503   0.850   3.101  17.202  2.8451  0.0206 -1.5108
18696TIP3    H277504   0.775   3.022  17.098 -0.9765 -0.0172  1.0565
18697TIP3   OH277505   2.608   6.325   4.492  0.0967 -0.1404 -0.2425
18697TIP3    H177506   2.607   6.269   4.415  0.7850 -1.1194  0.4320
18697TIP3    H277507   2.694   6.309   4.532 -0.1464  0.5369  0.5912
18698TIP3   OH277508   5.084   2.017  13.250 -0.1850  0.6491  0.4240
18698TIP3    H177509   5.119   1.938  13.292  1.3230  0.0834 -1.7501
18698TIP3    H277510   5.155   2.081  13.256 -0.9115  1.4179  0.9919
18699TIP3   OH277511   0.846   3.685   0.193  0.1873  0.3908 -0.2644
18699TIP3    H177512   0.842   3.776   0.161 -0.9210  0.8082  1.0158
18699TIP3    H277513   0.758   3.651   0.181  0.9969 -1.1802 -2.4523
18700TIP3   OH277514   3.805   1.738   2.083  0.4161  0.1190 -0.1242
18700TIP3    H177515   3.740   1.803   2.058  1.6891  1.6433  0.3964
18700TIP3    H277516   3.756   1.676   2.138 -0.7853  0.6893 -0.5005
18701TIP3   OH277517   3.094   6.307   4.126  0.4014 -0.6383  0.1807
18701TIP3    H177518   3.023   6.325   4.188  0.3856  0.8528 -0.2203
18701TIP3    H277519   3.049   6.275   4.048 -0.3790  3.5938 -1.4132
18702TIP3   OH277520   1.849   1.238   5.981  0.1360  0.2938 -0.0417
18702TIP3    H177521   1.866   1.248   6.074  3.0257  1.2288 -0.5694
18702TIP3    H277522   1.921   1.183   5.949 -1.0082 -0.3452 -1.6840
18703TIP3   OH277523   0.164   3.988  11.380 -0.0526  1.1630 -0.3423
18703TIP3    H177524   0.124   4.036  11.452  0.2588  2.3091 -0.9083
18703TIP3    H277525   0.098   3.924  11.354 -0.0840  0.5731  1.0824
18704TIP3   OH277526   0.667   6.288  17.091 -0.4543  0.8885  0.2716
18704TIP3    H177527   0.583   6.253  17.060 -0.4891  2.2799 -1.3328
18704TIP3    H277528   0.731   6.220  17.071 -1.1606 -0.1529  1.4346
18705TIP3   OH277529   5.492   5.472   3.157 -0.2777  0.2116 -0.8330
18705TIP3    H177530   5.451   5.546   3.112 -1.1604  0.1532 -0.1368
18705TIP3    H277531   5.480   5.398   3.098 -1.0751  0.2232 -0.6977
18706TIP3   OH277532   1.992   4.868  14.095  0.2152 -0.1900 -0.4780
18706TIP3    H177533   2.048   4.797  14.126 -1.0474 -0.6433  0.8379
18706TIP3    H277534   1.991   4.931  14.167  0.0156  0.4013 -0.9887
18707TIP3   OH277535   5.183   0.046   1.754  0.1301 -0.2645  0.0072
18707TIP3    H177536   5.278   0.042   1.741  0.2856 -0.0498  0.9681
18707TIP3    H277537   5.146   0.002   1.678  1.1048 -3.3723  1.1955
18708TIP3   OH277538   2.230   1.366   1.277 -0.2789 -0.0867 -0.8713
18708TIP3    H177539   2.294   1.304   1.242  0.8685  1.0112 -0.8287
18708TIP3    H277540   2.182   1.397   1.200 -0.5781 -0.7273 -0.9422
18709TIP3   OH277541   6.773   5.734   3.951  0.1093 -0.4727 -0.0738
18709TIP3    H177542   6.729   5.816   3.975 -0.2565 -0.8611  0.6055
18709TIP3    H277543   6.803   5.698   4.034 -0.3460 -1.3817 -0.2876
18710TIP3   OH277544   1.220   5.359  14.864  0.5271  0.4944 -0.2346
18710TIP3    H177545   1.149   5.379  14.925  1.7977  0.0403  1.4683
18710TIP3    H277546   1.294   5.336  14.920  1.9562  0.6866 -1.9494
18711TIP3   OH277547   5.744   4.492  15.864  0.0589  0.2313  0.3950
18711TIP3    H177548   5.810   4.431  15.830  1.2566  0.9668  1.3059
18711TIP3    H277549   5.772   4.578  15.833 -0.9116  0.4703  0.1590
18712TIP3   OH277550   1.306   3.537   4.153  0.3123  0.4522  0.0121
18712TIP3    H177551   1.268   3.468   4.207  0.5810  0.1718 -0.1500
18712TIP3    H277552   1.256   3.533   4.071 -0.3930  1.1783  0.4067
18713TIP3   OH277553   3.103   4.142  13.086  0.1651  0.4192 -0.2184
18713TIP3    H177554   3.119   4.193  13.166 -1.2687  0.1314  0.2873
18713TIP3    H277555   3.181   4.157  13.033  0.0617  2.7000  0.1432
18714TIP3   OH277556   4.090   6.332   2.862 -0.0430 -0.2624 -0.6448
18714TIP3    H177557   4.135   6.328   2.946 -1.0434  0.6540 -0.0322
18714TIP3    H277558   4.152   6.375   2.803  0.4053 -0.2858 -0.1910
18715TIP3   OH277559   3.381   4.630   1.463 -0.9823  0.3233  0.5927
18715TIP3    H177560   3.304   4.676   1.498 -1.6965 -0.2599 -0.1706
18715TIP3    H277561   3.353   4.539   1.456 -0.1078  0.0446  0.5793
18716TIP3   OH277562   1.685   6.646   0.655 -0.2199  0.5706 -0.0511
18716TIP3    H177563   1.666   6.561   0.696  0.8914 -0.2294 -1.1207
18716TIP3    H277564   1.604   6.669   0.610 -1.0197  0.8222  1.4675
18717TIP3   OH277565   5.035   4.218  10.776 -0.1543 -0.1495  0.2652
18717TIP3    H177566   5.090   4.153  10.819 -1.3452  0.0209  2.1698
18717TIP3    H277567   5.025   4.288  10.842 -1.5053  0.4492 -0.5386
18718TIP3   OH277568   6.612   2.433  13.690  0.5436  0.2729  0.8832
18718TIP3    H177569   6.687   2.486  13.718  0.1431 -0.0731  2.7484
18718TIP3    H277570   6.537   2.472  13.734 -0.1304 -0.4152  0.3768
18719TIP3   OH277571   5.565   0.773   6.140  0.4910 -0.3347  0.5274
18719TIP3    H177572   5.478   0.791   6.174  0.7127  1.2917  0.2828
18719TIP3    H277573   5.594   0.696   6.189 -1.8243 -2.1638 -0.7430
18720TIP3   OH277574   1.036   6.062   4.028 -0.0039 -0.0534  0.0363
18720TIP3    H177575   0.952   6.084   3.987  0.2461  1.9092  0.4997
18720TIP3    H277576   1.099   6.065   3.956 -0.0507  0.2745  0.0095
18721TIP3   OH277577   1.385   3.648  12.266 -0.1187  0.1857  0.0865
18721TIP3    H177578   1.447   3.633  12.337  0.2180  0.0530 -0.2290
18721TIP3    H277579   1.384   3.743  12.254 -1.0279  0.3100  1.0094
18722TIP3   OH277580   4.390   3.782  15.596  0.0155  0.0999  0.4306
18722TIP3    H177581   4.468   3.837  15.600  0.0993  0.1776 -1.4130
18722TIP3    H277582   4.318   3.843  15.579 -0.2988 -0.0859  1.0668
18723TIP3   OH277583   1.794   0.093  13.273 -0.1926  0.4206  0.2247
18723TIP3    H177584   1.726   0.143  13.227  0.9867  0.5122 -1.5436
18723TIP3    H277585   1.790   0.005  13.235  0.9806  0.5715 -0.3207
18724TIP3   OH277586   0.715   5.838   3.906  0.1897 -0.0617 -0.0507
18724TIP3    H177587   0.660   5.777   3.856  2.7579 -0.8774 -2.0962
18724TIP3    H277588   0.793   5.787   3.928  0.8712  1.4931  1.3022
18725TIP3   OH277589   2.402   3.841  13.901 -0.3795  0.4265  0.3120
18725TIP3    H177590   2.356   3.925  13.895 -2.3974 -0.4476  2.0067
18725TIP3    H277591   2.373   3.792  13.824 -3.6763 -0.6329  2.0241
18726TIP3   OH277592   2.553   3.714   1.577 -0.3305 -0.2090 -0.4425
18726TIP3    H177593   2.478   3.748   1.527  1.9044  0.6258 -3.5679
18726TIP3    H277594   2.568   3.627   1.542 -0.2873 -0.6837  0.7191
18727TIP3   OH277595   3.900   1.407  11.481  0.1199  0.1606 -0.5003
18727TIP3    H177596   3.877   1.444  11.567  0.2827  0.3193 -0.5235
18727TIP3    H277597   3.924   1.483  11.428 -0.5697  0.1222 -0.8780
18728TIP3   OH277598   2.005   6.315  15.002  0.0391 -0.5300 -0.3864
18728TIP3    H177599   1.938   6.262  14.959 -0.0089  1.1980 -2.5805
18728TIP3    H277600   1.993   6.403  14.967 -0.3099  1.2045  3.5578
18729TIP3   OH277601   2.678   5.372  13.028  0.1545 -0.1885 -0.3498
18729TIP3    H177602   2.710   5.452  12.987  2.2929 -1.0514 -0.4974
18729TIP3    H277603   2.627   5.402  13.103  0.2245  1.3239 -0.8862
18730TIP3   OH277604   1.265   3.993   5.464 -0.3765  0.2155 -0.3752
18730TIP3    H177605   1.204   3.954   5.527 -0.3002  0.8604  0.1025
18730TIP3    H277606   1.345   4.009   5.514 -0.7581  1.9656 -0.2733
18731TIP3   OH277607   1.356   2.847  12.605  0.1740 -0.1816 -0.2348
18731TIP3    H177608   1.346   2.884  12.517 -2.4823  2.7831  1.1042
18731TIP3    H277609   1.380   2.922  12.659 -0.1527 -1.5345  1.8818
18732TIP3   OH277610   5.502   3.454  15.232 -0.1610 -0.5099  0.2379
18732TIP3    H177611   5.413   3.489  15.234 -0.5126 -1.3219 -0.4345
18732TIP3    H277612   5.502   3.385  15.298  0.1186 -0.1957  0.5724
18733TIP3   OH277613   3.667   3.906  15.008  0.4320 -0.2524  0.2957
18733TIP3    H177614   3.680   3.994  15.044  0.1495  0.2015 -0.6827
18733TIP3    H277615   3.585   3.876  15.048 -0.3980  0.6379 -0.6661
18734TIP3   OH277616   6.698   0.749  16.211 -0.4151  0.1966 -0.4089
18734TIP3    H177617   6.742   0.778  16.291  1.9069 -2.3254 -0.6291
18734TIP3    H277618   6.613   0.717  16.241  0.8512 -1.7855  1.3357
18735TIP3   OH277619   6.108   5.693  15.397  0.3797  0.4196  0.3060
18735TIP3    H177620   6.084   5.711  15.488  3.2332  1.3721  0.9433
18735TIP3    H277621   6.130   5.600  15.397 -2.7365 -0.4491 -0.2625
18736TIP3   OH277622   3.701   5.326   4.145  0.7236  0.1805  0.0999
18736TIP3    H177623   3.659   5.300   4.226 -1.0971 -0.2940 -0.9460
18736TIP3    H277624   3.695   5.249   4.088  0.6520  0.9472 -0.9785
18737TIP3   OH277625   3.231   5.565  12.304  0.3879  0.3213  0.4122
18737TIP3    H177626   3.310   5.557  12.357  3.2538 -0.1103 -3.5283
18737TIP3    H277627   3.204   5.474  12.287  0.4048  0.4083 -0.0960
18738TIP3   OH277628   4.606   5.975  11.449  0.1697  0.1285  0.8711
18738TIP3    H177629   4.612   6.070  11.460  0.7169  0.2202 -0.1224
18738TIP3    H277630   4.516   5.959  11.420  0.2931  0.4191  0.3295
18739TIP3   OH277631   0.657   4.440  15.983 -0.3984  0.1413 -0.3481
18739TIP3    H177632   0.611   4.411  16.062 -0.0679 -1.3716 -0.6752
18739TIP3    H277633   0.749   4.446  16.009 -0.4586  0.9703 -0.2861
18740TIP3   OH277634   6.040   0.936   3.550 -0.6780  0.2954 -0.1130
18740TIP3    H177635   6.049   0.895   3.636 -2.0558 -0.6380 -0.3788
18740TIP3    H277636   6.019   0.863   3.491  1.4693  0.7234 -1.5110
18741TIP3   OH277637   1.664   3.440  16.941 -0.2250 -0.5672 -0.2625
18741TIP3    H177638   1.576   3.404  16.951 -0.3627 -0.6367 -1.6145
18741TIP3    H277639   1.677   3.492  17.020 -0.8317 -1.8808  0.7373
18742TIP3   OH277640   3.559   2.962  16.027 -0.8610 -0.0878 -0.3592
18742TIP3    H177641   3.470   2.953  15.992 -0.7864 -0.5388 -0.4395
18742TIP3    H277642   3.614   2.911  15.967 -0.9355 -2.1841  1.2357
18743TIP3   OH277643   4.343   2.304  17.183 -0.6266  0.1220  0.0058
18743TIP3    H177644   4.330   2.394  17.155 -0.5442 -0.4481 -2.0406
18743TIP3    H277645   4.398   2.265  17.115  2.6925 -0.4905  2.7455
18744TIP3   OH277646   5.677   5.210   3.107  0.1610 -0.2455  0.7597
18744TIP3    H177647   5.688   5.248   3.020  2.4773 -1.2185  0.5524
18744TIP3    H277648   5.633   5.126   3.091 -0.0714 -0.0938  0.6061
18745TIP3   OH277649   1.099   6.589  13.524 -0.6509 -0.0092  0.3645
18745TIP3    H177650   1.136   6.554  13.443  2.5336  0.7841  1.3441
18745TIP3    H277651   1.111   6.684  13.517 -0.1069  0.0489  1.8366
18746TIP3   OH277652   1.852   1.673   3.840  0.0153  0.1071  0.1574
18746TIP3    H177653   1.876   1.609   3.773 -1.8797 -1.9430  1.2971
18746TIP3    H277654   1.784   1.726   3.799  1.7112  1.6428 -0.8518
18747TIP3   OH277655   1.666   2.148   4.555 -0.4723 -0.6909  0.0434
18747TIP3    H177656   1.678   2.161   4.461 -0.7535 -0.1693  0.0749
18747TIP3    H277657   1.744   2.186   4.594 -0.5813 -0.4670  0.0464
18748TIP3   OH277658   0.502   2.286  14.473  0.7807  0.3604 -0.2639
18748TIP3    H177659   0.543   2.373  14.482  1.8693 -0.2401  0.8486
18748TIP3    H277660   0.537   2.252  14.391  0.8937  0.6880 -0.3561
18749TIP3   OH277661   6.557   2.296   3.442 -0.7791  0.2239 -0.2827
18749TIP3    H177662   6.560   2.389   3.419 -1.4120  0.4817  0.6171
18749TIP3    H277663   6.626   2.286   3.508 -0.0419 -0.1670 -1.1000
18750TIP3   OH277664   4.384   2.538  16.993  0.3824  0.3244  0.3322
18750TIP3    H177665   4.460   2.555  17.048 -0.9936 -0.0003  2.4910
18750TIP3    H277666   4.369   2.620  16.946  0.8235  1.1286  1.5385
18751TIP3   OH277667   5.686   1.297  11.039 -0.4472 -0.3015 -0.6181
18751TIP3    H177668   5.684   1.221  10.982  0.4579 -1.3946  0.7327
18751TIP3    H277669   5.596   1.309  11.068 -0.1178 -3.3416  2.2007
18752TIP3   OH277670   4.133   6.643   4.808 -0.4845 -0.0634 -0.4142
18752TIP3    H177671   4.049   6.629   4.852 -1.2126  0.7155 -1.5077
18752TIP3    H277672   4.165   6.725   4.845 -0.8558  0.3315 -0.9572
18753TIP3   OH277673   5.170   2.529   5.627  0.0222  0.1306 -0.5267
18753TIP3    H177674   5.230   2.484   5.568  2.2519  2.2531 -0.0668
18753TIP3    H277675   5.189   2.492   5.714  0.3389  0.4365 -0.4599
18754TIP3   OH277676   5.267   6.369   4.153  0.6003  0.1434 -0.4885
18754TIP3    H177677   5.192   6.341   4.205  1.1013  2.7641  1.9002
18754TIP3    H277678   5.328   6.296   4.159 -1.0781 -1.3819 -1.1231
18755TIP3   OH277679   3.961   4.023  14.573 -0.2414  0.3090  0.0219
18755TIP3    H177680   3.991   4.030  14.664  0.1570 -1.3516  0.0514
18755TIP3    H277681   3.881   3.971  14.579 -1.2949  1.8142 -0.4137
18756TIP3   OH277682   5.199   2.680   0.904 -0.4279  0.3453  0.2356
18756TIP3    H177683   5.238   2.743   0.843 -2.5819  0.1765 -1.4073
18756TIP3    H277684   5.134   2.633   0.853  0.0394 -2.2171  1.8137
18757TIP3   OH277685   0.020   6.729   2.440  0.1876  0.3998 -0.6493
18757TIP3    H177686   0.115   6.743   2.439 -0.1644  3.4633 -0.9546
18757TIP3    H277687  -0.004   6.721   2.348  0.0926  0.0707 -0.5954
18758TIP3   OH277688   2.511   4.469  12.941 -0.6449  0.5540 -0.1888
18758TIP3    H177689   2.474   4.413  12.873  0.2875  0.1870 -0.4153
18758TIP3    H277690   2.526   4.411  13.015 -2.4835  1.1231  0.6956
18759TIP3   OH277691   5.561   2.093   0.427  0.4529  0.1161  0.1248
18759TIP3    H177692   5.620   2.168   0.440  0.2049 -0.0306  2.4334
18759TIP3    H277693   5.533   2.101   0.335  2.3439  1.4254 -0.4146
18760TIP3   OH277694   3.874   6.137  17.149 -0.2739 -0.4816  0.5604
18760TIP3    H177695   3.864   6.188  17.069 -0.7683 -0.2127  0.7885
18760TIP3    H277696   3.864   6.046  17.122  1.5709 -0.5483 -0.0173
18761TIP3   OH277697   3.953   4.465   0.321 -0.4959  0.1925 -0.2818
18761TIP3    H177698   3.942   4.412   0.243  1.7864 -0.6861 -0.0629
18761TIP3    H277699   3.958   4.402   0.393  1.1059  0.7341  0.1181
18762TIP3   OH277700   5.434   5.293  12.644  0.2542 -0.6697 -0.0234
18762TIP3    H177701   5.492   5.236  12.594  0.4881 -1.2458  0.8696
18762TIP3    H277702   5.481   5.376  12.649 -0.9493  0.3327 -3.0319
18763TIP3   OH277703   3.399   3.163   5.469 -0.2974 -0.0888  0.1104
18763TIP3    H177704   3.401   3.248   5.426  2.2503  0.1559  0.5873
18763TIP3    H277705   3.444   3.176   5.552  0.5168 -1.9508  0.0271
18764TIP3   OH277706   2.662   5.804  16.492 -0.5114 -0.3676 -0.1509
18764TIP3    H177707   2.591   5.740  16.495  0.6287 -1.6526  0.4522
18764TIP3    H277708   2.683   5.821  16.584 -1.8986  2.2167 -0.2128
18765TIP3   OH277709   3.315   4.383  10.513 -0.0059 -0.0421  0.5311
18765TIP3    H177710   3.342   4.380  10.605 -0.3401 -3.1925  0.6532
18765TIP3    H277711   3.235   4.329  10.510 -1.6058  2.2288 -1.2042
18766TIP3   OH277712   6.361   4.292  16.087  1.3540  0.6922 -0.0899
18766TIP3    H177713   6.361   4.313  16.181 -1.6066  0.3138  0.0917
18766TIP3    H277714   6.282   4.238  16.075  2.7305 -0.9624 -2.4733
18767TIP3   OH277715   3.937   4.266  13.847  0.4428 -0.2458 -0.6975
18767TIP3    H177716   3.879   4.308  13.910  0.3113 -1.4803  0.0344
18767TIP3    H277717   3.887   4.266  13.765  0.4666  1.0243 -0.7342
18768TIP3   OH277718   2.835   6.521   4.589 -0.4092 -0.1421 -0.0472
18768TIP3    H177719   2.750   6.563   4.579 -0.5477 -0.1004  1.0903
18768TIP3    H277720   2.840   6.500   4.683  1.9327  2.3404  0.5492
18769TIP3   OH277721   3.779   3.596  14.902  0.3285 -0.0665  0.1218
18769TIP3    H177722   3.782   3.503  14.880  0.2807  0.2518 -1.3593
18769TIP3    H277723   3.695   3.626  14.868 -0.9058 -0.0094  3.0015
18770TIP3   OH277724   4.437   6.238  15.685  0.7584  0.3128 -0.3299
18770TIP3    H177725   4.525   6.224  15.721 -0.3908 -3.4487  1.4582
18770TIP3    H277726   4.383   6.170  15.725 -2.5261  0.9952 -3.1214
18771TIP3   OH277727   1.621   3.853  14.785 -0.4714 -0.7179  0.3741
18771TIP3    H177728   1.682   3.845  14.859  0.2615  0.1767 -0.1074
18771TIP3    H277729   1.584   3.941  14.794 -1.2848 -1.0518  0.3458
18772TIP3   OH277730   5.946   0.904   2.000 -0.2969 -0.0461  0.1353
18772TIP3    H177731   5.927   0.864   2.085 -0.1633  0.1684  0.2666
18772TIP3    H277732   5.957   0.830   1.940  1.3502 -0.2752  0.6683
18773TIP3   OH277733   5.177   4.649   3.017  0.0580 -0.5414 -0.2048
18773TIP3    H177734   5.084   4.668   3.019 -0.5298 -2.8679 -1.3755
18773TIP3    H277735   5.202   4.640   3.109 -1.4058 -2.0195  0.0986
18774TIP3   OH277736   6.139   0.348  15.877  0.1912 -0.3083  0.2633
18774TIP3    H177737   6.195   0.422  15.900 -0.0091 -0.0739  0.0098
18774TIP3    H277738   6.071   0.386  15.821 -0.7099 -0.4349  1.2416
18775TIP3   OH277739   5.007   4.499  13.327  0.0041  0.0210  0.2312
18775TIP3    H177740   5.094   4.472  13.356 -0.1367  0.7098  1.3662
18775TIP3    H277741   5.017   4.591  13.303 -0.3602  0.0337  0.1201
18776TIP3   OH277742   5.832   3.451  17.104 -0.1124 -0.1250  0.0852
18776TIP3    H177743   5.845   3.486  17.016 -2.1314  2.5341  0.6788
18776TIP3    H277744   5.917   3.460  17.147  0.7894 -1.0820 -1.4373
18777TIP3   OH277745   1.601   5.018  17.172  0.0816  0.1835  0.1910
18777TIP3    H177746   1.697   5.023  17.172  0.0981  0.1868  1.3357
18777TIP3    H277747   1.575   5.061  17.254 -0.9086  0.3756 -0.2120
18778TIP3   OH277748   1.006   2.259   2.799 -0.3219 -0.3037  0.2694
18778TIP3    H177749   1.086   2.246   2.849  0.0361  1.0454  0.0943
18778TIP3    H277750   0.947   2.305   2.859  0.2987  1.8052 -0.6141
18779TIP3   OH277751   5.476   2.607  14.227  0.3897 -0.0322  0.2821
18779TIP3    H177752   5.436   2.691  14.249  1.2129  0.7155 -0.9273
18779TIP3    H277753   5.422   2.574  14.155  1.0353  0.2622 -0.3475
18780TIP3   OH277754   0.985   6.648  12.784 -0.0747  0.3927 -0.0086
18780TIP3    H177755   1.048   6.719  12.769 -0.1075 -0.0527 -2.7889
18780TIP3    H277756   0.923   6.684  12.847  0.8352  2.2380 -0.0973
18781TIP3   OH277757   0.021   1.137   3.977 -0.0834 -0.2722 -0.3382
18781TIP3    H177758   0.000   1.230   3.975  0.7455 -0.0905 -1.6188
18781TIP3    H277759   0.112   1.132   3.945  1.2983 -1.1674  3.1975
18782TIP3   OH277760   6.293   0.661  14.157  0.4307  0.4458  0.0859
18782TIP3    H177761   6.335   0.576  14.139  0.7681 -0.3122  3.7642
18782TIP3    H277762   6.200   0.642  14.155  0.4959  0.0357  0.5528
18783TIP3   OH277763   6.567   4.325   6.854 -0.1021  0.3657  0.2387
18783TIP3    H177764   6.605   4.319   6.766 -1.3352 -0.1737 -0.2698
18783TIP3    H277765   6.567   4.419   6.873  0.5253  0.4597 -0.1668
18784TIP3   OH277766   4.055   4.312  15.932  0.0381  0.0022  0.6043
18784TIP3    H177767   3.990   4.249  15.902 -0.6464  0.2660  1.4963
18784TIP3    H277768   4.124   4.309  15.865  0.5578 -2.4831  1.1638
18785TIP3   OH277769   3.668   0.386  13.000 -0.2841  0.5195 -0.0395
18785TIP3    H177770   3.725   0.378  13.077 -1.3158 -0.7580  0.6257
18785TIP3    H277771   3.583   0.353  13.029 -0.8742  0.6172 -1.5613
18786TIP3   OH277772   4.047   1.435   3.384  0.3231  0.1170  0.2435
18786TIP3    H177773   4.086   1.462   3.301 -1.4803  1.6199 -0.2031
18786TIP3    H277774   3.960   1.402   3.360 -0.0304  0.0963  1.4825
18787TIP3   OH277775   1.231   6.715  12.295 -0.3241  0.3198  0.3338
18787TIP3    H177776   1.193   6.700  12.209 -0.9708 -1.9116  0.9446
18787TIP3    H277777   1.267   6.630  12.321  1.7201  1.4418  1.4126
18788TIP3   OH277778   0.033   6.467   3.323  0.1391  0.2845  0.0380
18788TIP3    H177779  -0.032   6.397   3.312  2.3018 -1.8345  0.0588
18788TIP3    H277780   0.019   6.523   3.247 -1.2986 -0.4454 -0.2824
18789TIP3   OH277781   0.588   5.579   4.123  0.1261  0.3244  0.2658
18789TIP3    H177782   0.642   5.656   4.140 -0.4112  0.7335  0.1758
18789TIP3    H277783   0.645   5.520   4.074  0.0164  1.4202 -1.2774
18790TIP3   OH277784   6.081   0.023  11.813 -0.5388 -0.5832 -0.9020
18790TIP3    H177785   6.121   0.105  11.842  2.7542 -1.4924 -2.4587
18790TIP3    H277786   5.992   0.027  11.848  0.2838  2.4311  1.3078
18791TIP3   OH277787   1.261   0.137  17.195 -0.0804 -0.5149 -0.0663
18791TIP3    H177788   1.302   0.189  17.265  1.0840  1.6725 -2.2132
18791TIP3    H277789   1.221   0.063  17.240 -1.3023  1.8888  3.1991
18792TIP3   OH277790   5.086   6.071   4.894 -0.2891  0.5101 -0.4964
18792TIP3    H177791   5.042   6.139   4.842 -0.2399 -1.0777 -2.7896
18792TIP3    H277792   5.033   6.064   4.973 -1.4726  1.8106 -1.1156
18793TIP3   OH277793   5.918   0.743  14.180 -0.1261 -0.0703  0.6222
18793TIP3    H177794   5.897   0.834  14.159 -1.7953  0.0457  2.5424
18793TIP3    H277795   5.941   0.704  14.095 -0.1123  1.9252 -0.3598
18794TIP3   OH277796   1.655   0.406  11.489 -0.1962 -0.1446  0.4535
18794TIP3    H177797   1.736   0.431  11.446 -0.5839 -0.2286 -0.3445
18794TIP3    H277798   1.638   0.317  11.457 -0.8359  0.0431  0.2726
18795TIP3   OH277799   3.987   2.956   0.556 -0.5013 -0.3422  0.2568
18795TIP3    H177800   3.970   2.960   0.461 -0.4909 -0.1934  0.2615
18795TIP3    H277801   4.020   2.867   0.570 -0.8635 -0.4940  0.1792
18796TIP3   OH277802   1.866   6.743   1.011  0.2284 -0.6053 -0.1369
18796TIP3    H177803   1.838   6.747   1.103  0.6286 -0.6135 -0.0088
18796TIP3    H277804   1.955   6.781   1.012 -0.0496  0.0832 -0.6419
18797TIP3   OH277805   6.705   0.619   2.698  0.3356 -0.9577  0.1041
18797TIP3    H177806   6.626   0.585   2.740 -0.9979 -0.7535 -2.0996
18797TIP3    H277807   6.674   0.656   2.616  2.5432  0.5268 -0.1266
18798TIP3   OH277808   1.506   3.261  10.755 -0.4702  0.2365 -0.3085
18798TIP3    H177809   1.554   3.343  10.761 -2.0371  1.1397  0.8944
18798TIP3    H277810   1.520   3.218  10.839 -1.5005  0.4005 -0.0302
18799TIP3   OH277811   4.715   4.182   0.638  1.0161  0.4186 -0.0593
18799TIP3    H177812   4.779   4.250   0.619  0.7969  0.8072  0.5755
18799TIP3    H277813   4.630   4.225   0.631  0.9163  0.6279  1.8402
18800TIP3   OH277814   6.054   4.383  16.988 -0.1814 -0.1900  0.0921
18800TIP3    H177815   6.057   4.288  16.979 -0.2298 -0.1458 -0.4024
18800TIP3    H277816   6.003   4.413  16.913 -3.2240 -0.0306  2.0755
18801TIP3   OH277817   5.266   5.866   4.323  0.0242  0.0689 -0.4191
18801TIP3    H177818   5.276   5.779   4.361  1.8340  0.8026  0.9305
18801TIP3    H277819   5.175   5.868   4.291 -0.3567 -1.9478  0.3922
18802TIP3   OH277820   0.894   1.123   1.575 -0.1427  0.1767 -0.1408
18802TIP3    H177821   0.933   1.084   1.497 -2.0263 -0.7974 -0.6322
18802TIP3    H277822   0.957   1.190   1.601  0.8993  0.0175 -2.0428
18803TIP3   OH277823   6.451   5.469  11.504  0.5790  0.1531  0.1711
18803TIP3    H177824   6.366   5.466  11.548 -2.9187 -0.1815 -5.4753
18803TIP3    H277825   6.471   5.378  11.484  0.9692  0.3940 -0.5756
18804TIP3   OH277826   2.328   2.278  13.920  0.4978  0.1152 -0.2689
18804TIP3    H177827   2.379   2.320  13.989 -2.3609 -0.4690  2.4519
18804TIP3    H277828   2.330   2.185  13.942 -0.5485 -0.0804 -0.9321
18805TIP3   OH277829   4.469   0.904   0.415 -0.1291 -0.2303  0.3532
18805TIP3    H177830   4.440   0.943   0.498 -0.3445 -0.3707  0.3438
18805TIP3    H277831   4.410   0.940   0.349 -0.7727 -1.1012  0.4403
18806TIP3   OH277832   2.676   6.755  16.331  0.1226 -0.8587  0.0699
18806TIP3    H177833   2.603   6.798  16.286 -0.5864 -1.5664  0.5035
18806TIP3    H277834   2.666   6.782  16.423  1.4276  0.4045 -0.1342
18807TIP3   OH277835   6.005   4.999  11.879 -0.1231 -1.0869 -0.0737
18807TIP3    H177836   5.986   5.080  11.831  0.6967 -1.6513 -1.3901
18807TIP3    H277837   5.922   4.978  11.923 -0.3991  0.3603  0.1602
18808TIP3   OH277838   5.478   0.409   4.987  0.2242  0.4341 -0.1401
18808TIP3    H177839   5.428   0.404   4.906 -0.5317 -0.8701  0.3679
18808TIP3    H277840   5.561   0.450   4.962  0.2143 -0.4190 -1.6822
18809TIP3   OH277841   6.671   1.797  11.946  0.1738 -0.2563 -0.3429
18809TIP3    H177842   6.727   1.859  11.900  2.8916 -0.4729  2.3809
18809TIP3    H277843   6.657   1.837  12.032  0.0057 -2.3090  0.6440
18810TIP3   OH277844   5.478   1.831   0.373 -0.3902  0.2230 -0.1691
18810TIP3    H177845   5.473   1.916   0.416  1.4155 -1.3100  3.4650
18810TIP3    H277846   5.572   1.813   0.365 -0.6956 -1.9375  0.3697
18811TIP3   OH277847   1.174   3.772   5.979 -0.7721 -0.6607  0.5798
18811TIP3    H177848   1.183   3.717   6.057 -1.9055 -2.4200 -0.4557
18811TIP3    H277849   1.085   3.757   5.949 -0.6325  0.6543 -0.5858
18812TIP3   OH277850   3.087   3.225  12.765 -0.0020  0.3329  0.0246
18812TIP3    H177851   3.162   3.171  12.789 -1.0961 -1.9729 -1.4428
18812TIP3    H277852   3.113   3.266  12.682 -0.3518 -0.4832 -0.4956
18813TIP3   OH277853   0.731   6.206   0.152  0.2256 -0.0455  0.4871
18813TIP3    H177854   0.687   6.237   0.072 -0.6254 -0.8459  0.6262
18813TIP3    H277855   0.819   6.182   0.123  0.2874  0.7087  0.0171
18814TIP3   OH277856   0.456   4.430  14.097 -0.7213 -0.2442 -0.3951
18814TIP3    H177857   0.385   4.369  14.079  0.6552 -2.0075 -0.2095
18814TIP3    H277858   0.417   4.517  14.089 -2.7168 -1.1399 -0.8912
18815TIP3   OH277859   1.804   3.242   1.589 -0.4390  0.0283 -0.5069
18815TIP3    H177860   1.842   3.162   1.625  0.5386  0.8414  0.3274
18815TIP3    H277861   1.710   3.223   1.583 -0.8836  0.0724  3.3960
18816TIP3   OH277862   5.156   5.344   3.747  0.3197 -0.5283 -0.0839
18816TIP3    H177863   5.219   5.407   3.712 -0.1290  1.4282  2.3502
18816TIP3    H277864   5.204   5.297   3.815 -0.5442  0.2358  1.0671
18817TIP3   OH277865   2.642   4.768   1.859  0.5860 -0.2518  0.2400
18817TIP3    H177866   2.549   4.790   1.865  0.1351 -1.7046 -0.8832
18817TIP3    H277867   2.658   4.712   1.935  0.6377  0.2815  0.6267
18818TIP3   OH277868   6.478   3.532  10.811 -0.0461  0.2182  0.3101
18818TIP3    H177869   6.426   3.583  10.749 -0.0665  0.2811  0.3775
18818TIP3    H277870   6.415   3.471  10.851 -0.0363  0.1883  0.2795
18819TIP3   OH277871   5.349   3.334   0.591 -0.0920  0.1256 -0.0935
18819TIP3    H177872   5.353   3.321   0.686  0.2509  1.0391  0.0224
18819TIP3    H277873   5.335   3.428   0.580  0.9722  0.2001 -0.9574
18820TIP3   OH277874   5.491   6.387   1.535  0.0388 -0.1677 -0.3533
18820TIP3    H177875   5.444   6.454   1.486  2.4487  1.6484 -0.4036
18820TIP3    H277876   5.569   6.369   1.482  0.2827 -1.7977  0.4967
18821TIP3   OH277877   3.062   6.519   5.295  0.7879  0.0962  0.2511
18821TIP3    H177878   2.988   6.483   5.343  0.6688 -0.5258 -0.3721
18821TIP3    H277879   3.094   6.590   5.350 -0.2172  0.3255  0.5618
18822TIP3   OH277880   5.350   2.681  11.115 -0.1185  0.0538 -0.0854
18822TIP3    H177881   5.284   2.625  11.075  0.1985 -0.7626  0.5101
18822TIP3    H277882   5.424   2.622  11.133  1.2205  1.1327 -1.7184
18823TIP3   OH277883   6.479   3.079  14.084 -0.0062  0.2960 -0.4536
18823TIP3    H177884   6.496   3.001  14.137 -0.0538  0.9234  0.5300
18823TIP3    H277885   6.561   3.096  14.038  0.4176  0.3816  0.3130
18824TIP3   OH277886   3.220   3.356   4.149 -0.2531 -0.1376  0.6600
18824TIP3    H177887   3.163   3.402   4.087  0.1823  2.2382  1.8885
18824TIP3    H277888   3.159   3.310   4.207 -0.8073  0.1215  0.2935
18825TIP3   OH277889   5.085   1.715  17.096 -0.3593  0.1674  0.0987
18825TIP3    H177890   4.998   1.715  17.057  0.4808  0.0260 -1.8993
18825TIP3    H277891   5.145   1.721  17.022  1.3743 -0.5971  1.3572
18826TIP3   OH277892   4.197   4.208  15.334 -0.1590 -0.4272 -0.0224
18826TIP3    H177893   4.161   4.269  15.397  1.7586 -1.3179  2.0698
18826TIP3    H277894   4.268   4.256  15.291 -0.6802 -0.2082 -0.6507
18827TIP3   OH277895   5.591   5.157   2.240 -0.3952  0.5412  0.1485
18827TIP3    H177896   5.498   5.164   2.219  0.0472  0.3823 -2.1290
18827TIP3    H277897   5.632   5.227   2.190  1.2035 -2.3571 -3.0083
18828TIP3   OH277898   5.118   4.076  12.600 -0.2587  0.5547  0.4680
18828TIP3    H177899   5.104   4.032  12.684  2.8235  0.4426  1.0392
18828TIP3    H277900   5.117   4.169  12.622  0.3391  0.5309  0.6192
18829TIP3   OH277901   4.227   3.324  13.059  0.3499  0.1112  0.0873
18829TIP3    H177902   4.300   3.385  13.072  0.5076  0.3093 -1.5051
18829TIP3    H277903   4.185   3.354  12.978  0.4722 -1.9041 -0.7936
18830TIP3   OH277904   4.232   1.519   2.419  0.3892  0.6100  0.5916
18830TIP3    H177905   4.299   1.453   2.438 -1.0429 -1.1723 -0.2910
18830TIP3    H277906   4.149   1.471   2.422 -0.6490  2.1973 -0.8514
18831TIP3   OH277907   4.131   2.198  15.987  0.2999 -0.0798 -0.5571
18831TIP3    H177908   4.048   2.212  16.033  1.0732  0.5454  0.7131
18831TIP3    H277909   4.107   2.197  15.894 -1.0594  0.6084 -0.2450
18832TIP3   OH277910   0.627   1.741   1.036 -0.2815 -1.3814  0.5366
18832TIP3    H177911   0.639   1.688   1.115 -0.6261 -1.5715  0.4646
18832TIP3    H277912   0.715   1.755   1.002  0.0114 -0.0956  1.7335
18833TIP3   OH277913   5.230   1.757  14.913 -0.2888  0.3794  0.3217
18833TIP3    H177914   5.276   1.679  14.946 -0.4021  0.5121  0.8020
18833TIP3    H277915   5.199   1.801  14.992  0.9643  1.6476  0.1426
18834TIP3   OH277916   0.909   5.691   6.066  0.0911 -0.0161  0.5603
18834TIP3    H177917   0.824   5.694   6.111 -0.6364  1.5334 -0.7743
18834TIP3    H277918   0.942   5.781   6.073  2.1721 -0.8354  1.9662
18835TIP3   OH277919   5.800   3.038   3.950  0.4356 -0.2115 -0.5197
18835TIP3    H177920   5.746   3.107   3.989 -1.6047 -0.9714 -1.8186
18835TIP3    H277921   5.888   3.075   3.945  0.0552  1.1414  1.5686
18836TIP3   OH277922   4.981   2.435   4.084  0.4488 -0.8429  0.5391
18836TIP3    H177923   4.898   2.405   4.047  1.0526 -0.7726 -0.9604
18836TIP3    H277924   5.008   2.507   4.026  2.6355 -2.3053 -0.3865
18837TIP3   OH277925   6.591   0.395  16.449  0.4808  0.3319 -0.0028
18837TIP3    H177926   6.620   0.387  16.358  1.5323  1.5354  0.1959
18837TIP3    H277927   6.516   0.455  16.445  0.9857  0.9781 -0.0148
18838TIP3   OH277928   6.469   0.265  11.156 -0.3527  0.2405 -0.0018
18838TIP3    H177929   6.423   0.341  11.192 -0.3279 -0.1998  0.9893
18838TIP3    H277930   6.527   0.302  11.089  0.8166  1.3036  1.5364
18839TIP3   OH277931   0.873   5.401  13.875  0.7989  0.1750  0.1855
18839TIP3    H177932   0.904   5.480  13.832  0.8516 -0.3680 -0.7947
18839TIP3    H277933   0.948   5.369  13.926  0.2542  1.7224  2.0734
18840TIP3   OH277934   5.308   6.169   2.934 -0.2825 -0.8777 -0.3606
18840TIP3    H177935   5.338   6.155   2.844  1.8174 -0.5800  0.2576
18840TIP3    H277936   5.258   6.090   2.955 -3.2760  0.2094 -2.6785
18841TIP3   OH277937   3.424   1.754   1.252  0.3085  0.1498 -0.0704
18841TIP3    H177938   3.337   1.722   1.276 -0.2579  0.4443 -1.6313
18841TIP3    H277939   3.461   1.684   1.197  1.5877 -0.5242  1.5247
18842TIP3   OH277940   0.045   4.030   1.881 -0.0155  0.0117  0.3106
18842TIP3    H177941   0.023   4.033   1.974 -0.7746 -0.0019  0.1356
18842TIP3    H277942   0.048   4.122   1.854  1.8538  0.1163  0.7064
18843TIP3   OH277943   2.082   3.752  13.906 -0.5723 -0.0845 -0.4229
18843TIP3    H177944   2.124   3.768  13.822  0.0401  1.8530  0.2029
18843TIP3    H277945   2.116   3.820  13.964 -1.6035 -0.8595  1.1793
18844TIP3   OH277946   6.668   0.097  17.001 -0.3475  0.7270 -0.5752
18844TIP3    H177947   6.654   0.007  16.970 -0.3651  0.6055 -0.2275
18844TIP3    H277948   6.762   0.103  17.016 -0.3386  0.7837 -0.6580
18845TIP3   OH277949   2.275   5.620   0.262 -0.4510 -0.0089 -0.7651
18845TIP3    H177950   2.266   5.544   0.321  0.1692 -0.7235 -1.5657
18845TIP3    H277951   2.257   5.696   0.318  0.5481 -0.6355  0.4564
18846TIP3   OH277952   2.678   5.831   5.416  0.1224  0.4148 -0.2980
18846TIP3    H177953   2.725   5.765   5.366  0.5613  1.3158 -1.1056
18846TIP3    H277954   2.699   5.812   5.507 -0.2628 -0.9231 -0.4624
18847TIP3   OH277955   0.275   5.853  16.207  0.0588 -0.2244 -0.0404
18847TIP3    H177956   0.180   5.854  16.195  0.0433  0.9544  0.1428
18847TIP3    H277957   0.310   5.851  16.118 -0.1262 -0.8396 -0.1070
18848TIP3   OH277958   2.118   6.480   5.026 -0.1174 -0.3062  0.0859
18848TIP3    H177959   2.140   6.571   5.047 -0.8698 -0.7452  3.2704
18848TIP3    H277960   2.199   6.444   4.988  0.2879  1.5405 -0.9291
18849TIP3   OH277961   5.325   5.795  12.500 -0.5267  0.2677 -0.0049
18849TIP3    H177962   5.359   5.715  12.460 -1.1943 -0.0387  0.0368
18849TIP3    H277963   5.390   5.862  12.478 -0.2846 -0.1488 -0.5808
18850TIP3   OH277964   5.481   1.771  13.391  0.4583 -0.0273 -0.1648
18850TIP3    H177965   5.466   1.817  13.309  0.6702 -0.3472 -0.3874
18850TIP3    H277966   5.398   1.779  13.439  0.4202  0.3795 -0.2990
18851TIP3   OH277967   0.951   6.036   1.882  0.3332  0.3023  0.1062
18851TIP3    H177968   0.905   5.979   1.943 -1.2425  0.6153 -0.7363
18851TIP3    H277969   1.023   5.982   1.848 -0.7356 -0.9767 -0.1891
18852TIP3   OH277970   0.007   1.865   2.064 -0.2083  0.4784  0.1583
18852TIP3    H177971   0.100   1.850   2.048 -0.3181  1.3015 -1.4989
18852TIP3    H277972   0.005   1.921   2.141  0.6960  0.6920  0.0419
18853TIP3   OH277973   4.471   1.955  11.796  0.1032  0.1779 -0.3756
18853TIP3    H177974   4.467   1.924  11.887 -0.8703  0.6518 -0.2487
18853TIP3    H277975   4.565   1.964  11.778  0.3883 -1.7233 -0.0439
18854TIP3   OH277976   6.388   1.145   5.851  0.2358 -0.2297  0.3762
18854TIP3    H177977   6.432   1.128   5.768  1.6932  1.4108  0.7530
18854TIP3    H277978   6.444   1.209   5.896 -1.7958  0.8602  1.5285
18855TIP3   OH277979   4.078   6.400   5.641 -0.1955  0.2666 -0.4829
18855TIP3    H177980   4.111   6.318   5.677 -0.4990 -0.5354 -1.9490
18855TIP3    H277981   4.047   6.449   5.717 -1.5803 -1.6941  0.3176
18856TIP3   OH277982   5.023   0.972  12.995 -0.6674 -0.6702 -0.0194
18856TIP3    H177983   5.065   0.975  12.909 -0.6489 -0.7520 -0.0136
18856TIP3    H277984   5.084   1.015  13.054  0.3824 -2.5899  0.3833
18857TIP3   OH277985   1.345   0.377  10.976 -0.0132  0.1285 -0.3895
18857TIP3    H177986   1.428   0.349  10.937 -0.4019 -0.8792 -0.5362
18857TIP3    H277987   1.314   0.299  11.022 -0.2327  0.8992  0.7923
18858TIP3   OH277988   3.164   0.599   3.322  0.1968 -0.9776 -0.1334
18858TIP3    H177989   3.181   0.547   3.243  0.7463 -1.1620  0.1052
18858TIP3    H277990   3.208   0.552   3.392  0.8422 -0.1011  0.0633
18859TIP3   OH277991   0.057   3.088   0.645 -0.5066 -0.4278  0.0491
18859TIP3    H177992   0.031   3.167   0.691  0.2463  0.8501 -1.6268
18859TIP3    H277993  -0.008   3.077   0.576  0.1894 -0.4405 -0.6209
18860TIP3   OH277994   5.725   2.316  16.140 -0.2139  0.4559  0.0765
18860TIP3    H177995   5.743   2.404  16.172 -1.2626  0.8354 -0.3402
18860TIP3    H277996   5.791   2.302  16.072  0.0606  0.8472  0.2541
18861TIP3   OH277997   4.532   4.115  11.820  0.3254  0.6465 -0.1851
18861TIP3    H177998   4.446   4.080  11.846  0.3239  1.5982  1.2246
18861TIP3    H277999   4.591   4.085  11.889  0.4227  2.8878  0.7880
18862TIP3   OH278000   5.777   4.745  14.442 -0.0011 -0.0308  0.6617
18862TIP3    H178001   5.718   4.766  14.370 -0.7196  1.5957  1.6747
18862TIP3    H278002   5.784   4.826  14.492  1.3443 -0.8147  1.8206
18863TIP3   OH278003   2.258   0.863   5.128  0.1934 -0.0132 -0.0060
18863TIP3    H178004   2.197   0.869   5.201 -0.1398 -1.7069 -0.0956
18863TIP3    H278005   2.323   0.798   5.156 -0.8634 -1.9653 -1.7729
18864TIP3   OH278006   2.273   3.350   3.653 -0.1879  0.9140  0.4108
18864TIP3    H178007   2.232   3.307   3.578 -0.0214  1.3170  0.0896
18864TIP3    H278008   2.235   3.305   3.729  0.5086 -0.2869  0.0722
18865TIP3   OH278009   0.450   3.541   5.061 -0.5190 -0.1099 -0.1715
18865TIP3    H178010   0.491   3.524   5.145  1.0131 -1.0543 -1.0589
18865TIP3    H278011   0.377   3.479   5.057  0.2987 -1.1080 -0.1218
18866TIP3   OH278012   1.258   1.973  17.061 -0.5870  0.3711 -0.3859
18866TIP3    H178013   1.330   2.034  17.043  0.4475 -0.8213 -0.4924
18866TIP3    H278014   1.202   1.978  16.984 -0.0229  0.5163 -0.7892
18867TIP3   OH278015   2.772   5.607  12.509  0.4377 -0.1651  0.4726
18867TIP3    H178016   2.831   5.670  12.468  1.4238 -0.9291  0.6967
18867TIP3    H278017   2.820   5.525  12.510 -1.2971 -1.2621 -0.9308
18868TIP3   OH278018   2.358   3.157   1.224  0.3845 -0.5655 -0.5236
18868TIP3    H178019   2.363   3.165   1.319 -0.9402  0.0698 -0.4727
18868TIP3    H278020   2.274   3.113   1.208  0.6726 -0.8189 -1.3863
18869TIP3   OH278021   3.037   2.580   0.909  0.1749 -0.3074 -0.2765
18869TIP3    H178022   2.994   2.500   0.880  1.6301 -0.9155 -0.8475
18869TIP3    H278023   2.987   2.651   0.869 -1.6871 -0.8481  0.9569
18870TIP3   OH278024   4.602   6.411   0.770  0.2519  0.4672 -0.4093
18870TIP3    H178025   4.569   6.487   0.817  0.6535  1.3502 -1.5310
18870TIP3    H278026   4.531   6.385   0.711  0.1611  0.0399 -0.1180
18871TIP3   OH278027   0.632   6.192  13.112 -0.1711 -0.8381  0.3493
18871TIP3    H178028   0.574   6.122  13.142 -1.3802  0.8969  2.4290
18871TIP3    H278029   0.614   6.264  13.173 -1.1183  2.2930 -3.2695
18872TIP3   OH278030   5.588   1.162   1.680 -0.0332  1.0502 -0.0921
18872TIP3    H178031   5.570   1.250   1.646  1.4585  0.9494 -1.2218
18872TIP3    H278032   5.616   1.176   1.770 -1.2530  1.5750  0.2284
18873TIP3   OH278033   1.435   5.555  10.796 -0.4043 -0.7642 -0.5524
18873TIP3    H178034   1.427   5.587  10.706 -0.7546  1.5266  0.2497
18873TIP3    H278035   1.355   5.504  10.810 -0.9938 -0.0264 -1.1314
18874TIP3   OH278036   2.329   3.631   3.013  0.0924  0.1108  0.7391
18874TIP3    H178037   2.290   3.705   2.966  1.1565  0.8833  1.0230
18874TIP3    H278038   2.330   3.560   2.949 -1.9395 -0.0167  0.7914
18875TIP3   OH278039   0.459   5.288  15.981  0.8212  0.4748  0.3706
18875TIP3    H178040   0.544   5.329  15.966 -0.4153  2.9796 -0.5260
18875TIP3    H278041   0.420   5.283  15.894 -0.8241  1.5913  0.9930
18876TIP3   OH278042   6.383   3.283  17.152 -0.1519  0.0155 -0.0737
18876TIP3    H178043   6.376   3.253  17.242  3.1937 -0.3881  0.1821
18876TIP3    H278044   6.403   3.377  17.158 -1.1044  0.2530 -0.4619
18877TIP3   OH278045   1.733   1.903   3.711  0.1573  0.1982  0.0879
18877TIP3    H178046   1.711   1.903   3.618 -0.3357  0.5752  0.2016
18877TIP3    H278047   1.649   1.900   3.756  0.3716  0.5548  0.5242
18878TIP3   OH278048   2.463   0.078  16.241  0.2853 -0.0854  0.0473
18878TIP3    H178049   2.426   0.133  16.172  2.1429  1.2076  0.0017
18878TIP3    H278050   2.392   0.020  16.267 -0.2755 -1.2811 -3.5680
18879TIP3   OH278051   4.667   0.794  15.900  0.2368 -0.2925 -0.1332
18879TIP3    H178052   4.575   0.810  15.924  0.2588  2.0650 -1.3874
18879TIP3    H278053   4.709   0.771  15.983 -1.3799 -0.9699  0.5449
18880TIP3   OH278054   3.921   6.318   2.270 -0.2015  0.0346  0.5324
18880TIP3    H178055   3.987   6.370   2.223 -0.3663 -0.2062  0.0254
18880TIP3    H278056   3.943   6.329   2.362  1.1652 -0.8417  0.3405
18881TIP3   OH278057   5.902   1.726   0.527 -0.0332 -0.2147 -0.4770
18881TIP3    H178058   5.924   1.633   0.528  0.1026 -0.1789  0.7069
18881TIP3    H278059   5.870   1.744   0.615 -0.4512  0.7728 -0.8184
18882TIP3   OH278060   1.151   0.169   5.466  0.2419 -0.1772  0.4964
18882TIP3    H178061   1.107   0.119   5.533 -0.1212  0.1704  0.5200
18882TIP3    H278062   1.240   0.183   5.501  0.0064  0.1414  0.9741
18883TIP3   OH278063   4.998   1.733  13.957 -0.4548  0.4839  0.1064
18883TIP3    H178064   4.994   1.725  13.862  1.2272  0.0477  0.0533
18883TIP3    H278065   4.958   1.653  13.990  3.1937 -1.7458 -0.3337
18884TIP3   OH278066   5.427   6.015   6.630 -0.1272  0.4699 -0.0299
18884TIP3    H178067   5.363   6.086   6.618 -2.4061 -1.1511  1.6856
18884TIP3    H278068   5.512   6.059   6.629 -1.3488  2.9881 -0.6249
18885TIP3   OH278069   3.863   5.221   2.908 -0.0186  0.7402  0.7058
18885TIP3    H178070   3.783   5.215   2.960 -1.2433 -0.8489 -1.2385
18885TIP3    H278071   3.841   5.281   2.837  1.1741  1.7612  1.1487
18886TIP3   OH278072   0.725   4.968   0.921  0.4184  0.6203  0.4946
18886TIP3    H178073   0.663   5.040   0.911 -0.1277  0.1387  0.4109
18886TIP3    H278074   0.721   4.946   1.014 -0.2571 -0.0478  0.3162
18887TIP3   OH278075   2.795   6.075   1.891 -0.5500  0.0073 -0.1618
18887TIP3    H178076   2.876   6.090   1.940 -0.0967  0.5789 -1.0549
18887TIP3    H278077   2.804   6.129   1.813 -1.4738 -0.4993 -0.6368
18888TIP3   OH278078   0.776   4.913  10.538  0.3263 -0.2731 -0.3291
18888TIP3    H178079   0.770   4.820  10.560  2.7236 -0.8252 -1.7454
18888TIP3    H278080   0.706   4.928  10.475  0.3957 -1.2988 -0.6591
18889TIP3   OH278081   3.111   1.986  16.443  0.8463  0.0707 -0.5887
18889TIP3    H178082   3.021   1.987  16.410  0.7112  0.3655 -0.2181
18889TIP3    H278083   3.165   1.992  16.364  0.5242  1.0988 -0.7510
18890TIP3   OH278084   1.207   2.409  14.449  0.1123 -0.5741  0.7719
18890TIP3    H178085   1.159   2.336  14.408 -0.0749 -0.9995  1.7207
18890TIP3    H278086   1.166   2.488  14.414 -0.8445 -0.9317  1.0562
18891TIP3   OH278087   4.298   5.159   3.715 -0.7823 -0.0950 -0.5668
18891TIP3    H178088   4.273   5.084   3.661 -1.6374  0.5063 -1.0157
18891TIP3    H278089   4.306   5.232   3.653  2.3989 -0.2536 -0.5402
18892TIP3   OH278090   0.024   4.408   6.590  0.3070 -0.0704 -0.2129
18892TIP3    H178091   0.082   4.350   6.540  0.9129  2.1674 -2.2834
18892TIP3    H278092  -0.062   4.368   6.581  0.8982 -1.3923 -0.3638
18893TIP3   OH278093   5.198   2.597   5.309 -0.3225  0.0785  0.0095
18893TIP3    H178094   5.264   2.639   5.363 -0.9848  0.0639  0.8537
18893TIP3    H278095   5.195   2.650   5.229  0.4621  0.2672  0.1016
18894TIP3   OH278096   5.451   3.169   3.183 -0.0980  0.6496 -0.5089
18894TIP3    H178097   5.358   3.161   3.163 -0.2127 -0.8195  0.4431
18894TIP3    H278098   5.453   3.205   3.272  0.0922 -2.1965  0.7480
18895TIP3   OH278099   3.195   3.585  11.728  0.1159 -0.4312  0.2478
18895TIP3    H178100   3.227   3.650  11.664  0.8745  1.0360  2.0221
18895TIP3    H278101   3.229   3.501  11.696 -1.5093 -0.1339 -2.5195
18896TIP3   OH278102   2.656   4.357   3.670  0.0192  0.0460  0.0645
18896TIP3    H178103   2.599   4.296   3.718 -1.2175 -0.2657 -1.6967
18896TIP3    H278104   2.602   4.435   3.659  0.6471  0.4787  0.0208
18897TIP3   OH278105   4.448   1.085   3.399 -0.2235  0.8954  0.1939
18897TIP3    H178106   4.491   1.131   3.327 -0.5415  2.5428  1.0097
18897TIP3    H278107   4.387   1.149   3.435 -2.0315 -0.7637  0.2519
18898TIP3   OH278108   5.370   5.902   6.879  0.3163  0.1496  0.6582
18898TIP3    H178109   5.384   5.923   6.787 -0.4960 -2.3195 -0.1064
18898TIP3    H278110   5.444   5.847   6.903 -0.8980 -1.5911  0.5894
18899TIP3   OH278111   1.519   2.933   3.126 -0.2456 -0.2541  0.2134
18899TIP3    H178112   1.594   2.988   3.104 -1.1186  0.3056 -1.5185
18899TIP3    H278113   1.549   2.880   3.200  1.3997  0.8852  0.4084
18900TIP3   OH278114   3.406   0.325  13.054  0.0258 -0.3576  0.2279
18900TIP3    H178115   3.405   0.301  13.147 -0.1021  1.9555  0.8815
18900TIP3    H278116   3.330   0.279  13.017  0.5871 -2.0242  1.0211
18901TIP3   OH278117   3.851   4.865  11.187 -0.0540  0.5257 -0.2971
18901TIP3    H178118   3.882   4.821  11.266 -0.4402  1.4035  0.3640
18901TIP3    H278119   3.788   4.805  11.149 -0.2790  0.3319  0.3716
18902TIP3   OH278120   4.679   3.010  13.254  0.5485  0.3929 -0.2272
18902TIP3    H178121   4.730   3.086  13.225  1.6011 -0.4279 -0.5828
18902TIP3    H278122   4.744   2.951  13.291 -0.3080 -0.1954  0.3575
18903TIP3   OH278123   2.511   6.404  11.123  0.2105 -0.1187  0.6792
18903TIP3    H178124   2.505   6.388  11.029  0.3388 -1.5829  0.8937
18903TIP3    H278125   2.474   6.491  11.135 -0.2123 -0.0868 -0.6774
18904TIP3   OH278126   2.758   2.785   1.018 -0.1583 -0.1689  0.4644
18904TIP3    H178127   2.677   2.749   0.983  1.1853 -1.6746 -1.3050
18904TIP3    H278128   2.749   2.777   1.113 -1.9277 -0.5566  0.3018
18905TIP3   OH278129   1.333   1.175  13.175 -0.2640  0.1946  0.1897
18905TIP3    H178130   1.273   1.157  13.247 -0.1929 -0.6584  0.0467
18905TIP3    H278131   1.336   1.270  13.170  0.3309  0.2990  1.8133
18906TIP3   OH278132   2.823   6.176  16.613 -0.2759  0.1011  0.0031
18906TIP3    H178133   2.898   6.209  16.563 -0.2609  1.7637  1.0061
18906TIP3    H278134   2.862   6.120  16.680 -0.3084 -2.2491 -1.8274
18907TIP3   OH278135   2.819   2.458  16.828 -0.1037  0.2003 -1.1668
18907TIP3    H178136   2.777   2.510  16.760 -1.5419 -1.0771 -1.3070
18907TIP3    H278137   2.793   2.499  16.911 -0.2943  0.3649 -1.3103
18908TIP3   OH278138   2.417   4.613  15.719  0.2678  0.1423 -0.7548
18908TIP3    H178139   2.344   4.632  15.659  1.7327 -0.2283 -2.7496
18908TIP3    H278140   2.392   4.656  15.801 -2.1935  0.0168 -1.3334
18909TIP3   OH278141   2.477   1.477   2.348  0.1853  0.6847  0.2112
18909TIP3    H178142   2.530   1.425   2.407 -0.2745 -0.1376 -0.0799
18909TIP3    H278143   2.401   1.421   2.328  0.2683  0.9830 -1.0453
18910TIP3   OH278144   2.879   3.617  13.009  0.0324 -0.2761  0.1071
18910TIP3    H178145   2.928   3.625  12.927 -2.2250 -0.6563 -1.3490
18910TIP3    H278146   2.820   3.691  13.010 -2.2857 -2.0173 -0.3105
18911TIP3   OH278147   0.424   5.180  16.884 -0.6050  0.6520 -0.0458
18911TIP3    H178148   0.353   5.153  16.825  0.5465 -0.3941 -1.0162
18911TIP3    H278149   0.442   5.271  16.860  0.0921  0.1331 -1.6139
18912TIP3   OH278150   2.271   0.571  13.623 -0.1240 -0.2777 -0.2885
18912TIP3    H178151   2.257   0.583  13.717  0.2267  1.3119 -0.4209
18912TIP3    H278152   2.208   0.630  13.582  0.7794  0.1869 -1.0269
18913TIP3   OH278153   4.651   5.592   1.522  0.5142 -0.0959 -0.1933
18913TIP3    H178154   4.581   5.573   1.584 -2.6905  1.1931 -3.0860
18913TIP3    H278155   4.697   5.509   1.511 -0.6744 -1.0546  1.6992
18914TIP3   OH278156   0.272   5.822   6.681 -0.2993 -0.5950 -0.0734
18914TIP3    H178157   0.242   5.829   6.772 -0.9081 -3.4040  0.0169
18914TIP3    H278158   0.332   5.896   6.670  0.7485 -0.8616  2.9845
18915TIP3   OH278159   5.133   2.130   3.566 -0.0479  0.1189  0.6377
18915TIP3    H178160   5.074   2.056   3.553  0.8202 -0.6000  0.6924
18915TIP3    H278161   5.213   2.105   3.520  0.2844  0.9879  0.7307
18916TIP3   OH278162   2.126   6.098  14.300 -0.8718 -0.3387  0.4509
18916TIP3    H178163   2.150   6.145  14.380  1.5054 -1.1010  0.2518
18916TIP3    H278164   2.144   6.160  14.230 -4.2536  0.8458  0.4394
18917TIP3   OH278165   2.121   0.418  14.221  0.7899 -0.2784  0.1399
18917TIP3    H178166   2.079   0.498  14.251 -0.7541 -0.3437 -1.6640
18917TIP3    H278167   2.144   0.435  14.130  2.1778 -1.2593  0.2614
18918TIP3   OH278168   6.693   2.101  11.318 -0.0146  0.2908  0.3802
18918TIP3    H178169   6.739   2.131  11.397 -1.1749  1.2262  0.7332
18918TIP3    H278170   6.699   2.006  11.322  1.5113  0.3806  0.6286
18919TIP3   OH278171   0.826   2.121  13.613  0.1131  0.2774  0.1061
18919TIP3    H178172   0.779   2.173  13.678  0.3643  1.5457 -0.6943
18919TIP3    H278173   0.761   2.056  13.583 -0.6740  1.0625  0.0730
18920TIP3   OH278174   0.956   0.169  14.837 -0.1232  0.4687  0.2857
18920TIP3    H178175   0.895   0.107  14.798  0.0462 -1.1826  2.4437
18920TIP3    H278176   1.005   0.205  14.763 -1.9003 -0.1284 -1.2447
18921TIP3   OH278177   4.429   5.491   0.727 -0.2136 -0.2925  0.2920
18921TIP3    H178178   4.456   5.569   0.678 -0.5472 -0.2169  0.2285
18921TIP3    H278179   4.345   5.515   0.766 -0.2994 -0.6114  0.3019
18922TIP3   OH278180   3.877   5.330  13.510 -0.3532  0.4382  0.7441
18922TIP3    H178181   3.830   5.413  13.510 -1.0610  0.0755 -1.0521
18922TIP3    H278182   3.951   5.345  13.570  0.2042  2.7545 -0.3866
18923TIP3   OH278183   2.149   6.177  13.224  0.2091 -0.4061 -0.4401
18923TIP3    H178184   2.227   6.189  13.169  0.7463 -0.7946  0.2260
18923TIP3    H278185   2.180   6.194  13.313 -0.3329 -1.1261 -0.1065
18924TIP3   OH278186   0.408   1.577  15.749  0.1999  0.2947 -0.1932
18924TIP3    H178187   0.371   1.644  15.807  0.7650  0.3952  0.0482
18924TIP3    H278188   0.331   1.536  15.709 -0.2016  3.3145 -2.9601
18925TIP3   OH278189   3.174   2.042  15.502 -0.0545 -0.6558  0.9399
18925TIP3    H178190   3.200   2.124  15.545 -0.2382 -0.7785  1.2875
18925TIP3    H278191   3.087   2.061  15.465  0.4312 -0.3045 -0.0630
18926TIP3   OH278192   4.815   1.311   3.086  0.4576 -0.8182  0.5958
18926TIP3    H178193   4.827   1.406   3.077  0.5539 -1.0171 -2.1188
18926TIP3    H278194   4.726   1.301   3.121 -0.4282  0.2726 -1.2147
18927TIP3   OH278195   0.511   0.142   5.128 -0.5037 -0.1728 -0.6221
18927TIP3    H178196   0.437   0.118   5.183 -0.1520 -0.7420 -0.3898
18927TIP3    H278197   0.585   0.093   5.164 -0.3034 -0.7092 -1.7120
18928TIP3   OH278198   0.717   5.600   3.184  0.1375 -0.4700 -0.1334
18928TIP3    H178199   0.696   5.530   3.122 -1.4833 -0.2929  0.1678
18928TIP3    H278200   0.657   5.586   3.257  0.1628  0.8928  0.1741
18929TIP3   OH278201   2.575   5.151   3.283 -0.2276  0.0015  0.3440
18929TIP3    H178202   2.541   5.146   3.372  0.0522 -0.9071  0.4118
18929TIP3    H278203   2.563   5.063   3.248  2.4024 -0.4936  0.5168
18930TIP3   OH278204   2.793   6.788   4.152  0.4252 -0.1435  0.2202
18930TIP3    H178205   2.887   6.787   4.166  0.4248 -1.4051  0.2786
18930TIP3    H278206   2.767   6.696   4.159 -0.3026 -0.3067 -3.1320
18931TIP3   OH278207   2.167   6.239  16.043 -0.3683  0.3107 -0.2778
18931TIP3    H178208   2.153   6.331  16.066 -2.2254  0.6570 -2.4654
18931TIP3    H278209   2.257   6.235  16.012 -0.1880  1.3297  0.0781
18932TIP3   OH278210   1.267   3.511   2.365  0.0612 -0.1582 -0.0470
18932TIP3    H178211   1.304   3.523   2.277  0.9395 -2.6178 -0.1005
18932TIP3    H278212   1.178   3.480   2.350 -0.4211  1.1412  0.0022
18933TIP3   OH278213   2.451   0.541   2.802 -0.7023  0.7737 -0.4866
18933TIP3    H178214   2.536   0.511   2.834 -0.6660 -0.0179 -1.2909
18933TIP3    H278215   2.423   0.607   2.866 -0.0259  0.2024  0.4203
18934TIP3   OH278216   2.521   2.728   4.970 -0.1718  0.1144 -0.2144
18934TIP3    H178217   2.599   2.731   5.025 -0.2578  1.7082 -0.1410
18934TIP3    H278218   2.554   2.710   4.882  0.1075 -0.8520  0.0738
18935TIP3   OH278219   4.704   0.786  11.309  0.4129  0.8817 -0.3094
18935TIP3    H178220   4.793   0.781  11.275  0.3471  2.0727 -0.6818
18935TIP3    H278221   4.664   0.859  11.262 -0.7548  0.3872 -0.1223
18936TIP3   OH278222   4.130   6.541  13.465 -0.0965  0.2531 -0.0270
18936TIP3    H178223   4.152   6.524  13.556  1.3511 -0.9413 -0.5685
18936TIP3    H278224   4.195   6.606  13.436 -1.5981  1.9620  0.2100
18937TIP3   OH278225   0.113   0.128   0.032 -0.4263 -0.1126 -0.0497
18937TIP3    H178226   0.043   0.191   0.049  1.4706  1.9599  0.4800
18937TIP3    H278227   0.142   0.148  -0.057 -1.1315 -1.6679 -0.6755
18938TIP3   OH278228   5.767   5.688  11.250  0.1607 -0.2471  0.1402
18938TIP3    H178229   5.811   5.621  11.197 -0.5890 -0.4907 -0.1878
18938TIP3    H278230   5.674   5.665  11.245 -0.1602  1.0382 -0.2969
18939TIP3   OH278231   3.043   3.795  15.971 -0.7671  1.0015 -0.1971
18939TIP3    H178232   3.051   3.716  15.917  0.1479  1.8460 -1.3608
18939TIP3    H278233   3.046   3.763  16.061  1.1012 -0.1944 -0.6279
18940TIP3   OH278234   6.674   4.799   4.098  0.1015 -0.0229  0.3724
18940TIP3    H178235   6.699   4.870   4.040 -1.0672 -0.6683 -0.9853
18940TIP3    H278236   6.713   4.822   4.183  2.3845  0.6306 -0.7818
18941TIP3   OH278237   4.338   5.590   4.637  0.0654  0.0305  0.3025
18941TIP3    H178238   4.328   5.588   4.542 -0.3402 -0.0061  0.3455
18941TIP3    H278239   4.250   5.606   4.670 -0.3921 -2.9406  0.7848
18942TIP3   OH278240   6.516   2.071  15.586 -0.2539  0.1147  0.4756
18942TIP3    H178241   6.606   2.102  15.594 -0.0003 -0.9237  1.9278
18942TIP3    H278242   6.492   2.043  15.674 -1.6767 -0.5110 -0.0844
18943TIP3   OH278243   4.556   3.695  16.283  0.0747 -0.8175  0.1990
18943TIP3    H178244   4.577   3.786  16.302 -0.6860 -0.8242  1.1148
18943TIP3    H278245   4.591   3.680  16.195  0.0842  0.3871 -0.0118
18944TIP3   OH278246   1.544   3.537  12.458  0.2731 -0.8399  0.1498
18944TIP3    H178247   1.551   3.443  12.472  0.4070 -0.7325  0.8166
18944TIP3    H278248   1.581   3.576  12.537  0.6775 -0.2234 -0.3298
18945TIP3   OH278249   0.487   2.646   0.963 -0.7603  0.2067  0.4575
18945TIP3    H178250   0.393   2.628   0.969 -0.4646 -1.5821  0.1499
18945TIP3    H278251   0.494   2.708   0.890 -1.5977 -0.6012 -0.3327
18946TIP3   OH278252   5.157   4.157  13.561  0.0282  0.0945  0.3364
18946TIP3    H178253   5.067   4.189  13.562  0.2855  0.8622  1.8887
18946TIP3    H278254   5.202   4.214  13.499 -0.1968  0.8307  0.8313
18947TIP3   OH278255   2.774   2.206  12.314  0.1934 -0.3029 -0.1644
18947TIP3    H178256   2.833   2.161  12.254  1.3398 -0.2748  0.9061
18947TIP3    H278257   2.832   2.255  12.373 -0.8969 -0.2931  0.9397
18948TIP3   OH278258   5.092   4.901   3.196 -0.7893  0.5570  0.8612
18948TIP3    H178259   5.134   4.873   3.115 -2.1727  3.1789 -0.9116
18948TIP3    H278260   5.028   4.832   3.215  1.7361 -1.7389  1.6970
18949TIP3   OH278261   6.612   3.535   5.074  0.6124  0.1948 -0.5767
18949TIP3    H178262   6.532   3.565   5.031  0.3653  1.9716  0.9652
18949TIP3    H278263   6.672   3.516   5.003  0.2815  3.1177 -1.7942
18950TIP3   OH278264   0.186   1.270   0.769 -0.5419  0.1450 -0.3673
18950TIP3    H178265   0.197   1.365   0.760  1.9098  0.1826  1.9861
18950TIP3    H278266   0.117   1.260   0.834  0.2259  0.3849  0.5057
18951TIP3   OH278267   4.211   6.327  12.846 -0.1077  0.3267 -0.7511
18951TIP3    H178268   4.232   6.380  12.923 -1.4087 -0.1524 -0.0473
18951TIP3    H278269   4.158   6.385  12.791 -0.3652  0.2082 -0.6276
18952TIP3   OH278270   3.707   1.524  12.795 -0.5191  0.4165  0.1689
18952TIP3    H178271   3.782   1.530  12.854 -1.0020 -0.1797  0.8656
18952TIP3    H278272   3.694   1.430  12.782 -2.6885  0.3697  2.1056
18953TIP3   OH278273   0.258   1.655  16.808  0.1834  0.3446 -0.0899
18953TIP3    H178274   0.210   1.725  16.763 -0.1390 -0.0317 -0.3309
18953TIP3    H278275   0.192   1.589  16.829  0.4985  0.0761  0.0775
18954TIP3   OH278276   3.145   2.687   2.027  0.0105 -0.2549  0.5003
18954TIP3    H178277   3.141   2.612   2.086  0.3626 -1.8544 -1.4139
18954TIP3    H278278   3.069   2.677   1.970  1.7465 -1.0168 -1.8287
18955TIP3   OH278279   4.492   2.295  11.373 -0.3240 -0.4284  0.0653
18955TIP3    H178280   4.408   2.289  11.327 -0.5851  0.8365  0.3325
18955TIP3    H278281   4.526   2.381  11.349 -0.3182  0.1422  1.9359
18956TIP3   OH278282   0.508   3.273   1.679  0.3099 -0.2651  0.1946
18956TIP3    H178283   0.538   3.308   1.595 -0.7787 -0.8785 -0.4807
18956TIP3    H278284   0.536   3.181   1.677 -0.5483 -0.5356  0.0619
18957TIP3   OH278285   5.859   0.046  15.642 -0.3511  0.3448 -0.8351
18957TIP3    H178286   5.905   0.113  15.590 -0.0833  0.1274 -0.8810
18957TIP3    H278287   5.909   0.042  15.724  0.1170 -0.3717 -1.1480
18958TIP3   OH278288   2.425   0.155   0.652  0.3186  0.0269 -0.2395
18958TIP3    H178289   2.419   0.171   0.746  0.0383  0.1762 -0.2827
18958TIP3    H278290   2.518   0.138   0.637  0.1828 -1.3007  0.2744
18959TIP3   OH278291   3.553   3.927   4.377 -0.7178  0.0271 -0.0904
18959TIP3    H178292   3.461   3.952   4.371 -0.2891  1.3654 -1.7179
18959TIP3    H278293   3.587   3.937   4.288  1.1251  0.0746  0.5785
18960TIP3   OH278294   5.635   4.050   4.929  0.3595  0.3191 -0.1938
18960TIP3    H178295   5.559   4.107   4.943 -0.3922 -0.6947 -0.0293
18960TIP3    H278296   5.679   4.087   4.853 -1.1172  0.0872 -1.1955
18961TIP3   OH278297   4.582   4.721  10.867 -0.2444  0.0874  0.8006
18961TIP3    H178298   4.516   4.676  10.814  0.8410  1.1031 -1.5752
18961TIP3    H278299   4.664   4.674  10.849  0.1882  0.6104  1.3616
18962TIP3   OH278300   0.298   6.006   0.559 -0.3143 -0.2929 -0.2143
18962TIP3    H178301   0.228   5.942   0.545  0.3867 -1.2536  0.5789
18962TIP3    H278302   0.300   6.057   0.478 -1.3811 -0.7761 -0.5678
18963TIP3   OH278303   6.507   4.202   4.246  0.3872 -0.5162  0.7077
18963TIP3    H178304   6.449   4.204   4.322  0.2800  0.4040  0.6109
18963TIP3    H278305   6.455   4.160   4.177 -0.9567  2.1082  0.0149
18964TIP3   OH278306   6.731   6.607   5.053  0.1511 -0.0195  0.2881
18964TIP3    H178307   6.657   6.661   5.081 -0.0226 -0.7444  1.2636
18964TIP3    H278308   6.705   6.574   4.967 -0.3606  0.2803  0.3206
18965TIP3   OH278309   5.060   4.370  14.131 -0.6871 -0.2197 -0.3319
18965TIP3    H178310   5.090   4.379  14.040 -0.1059 -0.5128 -0.1727
18965TIP3    H278311   4.996   4.441  14.142  1.1447  1.5083 -0.2010
18966TIP3   OH278312   2.489   2.755   3.069 -0.1777 -0.6946 -0.2220
18966TIP3    H178313   2.468   2.788   3.156  0.8623 -0.3756 -0.0883
18966TIP3    H278314   2.458   2.664   3.070  0.5853 -0.9505  0.7613
18967TIP3   OH278315   1.444   3.303   5.348  0.4549 -0.0134 -0.6362
18967TIP3    H178316   1.536   3.298   5.324  0.4009 -0.4759 -0.7461
18967TIP3    H278317   1.412   3.213   5.344  0.3747 -0.0858  0.9008
18968TIP3   OH278318   5.266   6.126  13.534 -0.2461  0.6018  0.3091
18968TIP3    H178319   5.329   6.103  13.466  0.2395 -1.6644  1.4658
18968TIP3    H278320   5.319   6.153  13.609 -0.7037  0.2639  0.7572
18969TIP3   OH278321   6.065   3.247  14.798  0.1057  0.2236 -0.1310
18969TIP3    H178322   6.006   3.196  14.742  0.5013  0.3241 -0.6471
18969TIP3    H278323   6.057   3.206  14.885 -1.0307  0.5027 -0.0917
18970TIP3   OH278324   4.892   1.058   1.001 -0.0463 -0.0273 -0.2900
18970TIP3    H178325   4.876   1.137   0.949  0.2096 -0.8529 -1.6662
18970TIP3    H278326   4.944   1.089   1.075  1.5265  0.8642 -1.6968
18971TIP3   OH278327   5.745   0.472   0.088  0.0710 -0.4760 -0.3159
18971TIP3    H178328   5.682   0.453   0.019  0.6643  0.1606 -1.0555
18971TIP3    H278329   5.823   0.422   0.062  0.0096 -0.9410  0.3775
18972TIP3   OH278330   2.829   5.908   0.702 -0.0153  0.2491  0.1408
18972TIP3    H178331   2.806   5.818   0.681 -1.3209  1.1261 -2.7717
18972TIP3    H278332   2.766   5.935   0.768 -0.7586 -0.4738 -0.2585
18973TIP3   OH278333   6.403   1.817  16.192  0.1607  0.4417  0.4352
18973TIP3    H178334   6.335   1.797  16.128 -1.0975  3.2822  0.6998
18973TIP3    H278335   6.396   1.749  16.258 -3.3834  1.2347  1.0918
18974TIP3   OH278336   5.778   6.629   0.606  0.0221  0.5171 -0.2552
18974TIP3    H178337   5.732   6.626   0.690 -2.2426  0.6341 -1.4077
18974TIP3    H278338   5.798   6.537   0.586  1.2396  0.5450  0.7028
18975TIP3   OH278339   0.755   0.795   3.374  0.7289  0.7223 -0.1304
18975TIP3    H178340   0.809   0.720   3.349  0.7923  0.5897  0.3977
18975TIP3    H278341   0.807   0.842   3.439  0.4844  0.9567 -0.1021
18976TIP3   OH278342   3.930   3.725   6.176  0.2128  0.6613 -0.1399
18976TIP3    H178343   3.919   3.658   6.243  0.7555  1.1095  0.4092
18976TIP3    H278344   3.919   3.678   6.093 -1.6731  0.3225  0.2608
18977TIP3   OH278345   1.257   4.313  13.318 -0.2016 -0.0021  0.3219
18977TIP3    H178346   1.206   4.348  13.244 -1.2302  0.2596  1.1204
18977TIP3    H278347   1.322   4.256  13.278  0.2981  1.3489 -0.8980
18978TIP3   OH278348   5.372   0.271   3.179  0.0666  0.1420 -0.0285
18978TIP3    H178349   5.333   0.186   3.160  2.0200 -0.5960 -1.0826
18978TIP3    H278350   5.391   0.268   3.273  0.8140 -0.9225 -0.1967
18979TIP3   OH278351   5.669   2.578  13.055 -0.4540  0.3217  0.0839
18979TIP3    H178352   5.719   2.500  13.031 -0.5370  0.0528  0.7613
18979TIP3    H278353   5.615   2.550  13.129 -1.6139  0.6000 -0.6151
18980TIP3   OH278354   5.263   6.552  14.059 -0.6295  0.9835  0.4544
18980TIP3    H178355   5.316   6.497  14.002 -1.6114  0.5820 -0.1015
18980TIP3    H278356   5.315   6.562  14.138  0.1852  0.4512  0.0005
18981TIP3   OH278357   6.159   5.711   0.395 -0.1735 -0.0440 -0.1293
18981TIP3    H178358   6.217   5.729   0.469 -1.1737 -1.3398  1.0354
18981TIP3    H278359   6.219   5.687   0.323  0.8535  2.1043 -0.0587
18982TIP3   OH278360   0.848   3.029   3.726  0.0545  0.2747  0.0770
18982TIP3    H178361   0.943   3.041   3.732  0.2933 -1.0924 -0.7080
18982TIP3    H278362   0.828   3.045   3.633 -0.3823 -0.1532  0.0963
18983TIP3   OH278363   3.573   5.127  16.714  0.2495  0.1150 -0.2018
18983TIP3    H178364   3.641   5.059  16.717 -1.3628 -1.5598 -0.0432
18983TIP3    H278365   3.600   5.183  16.642  0.0853 -2.4857 -2.4745
18984TIP3   OH278366   1.059   0.145  12.305  0.3119  0.0435 -0.2508
18984TIP3    H178367   1.071   0.055  12.276  1.2142  0.0370  0.1230
18984TIP3    H278368   0.964   0.157  12.307  0.1687 -1.0435  0.1325
18985TIP3   OH278369   6.722   6.108   5.237  0.6607  0.6911 -0.0840
18985TIP3    H178370   6.635   6.132   5.269  0.4982  0.5793 -0.4473
18985TIP3    H278371   6.717   6.120   5.143  0.2938 -1.6424 -0.4260
18986TIP3   OH278372   3.524   0.837   3.595  0.2638 -0.7180 -0.2201
18986TIP3    H178373   3.523   0.829   3.500  0.1246 -0.1592 -0.2647
18986TIP3    H278374   3.507   0.748   3.626 -0.7780 -0.7093 -0.7194
18987TIP3   OH278375   2.696   5.009  13.376 -0.2530  0.4201  0.3125
18987TIP3    H178376   2.646   4.941  13.331  0.0527  0.4751 -0.1222
18987TIP3    H278377   2.633   5.051  13.434  0.0435 -1.6997  2.3189
18988TIP3   OH278378   5.938   6.431  11.682 -0.2929  0.2379 -0.5935
18988TIP3    H178379   5.956   6.374  11.607  1.3563  0.1280 -0.1467
18988TIP3    H278380   5.916   6.371  11.753 -1.7782  0.3388 -0.9302
18989TIP3   OH278381   6.039   6.694   0.969  0.2997  0.2800 -0.2020
18989TIP3    H178382   5.997   6.607   0.964 -2.8771  1.6951 -0.7660
18989TIP3    H278383   6.102   6.694   0.897 -1.8478 -0.5847 -2.2118
18990TIP3   OH278384   3.476   1.207   4.227 -0.0930 -0.4984  0.1939
18990TIP3    H178385   3.480   1.179   4.135  0.5619  0.9558 -0.2534
18990TIP3    H278386   3.534   1.283   4.231  0.7739 -1.1861  2.0722
18991TIP3   OH278387   3.506   2.252   2.835 -0.4980 -0.4914  0.9260
18991TIP3    H178388   3.464   2.180   2.788 -0.3420  0.1883 -0.2752
18991TIP3    H278389   3.435   2.315   2.850  0.1011  0.9398 -1.6431
18992TIP3   OH278390   4.375   5.858   4.678 -0.0547 -0.3464  0.2403
18992TIP3    H178391   4.358   5.764   4.674  1.8335 -0.7696  0.8535
18992TIP3    H278392   4.314   5.891   4.745 -0.5898 -1.1662  0.1651
18993TIP3   OH278393   5.088   0.625  16.351 -0.5011  0.2048  0.0966
18993TIP3    H178394   5.026   0.661  16.414  0.7950  0.6303  1.1786
18993TIP3    H278395   5.073   0.674  16.271 -1.4395  0.4105  0.3874
18994TIP3   OH278396   3.151   3.243  16.830 -0.4909 -0.6991 -0.3355
18994TIP3    H178397   3.177   3.327  16.868 -1.0743 -0.4050 -0.5771
18994TIP3    H278398   3.058   3.235  16.849 -1.8636  1.2540 -4.7872
18995TIP3   OH278399   4.576   4.527   4.539  0.0960  0.2078  0.3015
18995TIP3    H178400   4.650   4.524   4.600  0.6061  2.1375 -0.1601
18995TIP3    H278401   4.581   4.614   4.499 -0.5728 -0.7660 -2.0764
18996TIP3   OH278402   2.988   1.056   3.264  0.9822  0.2695 -0.3021
18996TIP3    H178403   3.023   1.138   3.231  2.5176 -0.0880  0.3497
18996TIP3    H278404   2.976   1.071   3.358  1.0724 -0.1882 -0.2141
18997TIP3   OH278405   0.178   2.420   5.364 -0.1887  0.1302 -0.3240
18997TIP3    H178406   0.201   2.328   5.352 -2.4807 -0.3310 -1.7427
18997TIP3    H278407   0.102   2.419   5.422  0.5484  1.2569  0.7227
18998TIP3   OH278408   3.226   4.837   5.608 -0.6622  0.1514 -0.0440
18998TIP3    H178409   3.238   4.791   5.525 -1.6017 -0.1687 -0.0187
18998TIP3    H278410   3.212   4.928   5.584 -1.1435  0.0231 -0.2569
18999TIP3   OH278411   1.884   6.028  12.071 -0.4765  0.0646 -0.0446
18999TIP3    H178412   1.929   6.001  11.991  0.1388 -1.2951  0.7196
18999TIP3    H278413   1.950   6.017  12.140 -1.4308 -0.1984  0.8486
19000TIP3   OH278414   6.694   2.132   5.379 -0.2308 -0.3059  0.1694
19000TIP3    H178415   6.763   2.089   5.430 -1.3741  1.2524  3.2980
19000TIP3    H278416   6.661   2.064   5.322  1.9105 -1.9041  0.6909
19001TIP3   OH278417   2.179   1.098   2.998  0.1344  0.1799  0.1409
19001TIP3    H178418   2.087   1.117   2.977 -0.5500 -2.6442  0.1848
19001TIP3    H278419   2.191   1.131   3.087 -1.2034 -0.3890  0.5569
19002TIP3   OH278420   4.300   3.546   2.263 -0.2209  0.3161 -0.2944
19002TIP3    H178421   4.392   3.569   2.257  0.5112 -2.0300  0.6706
19002TIP3    H278422   4.298   3.450   2.258 -2.3734  0.1344  1.7303
19003TIP3   OH278423   1.132   4.576   2.129 -0.4100  0.1027  0.2875
19003TIP3    H178424   1.159   4.510   2.192  1.8027  0.4960 -0.1793
19003TIP3    H278425   1.089   4.526   2.059 -2.0617 -0.4176  1.6135
19004TIP3   OH278426   5.877   6.375  14.884  0.3435  0.1322 -0.6527
19004TIP3    H178427   5.941   6.375  14.955  0.6331 -0.2851 -0.9069
19004TIP3    H278428   5.894   6.457  14.837 -2.0666  2.1597  1.6733
19005TIP3   OH278429   5.836   4.324  16.829 -0.5517 -0.2132  0.4207
19005TIP3    H178430   5.787   4.391  16.876 -0.7223 -1.1887  1.7100
19005TIP3    H278431   5.794   4.242  16.854  0.0361 -0.8606 -0.6337
19006TIP3   OH278432   3.320   4.545   2.411 -0.3247 -0.1552  0.1126
19006TIP3    H178433   3.292   4.559   2.501 -0.1867  1.7600 -0.1178
19006TIP3    H278434   3.389   4.478   2.418 -0.6880 -0.4306  1.3442
19007TIP3   OH278435   4.133   1.276  11.863  0.1521 -0.0988  0.1965
19007TIP3    H178436   4.190   1.214  11.909  1.0590 -1.3040 -2.3945
19007TIP3    H278437   4.193   1.334  11.817 -0.7219  0.5119 -0.1990
19008TIP3   OH278438   3.840   1.719   2.547 -0.0853  0.0420  0.3940
19008TIP3    H178439   3.873   1.690   2.461 -2.0483 -1.2682  0.0210
19008TIP3    H278440   3.764   1.772   2.526 -0.2076  0.2282  1.3120
19009TIP3   OH278441   3.866   5.081  12.680 -0.1240  0.1779  0.0082
19009TIP3    H178442   3.776   5.061  12.655 -0.6703  0.7282  1.4390
19009TIP3    H278443   3.904   4.996  12.703 -1.2247  0.2433  2.2834
19010TIP3   OH278444   5.747   5.566  12.468  0.2660  0.4982 -0.0588
19010TIP3    H178445   5.813   5.619  12.423  0.2078  0.8524  0.2679
19010TIP3    H278446   5.784   5.478  12.470  1.3585  0.9487  1.3117
19011TIP3   OH278447   5.570   5.446  15.939 -0.4823  0.4766 -0.0792
19011TIP3    H178448   5.645   5.398  15.905 -0.2084  0.1698  0.9148
19011TIP3    H278449   5.593   5.538  15.929  0.3114  0.3877  0.7925
19012TIP3   OH278450   5.745   1.171   4.257 -0.1922  0.1079  0.6630
19012TIP3    H178451   5.799   1.235   4.210 -1.1726 -0.1637 -0.8996
19012TIP3    H278452   5.660   1.214   4.266 -0.5863 -0.6124  0.4345
19013TIP3   OH278453   2.514   0.190  10.775  0.3996  1.0030  0.4545
19013TIP3    H178454   2.597   0.153  10.744  0.6475  2.4711 -0.6926
19013TIP3    H278455   2.449   0.125  10.750  1.2534 -0.6426  2.2285
19014TIP3   OH278456   1.826   1.252  14.702 -0.2294 -0.7652  0.5536
19014TIP3    H178457   1.918   1.277  14.704 -0.3438  0.0916 -1.6651
19014TIP3    H278458   1.797   1.257  14.793  1.9112 -1.1092  1.2974
19015TIP3   OH278459   2.936   6.063  16.855 -0.3547  0.0302 -0.2119
19015TIP3    H178460   2.962   6.115  16.931 -2.1241 -0.2826  0.6570
19015TIP3    H278461   2.918   5.976  16.891  1.2998 -0.8747 -1.4331
19016TIP3   OH278462   3.709   0.440   1.926 -0.2400  0.1501  0.0267
19016TIP3    H178463   3.702   0.458   2.019 -2.4245  1.5814 -0.3395
19016TIP3    H278464   3.619   0.434   1.895  0.4032  0.2479 -2.0798
19017TIP3   OH278465   3.637   5.909  14.040  0.2858  0.1381 -0.1968
19017TIP3    H178466   3.581   5.962  14.097 -0.4593 -0.9575  0.1133
19017TIP3    H278467   3.613   5.819  14.060  3.3338 -0.4869  1.1701
19018TIP3   OH278468   1.721   2.678   1.671 -0.1615 -0.3336  0.4712
19018TIP3    H178469   1.751   2.604   1.724 -1.3885 -0.1382  1.5169
19018TIP3    H278470   1.801   2.718   1.638  0.5944 -1.2546  1.1101
19019TIP3   OH278471   1.571   1.610   2.141  0.5159  0.6228  0.3640
19019TIP3    H178472   1.636   1.636   2.207 -0.3054  1.0032  1.0409
19019TIP3    H278473   1.501   1.568   2.191 -0.3581  1.3731 -0.2076
19020TIP3   OH278474   5.474   4.947  16.579 -0.8718  0.3579 -0.3000
19020TIP3    H178475   5.489   5.022  16.636 -2.4141  0.3629  0.1442
19020TIP3    H278476   5.419   4.980  16.508  0.4370  0.1847 -1.4553
19021TIP3   OH278477   0.971   5.454  14.975 -0.1132 -0.0512  0.1188
19021TIP3    H178478   0.949   5.541  14.942  2.6954  0.6587 -0.1689
19021TIP3    H278479   0.976   5.465  15.070  2.1754  0.7112 -0.0251
19022TIP3   OH278480   0.978   6.153  16.963  0.0806 -0.3509  0.2549
19022TIP3    H178481   1.042   6.089  16.996 -1.3339 -1.2603  1.4057
19022TIP3    H278482   0.952   6.119  16.878 -0.8410 -1.5082  0.9621
19023TIP3   OH278483   2.340   6.216   0.429 -0.3574 -0.3566 -0.4545
19023TIP3    H178484   2.326   6.152   0.499 -1.1297  0.0804 -0.1930
19023TIP3    H278485   2.425   6.193   0.392 -0.7646 -1.7379 -0.5864
19024TIP3   OH278486   0.401   0.255   0.035 -0.2275 -0.0662  0.3045
19024TIP3    H178487   0.390   0.309  -0.044  1.1743 -0.8140 -0.4389
19024TIP3    H278488   0.411   0.166   0.002 -0.9546 -0.5913  1.4306
19025TIP3   OH278489   3.346   1.702  16.886  0.5670  0.2158 -0.3587
19025TIP3    H178490   3.378   1.761  16.818 -0.0459 -0.1328 -0.9659
19025TIP3    H278491   3.381   1.616  16.861  1.0604  0.2344  0.2535
19026TIP3   OH278492   6.773   1.000   4.932 -0.6900 -0.1582 -0.1082
19026TIP3    H178493   6.696   0.968   4.884 -0.7495  1.8642 -1.4994
19026TIP3    H278494   6.848   0.965   4.883 -0.7618  0.2925 -0.5613
19027TIP3   OH278495   1.168   2.940  15.027  0.2294 -0.0458 -0.4431
19027TIP3    H178496   1.142   2.920  15.117 -0.0630  1.4158 -0.1646
19027TIP3    H278497   1.137   3.030  15.013  2.0773  0.5276 -1.2776
19028TIP3   OH278498   3.496   3.552   4.967 -0.3332  0.2005  0.1500
19028TIP3    H178499   3.441   3.491   5.016  0.2916 -0.2006  0.3563
19028TIP3    H278500   3.574   3.502   4.944 -0.0258  0.7797 -0.0987
19029TIP3   OH278501   5.955   2.444   2.367 -0.7571  0.1776 -0.2469
19029TIP3    H178502   5.881   2.467   2.312 -1.7415 -0.3132  0.8335
19029TIP3    H278503   5.932   2.476   2.454  1.2529  1.9675 -0.2647
19030TIP3   OH278504   5.454   3.428  16.744  0.1073  0.6964 -0.8062
19030TIP3    H178505   5.361   3.414  16.764 -0.3089  1.9962 -1.7250
19030TIP3    H278506   5.454   3.480  16.663  1.6516  0.1426 -1.1860
19031TIP3   OH278507   1.351   4.657  12.278  0.4079  0.7896  0.3355
19031TIP3    H178508   1.285   4.641  12.346 -0.1862  1.7935  0.0119
19031TIP3    H278509   1.309   4.717  12.217  1.8252  1.9417  0.4286
19032TIP3   OH278510   6.181   6.629   0.050  0.4339 -0.0237 -0.7088
19032TIP3    H178511   6.265   6.596   0.018  0.5686  0.4562 -0.8552
19032TIP3    H278512   6.123   6.553   0.047 -0.4221  0.5664 -4.9333
19033TIP3   OH278513   5.083   1.511  16.225 -0.2386  0.3182  0.3438
19033TIP3    H178514   5.143   1.486  16.155  1.5806 -0.0889  1.9601
19033TIP3    H278515   5.133   1.572  16.280 -2.2523  2.1263  0.3115
19034TIP3   OH278516   1.694   6.221   3.760  0.0262  0.2603 -0.1295
19034TIP3    H178517   1.767   6.253   3.707 -0.0393 -1.1394 -1.1168
19034TIP3    H278518   1.655   6.151   3.708 -1.1654  0.0378  0.9987
19035TIP3   OH278519   6.198   1.219  12.184 -0.4483 -0.3281  0.6974
19035TIP3    H178520   6.221   1.196  12.274  2.1443 -1.5161 -0.1687
19035TIP3    H278521   6.251   1.296  12.164 -0.4520 -0.5033 -0.0291
19036TIP3   OH278522   4.066   3.365  15.883  0.4961  0.1680 -0.6615
19036TIP3    H178523   4.034   3.294  15.939 -0.8982  0.3782 -1.1469
19036TIP3    H278524   4.043   3.337  15.794  0.4359  0.9753 -0.9027
19037TIP3   OH278525   6.279   3.268  12.697  0.6150  0.2907  0.2498
19037TIP3    H178526   6.264   3.298  12.786  0.6622 -1.5307  0.9181
19037TIP3    H278527   6.310   3.178  12.707 -0.9366 -0.5345 -1.6435
19038TIP3   OH278528   0.582   3.184   1.118  0.3780  0.2361 -0.1667
19038TIP3    H178529   0.676   3.186   1.103  0.4592  0.2369  0.3318
19038TIP3    H278530   0.550   3.116   1.058  0.9381 -1.0192  0.9002
19039TIP3   OH278531   5.064   3.121  12.454  0.0724  0.1804  0.5844
19039TIP3    H178532   4.985   3.070  12.468  0.0362 -0.0106 -0.2511
19039TIP3    H278533   5.083   3.162  12.539  0.2572 -1.4357  1.3550
19040TIP3   OH278534   3.254   4.710  11.886  0.3932 -0.2582 -0.4675
19040TIP3    H178535   3.268   4.788  11.832 -1.7531 -2.0920 -4.0542
19040TIP3    H278536   3.336   4.701  11.935  1.5439  3.0113 -1.4708
19041TIP3   OH278537   0.593   6.742   0.938 -0.5471  0.5016  0.2697
19041TIP3    H178538   0.518   6.791   0.974 -1.5136 -0.3422 -0.5349
19041TIP3    H278539   0.584   6.750   0.843  0.7906  0.9441  0.1586
19042TIP3   OH278540   3.265   1.346   1.990  0.3107 -0.0940 -0.3728
19042TIP3    H178541   3.178   1.384   1.981  1.0353  1.2475 -2.5744
19042TIP3    H278542   3.257   1.258   1.953 -0.2732 -0.2867  0.1989
19043TIP3   OH278543   4.108   1.711   0.328  0.1504  0.3633 -0.0097
19043TIP3    H178544   4.111   1.799   0.366 -0.4587  0.6252 -0.5618
19043TIP3    H278545   4.094   1.726   0.234 -1.9711 -0.3630  0.1554
19044TIP3   OH278546   4.527   6.705   4.881 -0.4368  0.3027  0.0648
19044TIP3    H178547   4.594   6.671   4.940 -0.4091 -1.3341 -0.8411
19044TIP3    H278548   4.571   6.717   4.797 -0.8425  1.0630 -0.0517
19045TIP3   OH278549   6.336   1.046   5.357  0.3850 -0.3165  0.3845
19045TIP3    H178550   6.367   1.062   5.268 -0.6106 -2.5253 -0.4481
19045TIP3    H278551   6.261   0.987   5.346 -1.3791  1.3289  2.5404
19046TIP3   OH278552   6.184   5.390   3.634 -0.1282 -0.5070  0.2453
19046TIP3    H178553   6.252   5.334   3.672  0.3982  0.6398  1.0218
19046TIP3    H278554   6.223   5.422   3.552  0.6661  0.8588  1.1142
19047TIP3   OH278555   4.037   2.626  16.857  0.2125 -0.5760 -0.0620
19047TIP3    H178556   4.039   2.682  16.779 -0.3815  0.9897  0.9944
19047TIP3    H278557   3.953   2.647  16.899  1.0948 -0.3881  1.6888
19048TIP3   OH278558   6.043   0.388  13.759 -0.3242  1.1834 -0.0740
19048TIP3    H178559   6.057   0.402  13.666  0.3170  0.4507 -0.0977
19048TIP3    H278560   5.963   0.335  13.764  1.5223 -1.8733 -0.4648
19049TIP3   OH278561   2.364   0.994  13.364 -0.0827 -0.6813  0.3339
19049TIP3    H178562   2.345   1.088  13.361 -0.9154 -0.8775 -1.4172
19049TIP3    H278563   2.358   0.972  13.457 -1.2005  0.7351  0.6334
19050TIP3   OH278564   3.263   2.676  14.264  0.1801 -0.4754  0.2428
19050TIP3    H178565   3.255   2.696  14.171  1.9784  0.9831  0.3439
19050TIP3    H278566   3.209   2.741  14.308  1.1264  0.2884  0.2986
19051TIP3   OH278567   4.759   6.455  10.498  0.3090  0.1340 -0.3587
19051TIP3    H178568   4.745   6.527  10.559  0.9601  1.8523 -2.1302
19051TIP3    H278569   4.854   6.439  10.501 -0.0012 -1.7696  1.1537
19052TIP3   OH278570   3.724   5.612  15.160  0.5396  0.3246 -0.0293
19052TIP3    H178571   3.748   5.704  15.173  0.1697  0.8346 -2.4310
19052TIP3    H278572   3.807   5.566  15.151  0.7400  0.8053 -0.8023
19053TIP3   OH278573   3.853   4.561  16.310  0.0226 -0.3016  0.4232
19053TIP3    H178574   3.866   4.477  16.267  0.1627 -0.0698  0.0053
19053TIP3    H278575   3.941   4.596  16.323  0.0063 -0.5916  1.3515
19054TIP3   OH278576   1.342   5.350  12.239  0.3078  0.4823 -0.1467
19054TIP3    H178577   1.310   5.306  12.318  1.5662 -1.8549 -0.8506
19054TIP3    H278578   1.366   5.279  12.180  0.6823  2.1641 -2.1411
19055TIP3   OH278579   0.832   1.311  12.704 -0.4795  0.3863  0.2961
19055TIP3    H178580   0.874   1.363  12.635 -0.7188  0.7325  0.4067
19055TIP3    H278581   0.903   1.288  12.764 -0.3787  0.6243  0.2679
19056TIP3   OH278582   2.809   0.825   1.714 -0.3804  0.2500  0.2003
19056TIP3    H178583   2.877   0.873   1.666 -0.2484  1.3065  1.3870
19056TIP3    H278584   2.769   0.891   1.771 -1.9949 -0.4885 -0.0121
19057TIP3   OH278585   2.353   3.967  15.954 -0.0527  0.1547  0.3764
19057TIP3    H178586   2.360   3.884  15.907  0.2272 -1.3667  2.9050
19057TIP3    H278587   2.411   4.026  15.906  2.1936 -1.9896  0.2108
19058TIP3   OH278588   2.649   4.068   0.831  0.3564 -0.1447  0.4959
19058TIP3    H178589   2.673   3.975   0.821 -1.4182 -0.7852  1.6133
19058TIP3    H278590   2.625   4.096   0.743 -0.6579 -1.2697  0.3787
19059TIP3   OH278591   6.554   6.737  12.990  0.1616 -0.1148 -0.4602
19059TIP3    H178592   6.623   6.677  12.962 -0.9077 -0.9947 -1.2933
19059TIP3    H278593   6.497   6.746  12.914 -1.2894 -0.3581  0.5501
19060TIP3   OH278594   4.515   3.407   3.786  0.8916  0.3367  0.2428
19060TIP3    H178595   4.437   3.451   3.752  1.5620  2.3304  1.1536
19060TIP3    H278596   4.488   3.316   3.799 -1.7435  1.2423  1.8372
19061TIP3   OH278597   2.011   0.650   2.479 -0.0757 -0.2505 -0.1138
19061TIP3    H178598   2.099   0.622   2.503 -0.0742 -1.2050 -1.1311
19061TIP3    H278599   1.970   0.674   2.561  0.8728 -0.5814  0.4740
19062TIP3   OH278600   3.497   3.629  14.787 -0.3871 -0.4795 -0.0926
19062TIP3    H178601   3.407   3.624  14.754 -0.2019 -0.2666 -0.6576
19062TIP3    H278602   3.551   3.635  14.707  0.0297  0.7411  0.2598
19063TIP3   OH278603   2.739   4.411  14.900 -0.0898 -0.0344  0.5150
19063TIP3    H178604   2.818   4.445  14.858 -0.1166  0.3973  0.8059
19063TIP3    H278605   2.670   4.471  14.875 -0.2105 -0.0785  0.7362
19064TIP3   OH278606   6.288   2.440  17.160  0.2709 -0.1222 -0.3120
19064TIP3    H178607   6.291   2.345  17.146  0.2094 -0.0713 -0.6682
19064TIP3    H278608   6.265   2.477  17.075  0.3604  0.2191 -0.1920
19065TIP3   OH278609   4.496   0.658  16.131  0.2060  0.1116  0.2373
19065TIP3    H178610   4.588   0.672  16.155  0.3933  0.8479 -0.8287
19065TIP3    H278611   4.490   0.565  16.112  0.8738  0.1608 -0.2465
19066TIP3   OH278612   3.060   3.541  14.427 -0.4898  0.1542  0.2481
19066TIP3    H178613   2.998   3.525  14.498  1.4738 -0.0047  2.0442
19066TIP3    H278614   3.082   3.453  14.395 -2.4852  0.2737 -1.6861
19067TIP3   OH278615   1.332   4.653  10.952 -0.5241  0.5848 -0.2438
19067TIP3    H178616   1.420   4.689  10.969 -0.4228 -0.0353  0.6052
19067TIP3    H278617   1.329   4.642  10.857  0.9947 -1.0334 -0.1506
19068TIP3   OH278618   4.359   6.223   5.585  0.5385  0.0444  0.2702
19068TIP3    H178619   4.293   6.238   5.518  0.3557 -1.8076 -0.0140
19068TIP3    H278620   4.360   6.128   5.597  2.4524  0.1054  0.9665
19069TIP3   OH278621   0.744   1.372  13.827 -0.0090 -0.1098  0.0436
19069TIP3    H178622   0.771   1.291  13.869 -1.7239  0.3362  2.2421
19069TIP3    H278623   0.673   1.347  13.769  0.3739 -0.3413 -0.3314
19070TIP3   OH278624   5.032   0.769  14.506 -0.0393 -0.3676 -0.3660
19070TIP3    H178625   5.086   0.698  14.540  0.5199 -0.3733 -1.2509
19070TIP3    H278626   5.028   0.754  14.412 -1.8065 -0.5163 -0.3100
19071TIP3   OH278627   2.099   2.540  14.737 -0.3759 -0.0244  0.4236
19071TIP3    H178628   2.188   2.566  14.711  0.6273  0.8593  4.1387
19071TIP3    H278629   2.046   2.618  14.725  0.5867  1.1088  2.8919
19072TIP3   OH278630   2.046   2.044   0.887 -0.1160  0.0477 -0.2985
19072TIP3    H178631   2.101   2.122   0.877  0.1489 -0.1795 -0.6339
19072TIP3    H278632   2.070   2.008   0.972  0.0189  0.1329 -0.3008
19073TIP3   OH278633   0.374   5.658   4.258 -0.1008  0.3041  0.1620
19073TIP3    H178634   0.335   5.709   4.187 -1.4184 -1.3041 -0.3471
19073TIP3    H278635   0.457   5.626   4.222 -1.0291 -0.9918 -0.9367
19074TIP3   OH278636   5.443   6.066   3.860  0.1447  0.6194  0.0953
19074TIP3    H178637   5.355   6.031   3.858  0.1264  0.6547  0.2811
19074TIP3    H278638   5.440   6.142   3.802  0.3812 -0.1358 -0.9461
19075TIP3   OH278639   4.665   3.443  14.204  0.7953 -0.4059  0.0922
19075TIP3    H178640   4.663   3.430  14.109  2.6862 -0.1201 -0.0314
19075TIP3    H278641   4.618   3.525  14.218 -2.1108 -1.8720 -0.2190
19076TIP3   OH278642   3.245   4.673   5.376  0.4825  0.3476 -0.1232
19076TIP3    H178643   3.281   4.585   5.379 -0.8529 -0.2029  1.0448
19076TIP3    H278644   3.197   4.678   5.294 -0.5666 -0.5225  0.4100
19077TIP3   OH278645   2.053   0.617  15.701 -0.4673  0.4780  0.1481
19077TIP3    H178646   2.032   0.680  15.770 -1.8277  0.0058  0.1942
19077TIP3    H278647   1.974   0.565  15.691  1.3000 -2.8346  1.7537
19078TIP3   OH278648   0.993   4.277   5.462 -0.2444  0.5049  0.2085
19078TIP3    H178649   0.897   4.271   5.466 -0.2727  0.8595  0.0893
19078TIP3    H278650   1.018   4.216   5.393 -0.4257  0.7718 -0.1002
19079TIP3   OH278651   4.973   6.539  16.070 -0.2220  0.3364 -0.3149
19079TIP3    H178652   4.924   6.593  16.132  0.1086  1.1897 -0.7962
19079TIP3    H278653   4.922   6.542  15.989  0.3534  0.7927 -0.6589
19080TIP3   OH278654   0.841   5.649  13.990  0.3271 -0.0116 -0.1614
19080TIP3    H178655   0.780   5.584  13.956 -0.4864  1.6889 -2.1931
19080TIP3    H278656   0.790   5.701  14.052  1.1507 -1.5997  1.9634
19081TIP3   OH278657   1.029   0.894  14.708 -0.5317  0.2519  0.7291
19081TIP3    H178658   1.087   0.826  14.744 -0.4758  0.4296  0.9777
19081TIP3    H278659   0.955   0.896  14.769 -0.5100  0.4484  0.7477
19082TIP3   OH278660   1.953   1.153   4.384  0.5089  0.0127  0.5665
19082TIP3    H178661   1.940   1.190   4.471  0.5837  0.1423  0.5220
19082TIP3    H278662   2.035   1.191   4.353  1.1442 -1.0075  0.9547
19083TIP3   OH278663   3.954   2.223   5.690 -0.1202  0.6244 -0.6614
19083TIP3    H178664   3.922   2.181   5.610  1.1130  1.7445 -1.7923
19083TIP3    H278665   4.006   2.297   5.660  1.0024  0.6551  1.1675
19084TIP3   OH278666   2.373   0.373  13.462  0.2530 -0.3977  0.2649
19084TIP3    H178667   2.306   0.381  13.395  1.0117 -0.0358 -0.4649
19084TIP3    H278668   2.347   0.435  13.530  1.2656  1.8356 -1.2557
19085TIP3   OH278669   3.559   4.605   5.113  0.3162  0.0035 -0.2658
19085TIP3    H178670   3.575   4.671   5.180  0.7445  1.7430 -1.9900
19085TIP3    H278671   3.501   4.541   5.155  1.3718  0.4662  2.0424
19086TIP3   OH278672   3.537   4.704  14.916  0.1719 -0.9265  0.3041
19086TIP3    H178673   3.606   4.641  14.935  0.5234 -0.0880  2.0065
19086TIP3    H278674   3.569   4.786  14.952 -0.5727  0.0962 -1.2559
19087TIP3   OH278675   3.519   5.004   2.013  0.1353 -0.4880  0.5154
19087TIP3    H178676   3.436   4.963   2.038 -1.4063  0.8225 -1.9916
19087TIP3    H278677   3.502   5.098   2.021  1.7215 -0.2078  0.8434
19088TIP3   OH278678   1.826   1.685   2.297  0.2602  0.1140  0.5542
19088TIP3    H178679   1.861   1.600   2.322 -0.6339 -0.4672 -0.1017
19088TIP3    H278680   1.889   1.749   2.332  1.2102 -0.8273  0.6087
19089TIP3   OH278681   0.479   1.096   3.022  0.1217  0.2431  0.1223
19089TIP3    H178682   0.556   1.073   3.073  1.6359 -0.6123 -2.3834
19089TIP3    H278683   0.425   1.016   3.024 -0.0377  0.3622  0.7157
19090TIP3   OH278684   0.685   5.306  12.349 -0.6161 -0.5916 -0.0580
19090TIP3    H178685   0.658   5.311  12.440 -0.0795 -0.6051  0.1019
19090TIP3    H278686   0.781   5.305  12.351 -0.4954 -4.6546 -0.3889
19091TIP3   OH278687   5.580   3.084  12.103 -0.2297  0.4076 -0.2691
19091TIP3    H178688   5.620   3.054  12.021 -0.8069 -0.4169 -0.2600
19091TIP3    H278689   5.530   3.162  12.077  0.9276  1.1430 -0.3744
19092TIP3   OH278690   2.436   6.018  14.052 -0.9867  0.6534 -0.0745
19092TIP3    H178691   2.435   6.090  13.990 -1.6002  0.9496  0.2737
19092TIP3    H278692   2.466   5.943  14.001  1.0452  1.4222 -0.1272
19093TIP3   OH278693   3.377   2.175   0.858 -0.4750 -0.2463  0.2937
19093TIP3    H178694   3.422   2.092   0.871 -0.5932 -0.3966 -0.2228
19093TIP3    H278695   3.287   2.150   0.837 -0.2781 -0.0369 -0.8736
19094TIP3   OH278696   0.414   5.813  15.966  0.6064  0.0107  0.5896
19094TIP3    H178697   0.467   5.737  15.991  1.1168 -0.4376 -1.6434
19094TIP3    H278698   0.478   5.877  15.934 -0.0428  0.1430 -0.4888
19095TIP3   OH278699   5.675   6.281  15.051 -0.0236  0.4992  0.8610
19095TIP3    H178700   5.729   6.262  15.128 -0.9272 -0.4755  1.2705
19095TIP3    H278701   5.736   6.321  14.989  0.7523  1.1962  2.0183
19096TIP3   OH278702   6.426   3.048   4.364  0.1808 -0.9057 -0.1511
19096TIP3    H178703   6.433   3.135   4.326 -0.4762 -1.4108 -1.4978
19096TIP3    H278704   6.510   3.034   4.408  0.3882  0.2965 -0.1405
19097TIP3   OH278705   6.561   6.381   1.776  0.1996  0.9122 -0.1802
19097TIP3    H178706   6.555   6.318   1.704  1.2832  0.4847  0.0727
19097TIP3    H278707   6.585   6.464   1.734 -1.0925  1.1473 -0.4998
19098TIP3   OH278708   4.581   2.156  12.285  0.3076  0.0397 -0.3227
19098TIP3    H178709   4.501   2.124  12.243  0.6596  0.4884 -1.3690
19098TIP3    H278710   4.611   2.083  12.339 -1.9444  0.5587  1.8204
19099TIP3   OH278711   3.082   1.860   5.315  0.0872 -0.1966  0.0624
19099TIP3    H178712   3.043   1.818   5.392 -0.7936  0.3086 -0.0928
19099TIP3    H278713   3.166   1.816   5.303  0.1066 -0.4796  1.1422
19100TIP3   OH278714   5.608   5.303  10.775 -0.0952  0.4012  0.1167
19100TIP3    H178715   5.642   5.224  10.734  0.7929  1.4497 -1.2428
19100TIP3    H278716   5.677   5.368  10.764 -0.5058  1.2010  1.8479
19101TIP3   OH278717   5.328   3.006  12.723 -0.4097  0.8384  0.0599
19101TIP3    H178718   5.403   3.049  12.681  0.0215  0.5420  0.5149
19101TIP3    H278719   5.365   2.961  12.799 -0.9491  0.1673 -0.0602
19102TIP3   OH278720   6.277   0.963  12.038 -0.3072 -0.1087 -0.1421
19102TIP3    H178721   6.247   1.052  12.060 -0.1768  0.2294 -1.2571
19102TIP3    H278722   6.359   0.977  11.990 -0.8507 -0.7585 -1.3043
19103TIP3   OH278723   1.385   0.643  16.186 -0.0935 -0.3623 -0.0561
19103TIP3    H178724   1.457   0.580  16.177 -0.2447 -0.3575 -1.5625
19103TIP3    H278725   1.314   0.593  16.225 -0.2003 -1.1288 -1.1985
19104TIP3   OH278726   0.185   3.537  16.867 -0.6935 -0.3321 -0.0023
19104TIP3    H178727   0.147   3.484  16.796 -0.4809  0.2721 -0.5692
19104TIP3    H278728   0.163   3.488  16.947 -0.8796 -1.0510 -0.4825
19105TIP3   OH278729   0.163   1.342  12.045  0.1386 -0.3117  0.4563
19105TIP3    H178730   0.202   1.311  11.963  0.6398 -0.6530  0.8250
19105TIP3    H278731   0.086   1.393  12.016  0.7305  0.1985 -0.2588
19106TIP3   OH278732   2.655   3.036  14.787 -0.2849  0.2770  0.4603
19106TIP3    H178733   2.576   3.054  14.839  0.1500  2.1838  0.5425
19106TIP3    H278734   2.648   3.096  14.713 -0.4271 -1.7360 -1.2582
19107TIP3   OH278735   4.252   3.017   4.848 -0.0411 -0.1570 -0.2122
19107TIP3    H178736   4.198   3.096   4.855 -0.6854 -0.6451  0.6037
19107TIP3    H278737   4.335   3.040   4.889 -1.3824 -0.8591  3.2977
19108TIP3   OH278738   5.734   6.517  15.915 -0.5009  0.6728 -0.3442
19108TIP3    H178739   5.805   6.512  15.852 -0.4399  1.5222 -0.3534
19108TIP3    H278740   5.655   6.499  15.864 -0.4672  1.4933 -0.7032
19109TIP3   OH278741   3.765   6.076   4.835 -0.4858 -0.1108 -1.0878
19109TIP3    H178742   3.805   5.989   4.839 -1.3888 -0.4914  0.3031
19109TIP3    H278743   3.735   6.092   4.925 -1.1981  1.2219 -1.5517
19110TIP3   OH278744   3.348   6.236   0.068  0.1400  0.5221  0.3241
19110TIP3    H178745   3.306   6.304   0.015 -2.2092  0.5132  2.0088
19110TIP3    H278746   3.290   6.226   0.144  1.7815 -1.5665  1.3974
19111TIP3   OH278747   1.496   0.433   1.322  0.4135 -0.1690 -0.1692
19111TIP3    H178748   1.473   0.349   1.362 -0.2119  0.4040  0.7004
19111TIP3    H278749   1.431   0.494   1.355 -0.4098  0.2574 -2.4555
19112TIP3   OH278750   0.104   3.105   6.377 -0.0672 -0.3429  0.0077
19112TIP3    H178751   0.089   3.119   6.470  1.5193 -2.2842  0.6147
19112TIP3    H278752   0.130   3.191   6.344 -1.8667  0.6597  1.0425
19113TIP3   OH278753   3.946   2.798  12.840 -0.2225  0.2626 -0.1540
19113TIP3    H178754   4.024   2.849  12.816 -1.0107  0.5997 -2.1509
19113TIP3    H278755   3.958   2.713  12.799 -0.8351  0.2662 -0.3565
19114TIP3   OH278756   2.206   2.908   3.455  0.0440  0.1051 -0.0573
19114TIP3    H178757   2.252   2.973   3.507  0.0566 -0.5384  0.7622
19114TIP3    H278758   2.247   2.825   3.480 -0.2668 -0.2689 -0.7564
19115TIP3   OH278759   6.176   5.260  15.258 -0.2818 -0.5024 -0.1862
19115TIP3    H178760   6.226   5.255  15.176  0.2294 -1.9455  0.1850
19115TIP3    H278761   6.160   5.353  15.270 -0.6589 -0.2734 -2.1052
19116TIP3   OH278762   6.508   2.052  14.113  0.3360  0.2063  0.1696
19116TIP3    H178763   6.534   2.131  14.066  1.1652 -1.1657 -1.8106
19116TIP3    H278764   6.590   2.016  14.148  0.8095 -2.0821 -2.8188
19117TIP3   OH278765   1.438   0.173  11.558  0.0439  0.7743 -0.1576
19117TIP3    H178766   1.522   0.145  11.594  0.0479  0.5196 -0.3544
19117TIP3    H278767   1.449   0.166  11.463 -1.1848 -2.4175 -0.2085
19118TIP3   OH278768   3.311   5.732   0.099  0.0018 -0.1465  0.2578
19118TIP3    H178769   3.265   5.749   0.181  2.0668  1.5499  1.1772
19118TIP3    H278770   3.366   5.810   0.086 -0.1261 -0.4209 -2.6731
19119TIP3   OH278771   2.306   4.138   0.404 -0.0012  0.5113 -0.2423
19119TIP3    H178772   2.342   4.130   0.492 -1.1219 -1.6476  0.0847
19119TIP3    H278773   2.212   4.154   0.417 -0.8513 -3.0810 -0.8784
19120TIP3   OH278774   3.559   3.158  14.692 -0.3542 -0.0629 -0.0144
19120TIP3    H178775   3.536   3.128  14.780  0.5383  0.4084  0.3911
19120TIP3    H278776   3.615   3.089  14.657  0.6995  0.5347  0.4546
19121TIP3   OH278777   2.237   2.249   1.875 -0.5237 -0.0816  0.2891
19121TIP3    H178778   2.319   2.269   1.829 -0.6646  1.5121  0.6587
19121TIP3    H278779   2.178   2.216   1.807  0.5309 -1.6914  0.0939
19122TIP3   OH278780   3.080   1.634  14.606  0.2578 -0.6967 -0.0735
19122TIP3    H178781   3.056   1.572  14.537 -1.4443 -1.3253  1.0029
19122TIP3    H278782   3.002   1.637  14.662  1.0111  0.9972  0.9420
19123TIP3   OH278783   2.293   3.604   0.433 -0.0868 -0.0296 -0.2350
19123TIP3    H178784   2.282   3.634   0.343  1.2361 -0.1733 -0.4604
19123TIP3    H278785   2.372   3.650   0.464 -2.2866  2.6617  1.9931
19124TIP3   OH278786   4.861   4.240   0.072 -0.1433  0.1402 -0.2671
19124TIP3    H178787   4.928   4.301   0.104  0.4912 -0.2082 -0.9200
19124TIP3    H278788   4.901   4.154   0.081  0.3975  0.0598 -2.7169
19125TIP3   OH278789   5.881   4.016   0.609 -0.0595 -0.2013  0.0914
19125TIP3    H178790   5.845   3.930   0.633  1.6031 -1.0794 -0.3819
19125TIP3    H278791   5.879   4.066   0.690 -1.0591 -0.6825  0.3797
19126TIP3   OH278792   4.856   1.668   5.888  0.3304  0.6160  0.2162
19126TIP3    H178793   4.833   1.622   5.807  0.9151  2.1200 -0.8390
19126TIP3    H278794   4.775   1.668   5.939 -0.2514  0.2885 -0.6814
19127TIP3   OH278795   0.394   4.399   1.680 -0.3207  0.0597  0.5954
19127TIP3    H178796   0.400   4.480   1.730  1.0058  1.7841 -2.1017
19127TIP3    H278797   0.459   4.409   1.610 -1.2238 -2.6676 -0.7866
19128TIP3   OH278798   6.361   1.339   0.815 -0.0202 -0.9623  0.6137
19128TIP3    H178799   6.446   1.355   0.774  0.2796 -1.5958  0.9660
19128TIP3    H278800   6.297   1.378   0.755  0.3357 -2.5769 -0.9031
19129TIP3   OH278801   1.389   5.272  16.789  0.2152  0.6717 -0.4387
19129TIP3    H178802   1.328   5.285  16.862  0.3929 -0.2296 -0.1178
19129TIP3    H278803   1.413   5.361  16.762 -0.2007  1.0235  0.3097
19130TIP3   OH278804   2.134   3.512  11.669 -0.0469  0.1189  0.0842
19130TIP3    H178805   2.060   3.571  11.653  0.1152  0.2358 -0.2456
19130TIP3    H278806   2.203   3.544  11.610  0.4081  0.2758  0.6938
19131TIP3   OH278807   2.893   5.396   4.653 -0.0684 -0.1845  0.2789
19131TIP3    H178808   2.962   5.363   4.710 -0.5754 -0.4490  0.7499
19131TIP3    H278809   2.825   5.427   4.713 -0.3495  0.0947 -0.1776
19132TIP3   OH278810   4.925   0.197   6.186  0.4394 -0.1345 -0.4157
19132TIP3    H178811   5.005   0.237   6.221  0.4907 -1.0422  0.5726
19132TIP3    H278812   4.953   0.154   6.106  0.7151  0.4572 -0.6412
19133TIP3   OH278813   4.362   2.582   5.237  0.8859 -0.2135 -0.4144
19133TIP3    H178814   4.308   2.535   5.174 -0.4509 -0.5137  0.8924
19133TIP3    H278815   4.351   2.674   5.214 -0.2018 -0.2741 -0.1928
19134TIP3   OH278816   0.260   2.688  10.186  0.1143  0.3431 -0.3807
19134TIP3    H178817   0.338   2.642  10.155 -0.6535 -1.0803 -0.2613
19134TIP3    H278818   0.239   2.647  10.269 -0.1731  1.4294  0.1028
19135TIP3   OH278819   4.547   2.053  15.494  0.0047 -0.1512  0.4455
19135TIP3    H178820   4.584   2.131  15.453 -1.8443  0.7559  0.3771
19135TIP3    H278821   4.476   2.026  15.435 -0.9398 -0.4397  1.6579
19136TIP3   OH278822   2.570   1.036   2.307 -0.2694 -0.2706  0.7239
19136TIP3    H178823   2.654   0.990   2.309 -0.1998 -0.1696  0.2637
19136TIP3    H278824   2.524   1.006   2.385 -0.1369 -0.9583  0.5407
19137TIP3   OH278825   1.111   0.260  16.033  0.8388  0.3343 -0.3799
19137TIP3    H178826   1.078   0.248  15.944 -1.5965  0.9845  0.3571
19137TIP3    H278827   1.117   0.355  16.044  0.4937  0.2808  0.3505
19138TIP3   OH278828   1.186   5.905  15.258 -0.4503  0.1159 -0.7253
19138TIP3    H178829   1.231   5.860  15.329  4.1235 -0.4232 -3.5458
19138TIP3    H278830   1.192   5.998  15.281 -1.0130 -0.1266  0.5064
19139TIP3   OH278831   3.045   0.005   0.083 -0.5858  0.2839 -0.3825
19139TIP3    H178832   2.957  -0.003   0.120 -0.8120  0.1387 -0.9378
19139TIP3    H278833   3.091  -0.074   0.112 -0.7651  0.1617 -0.4329
19140TIP3   OH278834   3.840   2.719   5.223  0.2827  0.5840 -0.4761
19140TIP3    H178835   3.867   2.638   5.180 -0.2504 -0.8355  1.6962
19140TIP3    H278836   3.745   2.716   5.222  0.2620  0.6680  0.5073
19141TIP3   OH278837   6.773   3.579   0.203  0.4479  0.1318 -0.0945
19141TIP3    H178838   6.729   3.646   0.255  0.1483 -0.5411  0.5425
19141TIP3    H278839   6.866   3.601   0.208  0.1877  2.0444 -2.1197
19142TIP3   OH278840   0.114   0.841   1.450  0.2555  0.6878 -0.1300
19142TIP3    H178841   0.079   0.891   1.377  0.9007  0.7409 -0.4073
19142TIP3    H278842   0.160   0.905   1.504 -0.8780  0.7980  0.7632
19143TIP3   OH278843   2.649   4.841   4.253 -0.3486 -0.5619 -0.3709
19143TIP3    H178844   2.723   4.901   4.262 -0.0088 -0.6641 -2.1963
19143TIP3    H278845   2.657   4.806   4.165 -2.4640 -0.7400 -0.5436
19144TIP3   OH278846   3.740   6.265   4.581 -0.4608  0.0997  0.0290
19144TIP3    H178847   3.754   6.292   4.672 -2.3451 -2.3932  1.1601
19144TIP3    H278848   3.827   6.272   4.541  0.8380 -0.4790  2.5337
19145TIP3   OH278849   1.576   4.592  16.984  0.4728  0.2433  0.0416
19145TIP3    H178850   1.531   4.618  17.064  1.8282  3.6386 -0.1601
19145TIP3    H278851   1.542   4.652  16.917  0.4731 -1.5306 -1.6480
19146TIP3   OH278852   6.726   1.681  10.654 -0.1187 -0.5145 -0.5927
19146TIP3    H178853   6.705   1.588  10.643 -1.0326 -0.1720 -1.9525
19146TIP3    H278854   6.712   1.720  10.568  0.7176  0.8124 -0.1655
19147TIP3   OH278855   6.374   2.430  13.126 -0.2250 -0.5426  0.4067
19147TIP3    H178856   6.353   2.517  13.160 -0.9357 -0.3503 -0.4753
19147TIP3    H278857   6.315   2.371  13.172 -0.7797 -0.3570 -0.0511
19148TIP3   OH278858   4.273   1.862   1.220  0.0439  0.1484  0.5312
19148TIP3    H178859   4.222   1.943   1.218  0.0298  0.1309 -0.1571
19148TIP3    H278860   4.208   1.793   1.209  0.2707  0.1679 -1.3794
19149TIP3   OH278861   0.129   1.599   4.072  0.4911 -0.3045  0.8257
19149TIP3    H178862   0.081   1.550   4.006  0.4010  0.3389  0.4016
19149TIP3    H278863   0.171   1.532   4.127  1.9009 -0.8650 -0.8539
19150TIP3   OH278864   2.095   4.342  12.801  0.6551  0.1665  0.1474
19150TIP3    H178865   2.048   4.412  12.847  0.6820 -0.3348  0.9468
19150TIP3    H278866   2.026   4.282  12.774  0.8071 -0.4896  1.1823
19151TIP3   OH278867   0.483   1.944  11.664  0.2575  0.0725  0.2479
19151TIP3    H178868   0.516   1.988  11.743  0.1571  1.3864 -0.4198
19151TIP3    H278869   0.458   1.857  11.694  0.6048  0.4122  1.5881
19152TIP3   OH278870   3.681   4.431   4.052 -0.2185  0.2204 -0.5279
19152TIP3    H178871   3.591   4.420   4.023 -0.3515 -0.9178  0.2348
19152TIP3    H278872   3.675   4.441   4.147  0.4249  0.7298 -0.5277
19153TIP3   OH278873   4.104   5.999   1.468 -0.3438  0.0085 -0.0044
19153TIP3    H178874   4.167   5.928   1.481  0.1374  0.3779 -0.2784
19153TIP3    H278875   4.041   5.963   1.406 -1.9363 -1.3079  2.2091
19154TIP3   OH278876   1.499   5.927  11.459 -0.1012  0.3842  0.3726
19154TIP3    H178877   1.551   5.955  11.535 -0.0524  1.9893 -0.2255
19154TIP3    H278878   1.565   5.908  11.392 -0.1558 -0.8191  0.6383
19155TIP3   OH278879   1.134   6.595  13.081 -0.8259  0.1898 -0.2710
19155TIP3    H178880   1.065   6.528  13.084 -2.8910  2.0950 -1.6258
19155TIP3    H278881   1.109   6.657  13.150  0.0303  0.5026 -0.2363
19156TIP3   OH278882   1.734   1.944   3.439 -0.1746  0.7721 -0.1518
19156TIP3    H178883   1.738   1.891   3.359 -1.4127  0.3070  0.0847
19156TIP3    H278884   1.654   1.995   3.430  0.0860  1.2912  0.4418
19157TIP3   OH278885   3.214   0.667  14.601  0.6745  0.3437 -0.3217
19157TIP3    H178886   3.213   0.592  14.661 -2.0653  0.3031 -0.2942
19157TIP3    H278887   3.234   0.629  14.515  2.5839  0.1123  0.1797
19158TIP3   OH278888   4.562   1.423  17.023  0.0680 -0.2003  0.7995
19158TIP3    H178889   4.582   1.374  16.943 -0.8609  0.4785  0.1310
19158TIP3    H278890   4.585   1.363  17.094 -1.1521 -1.6872  0.0037
19159TIP3   OH278891   0.891   2.423  16.652 -0.0679 -0.2769  0.4550
19159TIP3    H178892   0.947   2.482  16.703 -0.4340 -0.0099  0.5521
19159TIP3    H278893   0.952   2.373  16.598  0.2679 -0.0221  0.5938
19160TIP3   OH278894   6.759   4.247   4.715  0.8819  0.0421 -0.0740
19160TIP3    H178895   6.829   4.285   4.663  0.1342 -0.9698 -1.9489
19160TIP3    H278896   6.800   4.222   4.798  2.3525  0.8815 -0.5217
19161TIP3   OH278897   4.551   0.366  15.684 -0.2795 -0.2082  0.3733
19161TIP3    H178898   4.564   0.382  15.591 -0.2041 -3.0493 -0.1773
19161TIP3    H278899   4.629   0.404  15.726  0.8340 -0.9258 -0.9758
19162TIP3   OH278900   5.044   0.772   5.690  0.5935  0.0623 -0.2140
19162TIP3    H178901   4.968   0.800   5.640 -0.2114 -0.4604  0.6858
19162TIP3    H278902   5.096   0.720   5.629  0.5470  0.9290 -1.0094
19163TIP3   OH278903   2.226   3.466  14.991  0.4969 -0.0229 -0.5173
19163TIP3    H178904   2.194   3.556  14.999 -0.8369 -0.5340  0.2609
19163TIP3    H278905   2.214   3.444  14.899  0.5961  0.5116 -0.6598
19164TIP3   OH278906   6.328   2.112  17.095  0.0501  0.8021 -0.4214
19164TIP3    H178907   6.373   2.080  17.016  1.2625 -0.5623  0.7670
19164TIP3    H278908   6.237   2.124  17.067  0.6091  1.1512 -2.2296
19165TIP3   OH278909   6.154   1.116   4.548  0.3493  0.6726  0.3768
19165TIP3    H178910   6.116   1.192   4.505  0.0371  0.4078  0.1881
19165TIP3    H278911   6.162   1.051   4.479 -0.2792  0.1989  0.7502
19166TIP3   OH278912   4.559   3.329  16.894 -0.5754 -0.3817  0.0036
19166TIP3    H178913   4.640   3.334  16.946 -0.7269  1.1587  0.1379
19166TIP3    H278914   4.572   3.394  16.824 -1.6467 -0.2240 -0.0554
19167TIP3   OH278915   1.505   6.096   0.084  0.3718 -0.2047 -0.6546
19167TIP3    H178916   1.521   6.067   0.173 -0.5882 -0.0952 -0.4285
19167TIP3    H278917   1.523   6.190   0.086 -1.1718  0.1179 -0.1449
19168TIP3   OH278918   6.765   1.562   2.180  0.3946  0.3275  0.3063
19168TIP3    H178919   6.849   1.591   2.145  0.0980  0.4380 -0.3307
19168TIP3    H278920   6.787   1.509   2.257  1.0216  0.7203  0.3987
19169TIP3   OH278921   3.653   6.408  11.383  1.1247 -0.5322  0.3579
19169TIP3    H178922   3.680   6.448  11.466 -0.0817 -1.7076  1.3676
19169TIP3    H278923   3.596   6.335  11.409 -1.5614  0.7368 -1.5528
19170TIP3   OH278924   5.284   0.965  14.384 -0.1610  0.4194  0.2488
19170TIP3    H178925   5.368   0.976  14.339  0.3239 -0.8784  0.7845
19170TIP3    H278926   5.293   0.882  14.432 -1.2821  0.9055  1.3553
19171TIP3   OH278927   4.169   1.361  14.965 -0.3559 -0.1872  0.3860
19171TIP3    H178928   4.195   1.277  15.004  1.9343 -0.6732 -1.9309
19171TIP3    H278929   4.121   1.337  14.886  0.7141  0.6248 -0.5455
19172TIP3   OH278930   1.850   1.312   3.090 -0.7495  0.3304  0.5145
19172TIP3    H178931   1.891   1.394   3.061  2.6628 -1.1148  0.7036
19172TIP3    H278932   1.860   1.253   3.015 -0.1465 -0.8035  1.4506
19173TIP3   OH278933   4.320   1.260   1.792 -0.5182 -0.0193 -0.2711
19173TIP3    H178934   4.236   1.272   1.749 -0.5270  0.8178 -0.0394
19173TIP3    H278935   4.318   1.321   1.866  0.1313 -0.2790 -0.0301
19174TIP3   OH278936   5.763   6.530  11.283  0.8643  0.3393 -0.2654
19174TIP3    H178937   5.853   6.540  11.252  1.1794 -0.2935  0.4272
19174TIP3    H278938   5.730   6.620  11.290  1.2812  0.5595 -0.9470
19175TIP3   OH278939   1.564   4.584   5.652  0.1135 -0.0434 -0.4650
19175TIP3    H178940   1.600   4.639   5.723  0.6287 -1.6553  0.5739
19175TIP3    H278941   1.502   4.641   5.607  0.3881  1.2945  0.7642
19176TIP3   OH278942   0.088   0.334   4.536 -0.2044 -0.0554  0.2216
19176TIP3    H178943   0.166   0.356   4.484 -0.2996  0.1444  0.1638
19176TIP3    H278944   0.033   0.283   4.477  1.0183 -2.4494  1.0201
19177TIP3   OH278945   5.587   6.561  12.088 -0.2712 -0.3591  0.1581
19177TIP3    H178946   5.539   6.640  12.063  0.3940 -0.5767 -2.0676
19177TIP3    H278947   5.543   6.491  12.040  0.9165 -0.8823 -0.1830
19178TIP3   OH278948   4.790   6.704  11.928 -0.2000  0.4236  0.2712
19178TIP3    H178949   4.732   6.779  11.933 -0.3086  0.3019  1.1120
19178TIP3    H278950   4.733   6.630  11.907 -0.1370  0.5231 -0.2631
19179TIP3   OH278951   2.374   4.828   1.891  0.0950  0.4412 -0.8532
19179TIP3    H178952   2.358   4.781   1.809  0.1116  0.3684 -0.8143
19179TIP3    H278953   2.296   4.811   1.944 -0.0430  0.7174 -0.9607
19180TIP3   OH278954   1.067   0.354   2.479  0.4046 -0.1051  0.2685
19180TIP3    H178955   1.060   0.375   2.386  1.5266 -1.5573 -0.1816
19180TIP3    H278956   1.078   0.259   2.481 -1.3020 -0.3295  1.9946
19181TIP3   OH278957   0.519   3.440   3.830  0.0216  0.2562 -0.5986
19181TIP3    H178958   0.577   3.499   3.878  0.6594 -0.5295 -0.3784
19181TIP3    H278959   0.566   3.421   3.749  0.3356 -0.8174 -0.1790
19182TIP3   OH278960   4.139   3.066   5.403  0.0513  0.4123  0.2161
19182TIP3    H178961   4.185   3.133   5.351 -0.0800  0.4729  0.1774
19182TIP3    H278962   4.103   3.114   5.478  2.1186 -0.0345  1.5696
19183TIP3   OH278963   2.147   3.064  12.352 -0.3283  0.1228  0.1608
19183TIP3    H178964   2.190   3.092  12.270 -2.7506  2.9495 -0.3297
19183TIP3    H278965   2.194   3.112  12.420 -1.9201  2.5311 -0.2900
19184TIP3   OH278966   3.388   5.381   2.843 -0.4401  0.3454  0.0152
19184TIP3    H178967   3.364   5.443   2.912  0.8393 -0.1358  0.9393
19184TIP3    H278968   3.424   5.435   2.773 -0.3833  0.7290  0.3362
19185TIP3   OH278969   5.881   0.012  14.197  0.3898 -0.4254  0.2734
19185TIP3    H178970   5.807  -0.000  14.138 -0.8368 -0.0305  1.6421
19185TIP3    H278971   5.846  -0.011  14.283  1.1351  1.9729  1.3151
19186TIP3   OH278972   1.657   4.383   5.808  0.7409  0.5086  0.0050
19186TIP3    H178973   1.604   4.437   5.749  0.3902  0.1863  0.0195
19186TIP3    H278974   1.681   4.441   5.880 -0.5739  0.3513  0.5894
19187TIP3   OH278975   4.665   3.813   0.200  0.2168  0.3732 -0.1483
19187TIP3    H178976   4.641   3.900   0.170  1.2906  0.4445 -0.8825
19187TIP3    H278977   4.658   3.817   0.295 -2.9602  0.2429 -0.2870
19188TIP3   OH278978   3.211   3.154   1.181 -0.1604 -0.2352  0.6041
19188TIP3    H178979   3.147   3.086   1.158 -1.0157  0.8602 -0.3701
19188TIP3    H278980   3.197   3.223   1.116  2.0892  0.0222  0.3143
19189TIP3   OH278981   0.884   0.143   6.306 -0.6632 -0.1367  0.4831
19189TIP3    H178982   0.931   0.189   6.236 -0.9092 -0.2988  0.2077
19189TIP3    H278983   0.925   0.057   6.309 -0.7539 -0.1818  0.4338
19190TIP3   OH278984   5.524   4.970   3.076  0.7371 -0.1051 -0.8626
19190TIP3    H178985   5.458   4.924   3.024  1.5754 -0.3708 -1.7342
19190TIP3    H278986   5.481   4.989   3.159 -0.3315 -0.5279 -1.3044
19191TIP3   OH278987   2.854   4.416   4.520 -0.1231  0.1622 -0.0726
19191TIP3    H178988   2.800   4.493   4.537  1.9889  1.7691 -0.2057
19191TIP3    H278989   2.816   4.347   4.574 -2.0062  1.3114  0.1514
19192TIP3   OH278990   5.558   0.978  14.247  0.2033 -0.3316  0.2388
19192TIP3    H178991   5.626   1.011  14.305 -2.4814  2.7120  2.0105
19192TIP3    H278992   5.579   1.016  14.162  0.1822  1.6045  1.0302
19193TIP3   OH278993   0.260   1.356   3.776 -0.4384  0.0742 -0.5828
19193TIP3    H178994   0.211   1.309   3.709  0.3185  2.3158 -2.8320
19193TIP3    H278995   0.217   1.441   3.783 -1.2811 -0.4714  2.7844
19194TIP3   OH278996   2.644   0.117   3.538 -0.0906 -0.1538 -0.3171
19194TIP3    H178997   2.710   0.181   3.567 -0.3604 -0.0024 -0.0379
19194TIP3    H278998   2.589   0.102   3.615 -0.9224  0.3905 -0.7898
19195TIP3   OH278999   2.693   5.264  16.518  0.1311 -0.2342  0.3742
19195TIP3    H179000   2.715   5.356  16.505 -0.9978 -0.1095 -0.8914
19195TIP3    H279001   2.732   5.219  16.443 -1.7377 -0.3301 -0.6267
19196TIP3   OH279002   2.644   4.051   3.519 -0.5914 -1.4829  0.2646
19196TIP3    H179003   2.617   3.972   3.566 -1.2209 -1.6716 -0.4031
19196TIP3    H279004   2.697   4.100   3.583 -1.7481 -1.5459  1.3069
19197TIP3   OH279005   1.018   1.653  14.058 -0.8290  0.2749 -0.2301
19197TIP3    H179006   0.937   1.643  14.107  0.1298 -0.1319  1.3585
19197TIP3    H279007   0.994   1.705  13.981 -2.5184  0.3870  0.3365
19198TIP3   OH279008   3.064   6.735  12.522 -0.1422  0.0206 -0.0463
19198TIP3    H179009   3.070   6.684  12.442  1.4850 -0.3712  0.2872
19198TIP3    H279010   3.149   6.725  12.564 -0.4621  1.3762  1.0339
19199TIP3   OH279011   1.033   3.784  14.492 -0.2423  0.7306 -0.5003
19199TIP3    H179012   1.089   3.814  14.564 -0.4115  1.8048 -0.8015
19199TIP3    H279013   1.009   3.695  14.517  0.5476  0.7113  0.2649
19200TIP3   OH279014   3.285   1.168   3.021 -0.1011 -0.3026 -0.0235
19200TIP3    H179015   3.264   1.163   2.928  2.8830 -0.6221 -0.7641
19200TIP3    H279016   3.334   1.249   3.031 -0.4095 -0.2522  1.2889
19201TIP3   OH279017   4.529   3.046  11.665  0.5142  0.5756 -0.4754
19201TIP3    H179018   4.481   3.127  11.650 -0.2924 -0.1554 -2.1276
19201TIP3    H279019   4.609   3.073  11.711 -0.0466  2.2013 -0.3961
19202TIP3   OH279020   6.412   2.865   4.135  0.0350  0.0856  0.3931
19202TIP3    H179021   6.319   2.863   4.114  0.3092  0.2722 -0.9277
19202TIP3    H279022   6.422   2.941   4.192 -0.2341  1.7778 -1.6706
19203TIP3   OH279023   5.982   6.771  13.045 -0.0396  0.9726 -0.4735
19203TIP3    H179024   5.916   6.764  13.113 -1.8647  1.1340 -2.1309
19203TIP3    H279025   5.932   6.781  12.964  2.0070 -0.2118 -1.9746
19204TIP3   OH279026   3.633   3.629  12.704 -0.2486 -0.0101  0.0321
19204TIP3    H179027   3.630   3.579  12.785  0.7616 -4.0227 -2.1074
19204TIP3    H279028   3.618   3.563  12.635 -0.1222  2.9559 -3.1007
19205TIP3   OH279029   2.172   3.626  10.921  0.4685 -0.5197  0.3802
19205TIP3    H179030   2.208   3.715  10.926 -1.5174  0.3109  1.2546
19205TIP3    H279031   2.237   3.576  10.873  2.3107  1.0690  1.0932
19206TIP3   OH279032   4.755   0.260   6.403  0.1721 -0.2584 -0.2037
19206TIP3    H179033   4.757   0.168   6.428 -1.0608 -0.5620 -1.1694
19206TIP3    H279034   4.844   0.291   6.422  0.3584 -1.4044  0.9651
19207TIP3   OH279035   6.491   3.409   5.676 -0.1339 -0.1609 -0.1645
19207TIP3    H179036   6.419   3.468   5.657  0.3913  1.0760  1.4967
19207TIP3    H279037   6.563   3.466   5.702  2.1886 -1.1849 -3.6049
19208TIP3   OH279038   3.430   4.277  12.093  0.1217  0.0594  0.2747
19208TIP3    H179039   3.433   4.182  12.103  0.0044  0.1083  0.8136
19208TIP3    H279040   3.352   4.304  12.142 -0.1807  0.3748 -0.3735
19209TIP3   OH279041   4.355   5.395   3.076 -0.1212  0.5101 -0.2482
19209TIP3    H179042   4.393   5.470   3.032 -2.2273  0.1961 -2.8904
19209TIP3    H279043   4.299   5.432   3.144  1.5289  1.1241  0.8126
19210TIP3   OH279044   1.107   6.780  16.137 -0.2090 -0.6059  0.1082
19210TIP3    H179045   1.051   6.840  16.187 -1.3281 -1.7207  0.2536
19210TIP3    H279046   1.164   6.837  16.086 -1.4632  0.5937 -0.0158
19211TIP3   OH279047   6.070   3.697  16.650  0.5989 -0.6931  0.9843
19211TIP3    H179048   6.103   3.662  16.733  0.7406  0.0203  1.2306
19211TIP3    H279049   6.016   3.772  16.674  0.7553 -0.3898  0.4268
19212TIP3   OH279050   5.681   3.011  10.895  0.1216  0.0866 -0.0302
19212TIP3    H179051   5.720   2.947  10.836  0.9462  0.3499  0.2066
19212TIP3    H279052   5.587   2.996  10.889 -0.0323  1.5260 -3.0794
19213TIP3   OH279053   0.336   3.435   5.382 -0.4999  0.6271  0.1640
19213TIP3    H179054   0.423   3.440   5.342 -1.7652  0.7333 -2.8574
19213TIP3    H279055   0.304   3.348   5.361 -1.7906  1.2044 -0.4123
19214TIP3   OH279056   6.785   2.469   2.908  0.2855 -0.0324  0.2499
19214TIP3    H179057   6.785   2.424   2.993  3.7442  0.1109  0.4664
19214TIP3    H279058   6.727   2.544   2.920  1.1399  0.3101  2.7046
19215TIP3   OH279059   4.696   1.061   6.032 -0.3311 -0.2844  0.0622
19215TIP3    H179060   4.756   1.086   6.103 -0.7953 -0.9548  0.7053
19215TIP3    H279061   4.609   1.065   6.072 -0.7193  0.6190 -0.8446
19216TIP3   OH279062   0.332   3.074   2.194  0.4765  0.3690  0.6951
19216TIP3    H179063   0.376   3.072   2.109 -0.1345  0.2859  0.3800
19216TIP3    H279064   0.248   3.116   2.177  1.0381  1.9424  1.5893
19217TIP3   OH279065   4.770   1.832  16.780 -0.0814 -0.1619 -0.1844
19217TIP3    H179066   4.714   1.894  16.827  0.3679 -0.5079  0.8415
19217TIP3    H279067   4.728   1.821  16.695 -2.0973 -1.0829  0.8550
19218TIP3   OH279068   6.686   2.884  16.820 -0.3993 -0.1618 -0.6009
19218TIP3    H179069   6.616   2.945  16.845 -0.4363  0.0546 -1.2163
19218TIP3    H279070   6.758   2.941  16.792 -0.1494 -0.3911 -0.4242
19219TIP3   OH279071   0.089   3.402  14.398  0.3903  0.1978 -0.3275
19219TIP3    H179072   0.013   3.351  14.372  0.7509 -1.0349  0.9196
19219TIP3    H279073   0.072   3.490  14.363 -0.8095 -0.4582 -1.4738
19220TIP3   OH279074   4.680   3.183   3.996  0.4234 -0.2657  0.1676
19220TIP3    H179075   4.764   3.145   4.024  1.0861  0.3820 -0.8865
19220TIP3    H279076   4.659   3.247   4.064 -0.1576 -1.7068  1.3948
19221TIP3   OH279077   6.743   3.695  16.041  0.3198 -0.5952 -0.4925
19221TIP3    H179078   6.810   3.629  16.060  0.6766  0.0958  0.7789
19221TIP3    H279079   6.792   3.769  16.005  0.4263  0.3309  1.4518
19222TIP3   OH279080   5.294   5.452   0.042  0.5984 -0.6696 -0.1068
19222TIP3    H179081   5.347   5.373   0.036 -0.4915 -1.5221  0.8247
19222TIP3    H279082   5.313   5.500  -0.038  3.3894 -0.4844  0.5706
19223TIP3   OH279083   0.875   4.067   3.027 -0.0650  0.3607  0.2739
19223TIP3    H179084   0.798   4.064   3.084 -0.0390 -1.6295  0.2882
19223TIP3    H279085   0.944   4.103   3.082 -0.4662  0.1313  0.9438
19224TIP3   OH279086   6.280   1.477  14.389 -0.3088 -0.1104 -0.4192
19224TIP3    H179087   6.188   1.484  14.412  0.3614  0.3279  2.4712
19224TIP3    H279088   6.308   1.394  14.426  1.2321  1.3970  2.0271
19225TIP3   OH279089   6.654   0.363  14.521  0.0947 -0.1524 -0.2578
19225TIP3    H179090   6.706   0.335  14.446  2.6860  1.2389  0.8897
19225TIP3    H279091   6.638   0.456  14.505 -1.0770 -0.2944 -0.0060
19226TIP3   OH279092   6.090   4.804  12.830 -0.1559  0.1535 -0.7280
19226TIP3    H179093   6.143   4.757  12.895  1.5883 -0.3065 -2.3975
19226TIP3    H279094   6.000   4.776  12.848  0.3331 -0.3672  1.1235
19227TIP3   OH279095   6.315   3.679  10.610 -0.4011  0.0203  0.3407
19227TIP3    H179096   6.398   3.710  10.574 -0.1887 -0.6390  0.2428
19227TIP3    H279097   6.291   3.745  10.675 -1.1030  1.5694 -1.4052
19228TIP3   OH279098   1.110   4.715  13.812 -0.1397  0.6525 -0.1335
19228TIP3    H179099   1.015   4.726  13.804 -0.2963 -0.7791 -0.6014
19228TIP3    H279100   1.121   4.625  13.844  1.0711  0.5443 -0.7911
19229TIP3   OH279101   6.563   3.151  15.826 -0.6118  0.1841  0.4704
19229TIP3    H179102   6.527   3.131  15.912  1.2522  1.6656  1.6827
19229TIP3    H279103   6.627   3.220  15.842  2.7918 -2.2025 -1.4109
19230TIP3   OH279104   5.783   5.406   5.140  0.2993  0.2985  0.0870
19230TIP3    H179105   5.742   5.491   5.157 -1.3228 -0.6633  1.1622
19230TIP3    H279106   5.777   5.359   5.222  1.6344 -0.7058 -0.3582
19231TIP3   OH279107   0.720   5.095  16.991 -0.3380 -0.4859  0.0765
19231TIP3    H179108   0.764   5.166  17.037  0.5597 -1.4908  0.8085
19231TIP3    H279109   0.636   5.132  16.964  0.4553  1.1099 -0.3039
19232TIP3   OH279110   1.715   3.474   4.253 -0.5180  0.3668  0.5543
19232TIP3    H179111   1.659   3.549   4.273  0.3034  1.1969 -0.1594
19232TIP3    H279112   1.782   3.509   4.194  1.1000 -0.4531  1.8098
19233TIP3   OH279113   6.682   0.369   1.538  0.3676  0.1585  0.2533
19233TIP3    H179114   6.724   0.333   1.616 -3.3900  0.4025  2.6448
19233TIP3    H279115   6.656   0.458   1.564 -0.2471  0.5533 -1.5981
19234TIP3   OH279116   0.646   1.572  16.732  0.5747  0.3545 -0.3193
19234TIP3    H179117   0.568   1.517  16.718  1.8586 -1.4086 -0.9627
19234TIP3    H279118   0.622   1.630  16.803 -0.1808 -2.5635  2.0164
19235TIP3   OH279119   0.919   3.461   0.577  0.1519 -0.1408  0.2158
19235TIP3    H179120   0.856   3.440   0.508  1.4540 -1.8079 -0.5420
19235TIP3    H279121   0.865   3.493   0.649 -1.6631 -2.1213 -0.1416
19236TIP3   OH279122   2.351   2.977   2.190 -0.0143 -0.1187  0.1037
19236TIP3    H179123   2.391   2.903   2.235  1.9305  0.3723 -0.7011
19236TIP3    H279124   2.291   2.938   2.127  0.5473 -0.9899  0.0940
19237TIP3   OH279125   2.961   6.271  14.826  0.2351  0.3662  0.5218
19237TIP3    H179126   3.020   6.201  14.800  0.8093  1.0340 -0.0293
19237TIP3    H279127   3.018   6.349  14.832 -0.7362  1.2261 -0.9402
19238TIP3   OH279128   3.858   5.987  13.336  0.1148  0.4025 -0.0074
19238TIP3    H179129   3.777   5.979  13.285 -0.2639  2.1578  0.2719
19238TIP3    H279130   3.926   5.959  13.275 -0.6559 -0.8720 -0.3278
19239TIP3   OH279131   0.116   6.697  12.574  0.1038  0.1093  0.0432
19239TIP3    H179132   0.090   6.605  12.569 -1.5835  0.5246  0.4599
19239TIP3    H279133   0.211   6.696  12.562  0.0258 -1.6074 -0.7458
19240TIP3   OH279134   4.578   4.809   0.115  0.6943 -0.1969 -0.7133
19240TIP3    H179135   4.527   4.756   0.053  2.3058 -0.8317 -1.5375
19240TIP3    H279136   4.663   4.819   0.074  1.0588  1.3940  0.3526
19241TIP3   OH279137   6.067   6.384   3.353 -0.0046  0.1183 -0.8371
19241TIP3    H179138   6.041   6.368   3.444  0.9290  0.8520 -0.4108
19241TIP3    H279139   6.163   6.394   3.357 -0.1209  2.1561 -1.5463
19242TIP3   OH279140   2.589   6.284   2.477 -0.1387  1.0241 -0.0796
19242TIP3    H179141   2.516   6.226   2.497  0.3216 -0.3372 -2.0284
19242TIP3    H279142   2.548   6.368   2.457 -1.1252  0.5036 -0.3374
19243TIP3   OH279143   3.342   0.498  12.767 -0.4602  0.0879  0.1055
19243TIP3    H179144   3.288   0.419  12.771  1.0081 -1.2067 -2.8726
19243TIP3    H279145   3.287   0.563  12.723 -1.2707  0.4430  1.5665
19244TIP3   OH279146   0.916   5.481   3.501 -0.6823 -0.1627 -0.5379
19244TIP3    H179147   0.895   5.388   3.494 -0.0671 -0.4408  0.8733
19244TIP3    H279148   0.962   5.502   3.420 -4.5093  0.0432 -2.9418
19245TIP3   OH279149   0.759   2.068  13.241 -0.0109 -0.4162  0.1897
19245TIP3    H179150   0.737   2.036  13.329  1.4971 -0.0057  0.7551
19245TIP3    H279151   0.799   2.154  13.256 -1.3997  0.4937 -1.0784
19246TIP3   OH279152   3.006   6.471   3.280 -0.4343  0.0823 -0.1197
19246TIP3    H179153   2.947   6.473   3.204 -0.9704  2.1639  0.2894
19246TIP3    H279154   2.948   6.454   3.355  0.2121 -2.9993 -0.1684
19247TIP3   OH279155   4.512   0.005  14.407  0.0635  0.2215  0.1524
19247TIP3    H179156   4.444  -0.027  14.348  1.1550  0.3295 -1.2149
19247TIP3    H279157   4.554  -0.074  14.440 -1.4616  0.1045  1.9774
19248TIP3   OH279158   3.181   5.566  15.097 -0.3492 -0.4432 -0.1289
19248TIP3    H179159   3.273   5.587  15.077 -0.3167 -0.1565  0.3145
19248TIP3    H279160   3.184   5.522  15.181 -0.7926  1.4313  0.9324
19249TIP3   OH279161   2.239   3.424   1.310  0.7517  0.0810  0.0481
19249TIP3    H179162   2.286   3.359   1.362  1.0918  0.6866  0.5149
19249TIP3    H279163   2.184   3.470   1.375  1.2354  0.8966 -0.1040
19250TIP3   OH279164   1.104   5.285   2.459  0.0108 -0.0610  0.3315
19250TIP3    H179165   1.091   5.191   2.466  0.2276 -0.2484 -1.4661
19250TIP3    H279166   1.018   5.323   2.478  0.0007 -0.5656  1.4008
19251TIP3   OH279167   5.445   1.471   3.385  0.0631 -1.1192  0.3432
19251TIP3    H179168   5.353   1.459   3.411  0.2476 -2.6853  0.3747
19251TIP3    H279169   5.452   1.564   3.365 -1.4352 -0.8905  0.7247
19252TIP3   OH279170   3.846   5.785  12.545  0.2579 -0.4863  0.2071
19252TIP3    H179171   3.931   5.819  12.573 -0.0412 -0.5353  1.2172
19252TIP3    H279172   3.864   5.743  12.461  0.9238  0.8355 -0.3351
19253TIP3   OH279173   4.657   0.844  10.660 -0.0676 -0.3812 -0.6335
19253TIP3    H179174   4.723   0.907  10.631 -0.2675 -0.0476 -0.3710
19253TIP3    H279175   4.634   0.872  10.748 -0.3376 -0.6784 -0.6081
19254TIP3   OH279176   4.996   5.881  15.393 -0.5926 -0.0398 -0.4002
19254TIP3    H179177   4.912   5.922  15.415 -0.0441  0.7837  0.1863
19254TIP3    H279178   5.029   5.848  15.477 -0.6068 -0.9107 -0.7244
19255TIP3   OH279179   4.367   6.272   1.600 -0.1361  0.8632  0.1826
19255TIP3    H179180   4.284   6.245   1.638 -1.0744  0.9573 -1.7182
19255TIP3    H279181   4.370   6.229   1.515  1.2916  1.6882 -0.2167
19256TIP3   OH279182   5.678   1.064   0.416 -0.2607 -0.1900 -0.0459
19256TIP3    H179183   5.701   1.157   0.418  0.2522 -0.3216  0.8179
19256TIP3    H279184   5.761   1.019   0.398 -0.8071 -0.4133 -2.3881
19257TIP3   OH279185   2.323   1.365  16.630 -0.6606 -0.1343  0.4705
19257TIP3    H179186   2.285   1.277  16.629  1.9722 -1.3835  0.7361
19257TIP3    H279187   2.411   1.353  16.594 -0.6537  2.6571 -0.6220
19258TIP3   OH279188   0.172   6.689   3.903 -0.1764 -0.2801 -0.1429
19258TIP3    H179189   0.144   6.724   3.818  0.3603  0.5455  0.0138
19258TIP3    H279190   0.249   6.741   3.926  1.1146 -2.0300 -0.2507
19259TIP3   OH279191   6.699   5.042   1.165  0.5406  0.4179 -0.0227
19259TIP3    H179192   6.730   5.132   1.176  1.2798  0.1924 -0.1877
19259TIP3    H279193   6.760   5.004   1.102  0.4906 -0.3330  0.3777
19260TIP3   OH279194   3.668   0.720  12.554 -0.1643  0.4737  0.3482
19260TIP3    H179195   3.634   0.650  12.498  0.6078  0.0978  0.3313
19260TIP3    H279196   3.750   0.685  12.588 -0.4581  0.8317  1.4497
19261TIP3   OH279197   3.675   1.623   5.238 -0.0313  0.1073 -0.0654
19261TIP3    H179198   3.643   1.535   5.216 -1.5348  0.4675  0.5673
19261TIP3    H279199   3.650   1.636   5.329 -1.2352  1.7709 -0.5770
19262TIP3   OH279200   0.114   6.023   1.999  0.4873  0.1797 -0.0124
19262TIP3    H179201   0.117   6.015   2.094 -1.3818  0.3526  0.1063
19262TIP3    H279202   0.024   6.050   1.980  0.5476 -0.7580 -1.8872
19263TIP3   OH279203   5.172   6.007  15.622  0.1478 -0.3953 -0.6883
19263TIP3    H179204   5.183   6.089  15.573  1.3380  0.5412  1.0330
19263TIP3    H279205   5.256   5.962  15.613  0.3974 -0.1893  0.4938
19264TIP3   OH279206   5.007   3.933  11.732 -0.2331  0.7744  0.0949
19264TIP3    H179207   4.970   3.845  11.730  0.1568  0.6021  0.4048
19264TIP3    H279208   5.051   3.943  11.647  1.6431 -0.1708  0.9044
19265TIP3   OH279209   1.558   3.617   5.888  0.0499 -0.2570  0.5038
19265TIP3    H179210   1.629   3.557   5.910 -0.1768 -0.1879  1.5124
19265TIP3    H279211   1.561   3.625   5.793  1.0837 -0.6262  0.4917
19266TIP3   OH279212   0.839   3.883  12.498 -0.0238 -0.6667 -0.1828
19266TIP3    H179213   0.837   3.978  12.486 -1.0226 -0.7497 -0.7790
19266TIP3    H279214   0.812   3.870  12.589 -0.7510 -0.4180 -0.3575
19267TIP3   OH279215   4.065   3.812   4.282 -0.4841  0.0957  0.2958
19267TIP3    H179216   4.055   3.894   4.330 -0.0488 -0.0888  0.7101
19267TIP3    H279217   3.976   3.789   4.254 -0.6137  0.6780  0.2233
19268TIP3   OH279218   6.703   1.596  12.441  1.0292  0.0699 -0.0753
19268TIP3    H179219   6.789   1.609  12.480 -0.5776  1.4341  3.3727
19268TIP3    H279220   6.653   1.673  12.466 -2.2158 -2.2482  1.2576
19269TIP3   OH279221   4.574   5.114  13.497 -0.6047 -0.1506 -0.1370
19269TIP3    H179222   4.488   5.139  13.464 -0.3241  0.1197 -0.6665
19269TIP3    H279223   4.628   5.101  13.419 -0.3172 -0.8856  0.1671
19270TIP3   OH279224   3.471   3.997  14.602 -0.9765  0.4225  0.7498
19270TIP3    H179225   3.434   3.948  14.528  0.6214 -0.2442  0.3459
19270TIP3    H279226   3.457   4.089  14.580  1.0528  0.3096 -1.2994
19271TIP3   OH279227   1.326   5.996  17.128  0.2657  0.5061  0.5833
19271TIP3    H179228   1.386   6.014  17.200  1.8451  0.1763 -0.5914
19271TIP3    H279229   1.371   5.930  17.075 -1.7632 -0.8174  0.3729
19272TIP3   OH279230   6.697   5.834  14.329  0.1013 -0.5856 -0.6068
19272TIP3    H179231   6.786   5.807  14.351 -0.5001 -1.7995  0.4468
19272TIP3    H279232   6.699   5.852  14.235  1.0850 -2.1436 -0.9078
19273TIP3   OH279233   0.355   5.210  11.061  0.1577 -0.2503  0.3895
19273TIP3    H179234   0.303   5.158  11.121  0.7042 -1.1393  0.1106
19273TIP3    H279235   0.293   5.236  10.992 -0.6477  1.3775  1.6392
19274TIP3   OH279236   5.729   3.504  15.359  0.7271  0.1923 -0.1176
19274TIP3    H179237   5.788   3.542  15.293  0.0183 -0.3009 -1.0521
19274TIP3    H279238   5.648   3.488  15.312  0.5563 -1.1869  0.6122
19275TIP3   OH279239   4.589   1.638  13.706 -0.1958 -0.0650  0.4063
19275TIP3    H179240   4.562   1.686  13.627 -1.4260 -0.8819  0.3173
19275TIP3    H279241   4.529   1.564  13.711  1.4853 -1.4799  0.6994
19276TIP3   OH279242   6.382   0.876   2.671  0.3446 -0.3144 -0.1581
19276TIP3    H179243   6.413   0.786   2.666  1.5003 -0.0412  1.1049
19276TIP3    H279244   6.396   0.912   2.584  1.0047 -1.0229 -0.3528
19277TIP3   OH279245   5.637   1.078  15.985 -0.2500  0.1205  0.4321
19277TIP3    H179246   5.607   1.008  15.927  1.0202 -0.2414  0.1810
19277TIP3    H279247   5.616   1.159  15.939 -1.1695 -0.0983  0.4463
19278TIP3   OH279248   1.371   5.777  12.873 -0.2545 -0.5097 -0.1494
19278TIP3    H179249   1.300   5.734  12.921 -0.5531 -2.8105 -2.4525
19278TIP3    H279250   1.451   5.739  12.908 -0.3275 -0.2855  0.2618
19279TIP3   OH279251   4.038   6.637   0.135 -0.0958 -0.4853 -0.9339
19279TIP3    H179252   4.063   6.726   0.159  1.1641 -1.2084  0.6169
19279TIP3    H279253   4.121   6.593   0.117 -0.5402 -1.8035  0.0826
19280TIP3   OH279254   2.159   3.845   5.097  0.0228  0.4295  0.5217
19280TIP3    H179255   2.187   3.825   5.008 -0.3542 -0.1435  0.5250
19280TIP3    H279256   2.238   3.835   5.150  0.0023 -0.3980  0.4170
19281TIP3   OH279257   2.186   5.231  10.602 -0.6048 -0.7970 -0.6082
19281TIP3    H179258   2.237   5.267  10.529 -0.7149 -1.3282 -0.9528
19281TIP3    H279259   2.095   5.254  10.580 -0.4349  1.4165  0.7166
19282TIP3   OH279260   1.218   0.255  10.690 -0.0904  0.2330  0.2315
19282TIP3    H179261   1.176   0.187  10.743  0.9230 -1.3318 -0.8879
19282TIP3    H279262   1.309   0.228  10.684  0.2175  1.3963 -0.7339
19283TIP3   OH279263   2.627   3.697   4.481  0.2250 -0.1581  0.4298
19283TIP3    H179264   2.703   3.740   4.519  1.3258 -1.3342 -0.3859
19283TIP3    H279265   2.582   3.766   4.432  0.8193  0.5082  0.8086
19284TIP3   OH279266   0.601   3.286  17.116  0.0280  0.3820 -0.4501
19284TIP3    H179267   0.568   3.262  17.030  2.8561  0.6232 -1.7245
19284TIP3    H279268   0.659   3.214  17.141  0.5198  1.0698  0.4931
19285TIP3   OH279269   1.465   6.557   1.792  0.4035 -0.8900  0.0399
19285TIP3    H179270   1.380   6.553   1.748  0.6011  0.0462 -0.4444
19285TIP3    H279271   1.443   6.567   1.885 -0.0229 -3.5585  0.3091
19286TIP3   OH279272   2.167   3.778   3.375  0.4374 -0.4536 -0.0498
19286TIP3    H179273   2.123   3.846   3.325  2.1898  0.5924 -0.2385
19286TIP3    H279274   2.097   3.718   3.400 -1.0768  1.1041 -0.3588
19287TIP3   OH279275   2.857   3.825  11.607 -0.0734 -0.1546  0.9680
19287TIP3    H179276   2.812   3.880  11.542  2.5445  0.0984 -0.7430
19287TIP3    H279277   2.903   3.887  11.662 -0.7429 -0.4777  1.9173
19288TIP3   OH279278   3.173   6.421  15.592 -0.1314 -0.1066  0.0747
19288TIP3    H179279   3.212   6.459  15.513 -0.8389  1.3957  0.4146
19288TIP3    H279280   3.207   6.474  15.664 -1.7594  0.4224  0.4916
19289TIP3   OH279281   6.218   6.026   4.059  0.0726 -0.3174  0.0924
19289TIP3    H179282   6.283   6.096   4.067 -0.4320  0.0117  1.8582
19289TIP3    H279283   6.160   6.055   3.988  0.0700  0.9118  0.5697
19290TIP3   OH279284   4.816   4.402   5.130  0.4122 -0.0251  0.3012
19290TIP3    H179285   4.742   4.342   5.133  0.4306 -0.0339  0.6073
19290TIP3    H279286   4.890   4.351   5.162  0.1426  0.5678  1.9546
19291TIP3   OH279287   1.710   0.625   1.332 -0.5349  0.5026 -0.3325
19291TIP3    H179288   1.633   0.569   1.323 -2.4656  2.6311  1.7872
19291TIP3    H279289   1.730   0.623   1.425  1.6111  0.5525 -0.7491
19292TIP3   OH279290   1.323   3.567   6.768  0.1252 -0.1580  0.1971
19292TIP3    H179291   1.238   3.533   6.798 -0.2519  0.9102  0.3891
19292TIP3    H279292   1.386   3.499   6.791 -0.7521 -1.2151 -0.4492
19293TIP3   OH279293   1.970   0.150   0.456  0.3745  0.0237  0.5153
19293TIP3    H179294   2.059   0.122   0.478  0.5674 -0.6596 -1.0157
19293TIP3    H279295   1.932   0.175   0.540  1.9260  0.1009  1.2333
19294TIP3   OH279296   5.333   2.991   2.764  0.2883  1.0655  0.5096
19294TIP3    H179297   5.382   3.070   2.740 -0.4960  1.0204 -1.4761
19294TIP3    H279298   5.400   2.924   2.779  0.9049  1.7131  0.6666
19295TIP3   OH279299   4.723   1.823   3.248  0.2328 -0.0380  0.0068
19295TIP3    H179300   4.644   1.860   3.286  0.1405 -0.0300 -0.1918
19295TIP3    H279301   4.765   1.896   3.202 -0.3768 -0.3556 -1.0906
19296TIP3   OH279302   6.200   4.789  12.568  0.0560 -0.1239  0.1368
19296TIP3    H179303   6.167   4.819  12.652 -0.8925 -1.1253  0.1515
19296TIP3    H279304   6.134   4.726  12.538  0.2515  0.3808 -1.4610
19297TIP3   OH279305   6.458   6.136   5.230  0.0335  0.0855  0.0360
19297TIP3    H179306   6.365   6.114   5.240 -0.1060  0.9083  0.6222
19297TIP3    H279307   6.475   6.125   5.136 -1.4346  2.8059 -0.6589
19298TIP3   OH279308   0.066   3.980   0.385 -0.0271 -0.0695 -0.3582
19298TIP3    H179309   0.028   4.022   0.307  0.8241  0.5637 -0.4553
19298TIP3    H279310   0.110   4.052   0.431  0.1115 -0.5803  0.3203
19299TIP3   OH279311   6.232   2.786   3.386 -0.1090  0.2852 -0.2187
19299TIP3    H179312   6.294   2.832   3.329 -0.7804  0.7347 -0.5931
19299TIP3    H279313   6.147   2.796   3.342 -0.9940  2.2086  1.7411
19300TIP3   OH279314   3.941   4.267  11.955 -0.4169 -0.1941 -0.0180
19300TIP3    H179315   3.989   4.253  11.873  0.2010  0.1257  0.2814
19300TIP3    H279316   3.880   4.193  11.960  0.5537 -1.0163 -0.0461
19301TIP3   OH279317   5.777   4.077  17.016 -0.6402 -0.1654  0.3810
19301TIP3    H179318   5.703   4.136  17.028  0.4876  0.9562  2.5931
19301TIP3    H279319   5.745   3.992  17.044 -0.4723  0.8468  4.3679
19302TIP3   OH279320   2.328   6.273   2.073 -1.2750 -0.4695  0.0515
19302TIP3    H179321   2.422   6.264   2.058 -0.9078  1.8614  0.5628
19302TIP3    H279322   2.301   6.188   2.108  0.6912 -1.0923  0.1770
19303TIP3   OH279323   1.196   0.302   2.793  0.7878  0.3849 -0.0281
19303TIP3    H179324   1.249   0.376   2.762 -0.0219  0.4700 -1.3202
19303TIP3    H279325   1.225   0.229   2.738  0.0589  0.2773 -0.2742
19304TIP3   OH279326   6.289   4.915  11.563 -0.2656  0.1293 -0.4641
19304TIP3    H179327   6.293   4.824  11.593  0.6098  0.7808  1.5407
19304TIP3    H279328   6.204   4.947  11.594 -1.0943 -0.2922 -2.1852
19305TIP3   OH279329   0.409   2.713  11.534 -0.7726 -0.4991  0.0130
19305TIP3    H179330   0.462   2.640  11.567  0.4925  0.0514 -0.7470
19305TIP3    H279331   0.450   2.791  11.571 -3.1597 -0.1640  2.2904
19306TIP3   OH279332   1.666   1.786   5.125 -0.5709  0.2164 -0.3081
19306TIP3    H179333   1.669   1.882   5.117 -0.5134  0.1383 -1.4702
19306TIP3    H279334   1.590   1.769   5.180 -0.5252  0.9351 -0.0068
19307TIP3   OH279335   1.369   1.053   3.072 -0.5220  0.3014  0.3886
19307TIP3    H179336   1.356   1.005   2.991 -0.6130  1.1412 -0.1066
19307TIP3    H279337   1.357   0.988   3.141  1.9731 -1.0167 -0.3004
19308TIP3   OH279338   2.824   4.214  11.470 -0.0251 -0.1361 -0.4470
19308TIP3    H179339   2.878   4.274  11.417  0.9464 -0.6883 -0.1154
19308TIP3    H279340   2.880   4.191  11.544 -1.1246  0.0958  0.4768
19309TIP3   OH279341   6.500   2.669   4.742  0.0249 -0.5803  0.5122
19309TIP3    H179342   6.531   2.723   4.814 -2.4083 -2.1979  2.9912
19309TIP3    H279343   6.453   2.729   4.684  0.8671  0.5597  0.9865
19310TIP3   OH279344   5.078   2.861   2.043  0.2445 -0.0222 -0.3722
19310TIP3    H179345   5.008   2.863   2.108  1.0148  0.1467  0.4724
19310TIP3    H279346   5.087   2.769   2.020 -0.4157 -0.0153 -0.6665
19311TIP3   OH279347   1.762   3.530  13.283  0.1711 -0.0678 -0.0409
19311TIP3    H179348   1.749   3.483  13.201 -0.2193 -1.4532  0.7870
19311TIP3    H279349   1.706   3.607  13.275  2.2696  1.3855 -2.2197
19312TIP3   OH279350   2.996   3.895   2.896  0.4222  0.2221  0.9925
19312TIP3    H179351   2.912   3.922   2.933  0.4374  0.8015  0.6100
19312TIP3    H279352   2.996   3.800   2.904  0.2569  0.3084  2.1204
19313TIP3   OH279353   6.307   6.416  16.453 -0.2532 -0.2781 -0.1593
19313TIP3    H179354   6.220   6.381  16.439 -0.1901 -0.7925  0.6593
19313TIP3    H279355   6.294   6.490  16.513  0.0653 -1.6464  1.6815
19314TIP3   OH279356   1.828   3.002   3.276  0.6357 -0.0533 -0.0866
19314TIP3    H179357   1.810   2.911   3.252 -0.6619 -0.0276  0.6710
19314TIP3    H279358   1.816   3.004   3.371  1.5825  0.7117  0.0299
19315TIP3   OH279359   3.705   6.708  13.408 -0.3868 -0.7961 -0.0610
19315TIP3    H179360   3.682   6.798  13.430 -4.2141 -1.4079 -0.9158
19315TIP3    H279361   3.769   6.715  13.337 -0.8330  1.2322 -0.3020
19316TIP3   OH279362   1.773   1.979  15.670  0.0806  0.3352 -0.1245
19316TIP3    H179363   1.793   2.059  15.720 -1.4989  0.7053 -0.0552
19316TIP3    H279364   1.765   2.010  15.579 -1.3183  0.4225  0.0077
19317TIP3   OH279365   4.710   2.335  15.529  0.3674 -0.0572 -0.1942
19317TIP3    H179366   4.711   2.265  15.594  0.1451  0.5383  0.4649
19317TIP3    H279367   4.782   2.393  15.556  0.1669  0.2783 -0.3795
19318TIP3   OH279368   2.167   0.932   2.351  0.1711  0.2313  0.0478
19318TIP3    H179369   2.132   0.963   2.434 -1.6600 -0.4387 -0.4197
19318TIP3    H279370   2.154   0.838   2.353 -0.3330  0.2550 -1.1624
19319TIP3   OH279371   0.797   4.679  14.225 -0.5309  0.2036  1.0220
19319TIP3    H179372   0.861   4.746  14.200 -0.1956 -0.0420  1.2181
19319TIP3    H279373   0.738   4.674  14.150  0.2990 -0.3226  0.3861
19320TIP3   OH279374   2.048   2.169   3.230  0.1987  0.2968  0.7281
19320TIP3    H179375   2.064   2.114   3.307  0.4816 -2.4096 -1.1214
19320TIP3    H279376   1.954   2.189   3.234  0.1909  0.0852  1.7009
19321TIP3   OH279377   2.762   5.093  16.279 -0.3954  0.8220 -0.1480
19321TIP3    H179378   2.706   5.115  16.205  0.3254  0.8132 -0.7155
19321TIP3    H279379   2.843   5.141  16.262  0.4396 -0.5746 -0.3197
19322TIP3   OH279380   5.374   2.658  16.528  0.2434 -0.7526  0.7828
19322TIP3    H179381   5.301   2.596  16.530  0.4915 -1.0640  0.5032
19322TIP3    H279382   5.448   2.605  16.496  0.0404  0.1313 -1.2880
19323TIP3   OH279383   3.719   0.607   0.066  0.2960  1.2412 -0.0303
19323TIP3    H179384   3.723   0.607   0.161  0.2581 -0.7710  0.0204
19323TIP3    H279385   3.810   0.617   0.038  0.3384  1.5425  0.2083
19324TIP3   OH279386   0.688   0.914  13.829 -0.5315  0.1659 -0.1737
19324TIP3    H179387   0.725   1.000  13.850 -0.1644  0.0108 -0.1676
19324TIP3    H279388   0.734   0.854  13.888  0.4094 -0.2627 -1.3092
19325TIP3   OH279389   2.812   5.631   0.697  0.7227 -0.5139 -0.1869
19325TIP3    H179390   2.756   5.579   0.754 -0.4971  0.9525  0.0066
19325TIP3    H279391   2.880   5.570   0.668  0.5136 -1.6660  1.6251
19326TIP3   OH279392   6.198   1.702  16.534  0.7331 -0.2089 -0.1878
19326TIP3    H179393   6.134   1.650  16.583 -0.7769  1.9238  0.2559
19326TIP3    H279394   6.270   1.716  16.596  0.0431  0.2300  0.5388
19327TIP3   OH279395   5.925   2.045  16.746 -0.4074  0.2678  0.0607
19327TIP3    H179396   5.972   1.984  16.803 -0.4183 -0.1048 -0.3198
19327TIP3    H279397   5.872   2.098  16.806 -0.0118  0.2439  0.4371
19328TIP3   OH279398   3.298   2.045  11.932 -0.1304  0.4343 -0.5962
19328TIP3    H179399   3.290   2.026  11.839  2.2878  0.9595 -0.9765
19328TIP3    H279400   3.312   2.140  11.936  0.6051  0.3029  0.2118
19329TIP3   OH279401   2.240   3.749   2.365  0.0932 -0.0603 -0.4385
19329TIP3    H179402   2.272   3.840   2.371  1.4916 -0.5361 -0.3035
19329TIP3    H279403   2.165   3.747   2.424 -0.7296  1.3085 -1.3573
19330TIP3   OH279404   3.720   5.920   0.276 -0.2971  0.0893  0.5436
19330TIP3    H179405   3.788   5.877   0.223 -0.5472  0.1432  0.1776
19330TIP3    H279406   3.665   5.848   0.307 -1.9333  0.2323 -1.7352
19331TIP3   OH279407   3.143   3.061  10.851  1.0350 -0.0864  0.5337
19331TIP3    H179408   3.154   3.033  10.942  3.1098  1.3119  0.7881
19331TIP3    H279409   3.204   3.134  10.841 -0.3578  0.9000 -1.5252
19332TIP3   OH279410   1.500   1.163  11.770 -0.4730  0.1376  0.3974
19332TIP3    H179411   1.477   1.072  11.751  0.0464 -0.3320  1.8592
19332TIP3    H279412   1.445   1.214  11.711 -0.6421 -1.1139 -0.5945
19333TIP3   OH279413   0.504   6.764  15.503  0.3827  0.1168 -0.2392
19333TIP3    H179414   0.483   6.819  15.428  0.6490  1.3195  0.5363
19333TIP3    H279415   0.579   6.806  15.544  0.9440 -1.1482  0.0697
19334TIP3   OH279416   0.716   1.760  15.680 -0.0258 -0.0062  0.2152
19334TIP3    H179417   0.703   1.748  15.774  0.4415  1.3831  0.4817
19334TIP3    H279418   0.651   1.702  15.640 -0.2483 -0.6093  1.3866
19335TIP3   OH279419   1.696   1.700  11.997  0.1573 -0.3505  0.3483
19335TIP3    H179420   1.771   1.672  12.049  0.0725  0.6233  1.0109
19335TIP3    H279421   1.722   1.681  11.906  1.3929  0.3793  0.5293
19336TIP3   OH279422   0.344   3.825  14.987  0.1848  0.0698 -0.2758
19336TIP3    H179423   0.378   3.873  14.912 -0.8144 -0.9837 -1.4432
19336TIP3    H279424   0.400   3.748  14.995  2.4162  1.7881  2.2120
19337TIP3   OH279425   2.264   6.018   2.222  0.1930 -0.4045 -0.3561
19337TIP3    H179426   2.255   6.055   2.310 -1.8704 -0.3079 -0.5632
19337TIP3    H279427   2.301   5.931   2.237 -0.1110 -0.3875  0.6046
19338TIP3   OH279428   5.447   5.473  14.125  0.3093 -0.6991  0.0767
19338TIP3    H179429   5.534   5.511  14.119 -0.2012  0.3002 -1.5098
19338TIP3    H279430   5.419   5.461  14.034 -1.8732  0.6238  0.4863
19339TIP3   OH279431   1.064   1.643  14.802 -0.2603  0.0688  0.0161
19339TIP3    H179432   1.084   1.694  14.881  0.3862  1.4431 -0.9860
19339TIP3    H279433   0.969   1.650  14.792 -0.3364 -0.0394  0.6145
19340TIP3   OH279434   6.043   3.418  11.989  0.5359 -0.4003  0.7141
19340TIP3    H179435   6.102   3.418  11.913 -0.8886  0.9583 -0.4564
19340TIP3    H279436   6.076   3.348  12.045  2.1924 -0.8309 -0.7243
19341TIP3   OH279437   4.283   5.528   5.819  0.2378 -0.8456  0.2421
19341TIP3    H179438   4.287   5.600   5.882 -1.7205  0.3949 -0.9332
19341TIP3    H279439   4.220   5.557   5.754  2.4314 -1.8875 -2.5552
19342TIP3   OH279440   5.024   0.705   2.595 -0.1513  0.0674 -0.6799
19342TIP3    H179441   4.975   0.641   2.648  0.8693 -0.7434 -0.6862
19342TIP3    H279442   5.101   0.726   2.648 -0.8938  2.0001 -0.2817
19343TIP3   OH279443   3.752   1.611   4.956  0.0128 -0.3214  0.3723
19343TIP3    H179444   3.786   1.621   5.045 -0.4680  1.0144  0.4212
19343TIP3    H279445   3.827   1.628   4.899  0.4168 -1.5548  0.4967
19344TIP3   OH279446   4.664   1.236   0.907 -0.0173  0.1256  0.1951
19344TIP3    H179447   4.594   1.301   0.917  0.4177  0.4234  1.3714
19344TIP3    H279448   4.656   1.180   0.984  0.3940 -0.4766 -0.1934
19345TIP3   OH279449   6.525   2.609  14.496 -0.1923 -0.1861  0.7959
19345TIP3    H179450   6.574   2.691  14.503 -0.4884 -0.0451  1.2656
19345TIP3    H279451   6.433   2.635  14.505 -0.5836 -0.1626 -2.1140
19346TIP3   OH279452   2.501   0.741  11.574 -0.3120  0.3528  0.1098
19346TIP3    H179453   2.485   0.779  11.660  0.5859  1.1994 -0.0736
19346TIP3    H279454   2.441   0.667  11.569  0.3661 -0.3712  1.8826
19347TIP3   OH279455   3.396   4.012  14.902  0.1881 -0.4268 -0.5623
19347TIP3    H179456   3.404   3.930  14.950 -1.3962  0.0079  0.5158
19347TIP3    H279457   3.397   3.987  14.810 -1.2014 -1.7698 -0.2491
19348TIP3   OH279458   2.194   1.252   4.318 -0.3600  0.1542  0.2168
19348TIP3    H179459   2.253   1.216   4.384 -0.2292 -0.9394 -0.4779
19348TIP3    H279460   2.253   1.296   4.256 -0.4381  0.6968  0.5206
19349TIP3   OH279461   0.955   1.973  11.372  0.3372  0.0434 -0.8657
19349TIP3    H179462   0.920   1.972  11.461  0.2197  0.7627 -0.9010
19349TIP3    H279463   0.880   1.951  11.317  0.5386 -0.9846 -0.7557
19350TIP3   OH279464   1.764   0.599   5.390 -0.4728  0.2478 -0.4552
19350TIP3    H179465   1.752   0.666   5.324  0.8913 -0.3091 -1.3322
19350TIP3    H279466   1.781   0.519   5.340  2.2007  0.1176  0.4917
19351TIP3   OH279467   6.126   1.894  16.309 -0.0425  0.3606  0.4058
19351TIP3    H179468   6.130   1.818  16.366  2.4476  0.0959 -0.0141
19351TIP3    H279469   6.122   1.858  16.220 -0.0914  0.7440  0.2474
19352TIP3   OH279470   0.585   3.772  13.031 -0.1646  0.2452 -0.7709
19352TIP3    H179471   0.531   3.697  13.055  0.0518 -0.0375 -1.1465
19352TIP3    H279472   0.675   3.741  13.039 -0.0223  0.9368  0.5731
19353TIP3   OH279473   5.721   2.632  12.439  0.4864 -0.2354  0.8049
19353TIP3    H179474   5.726   2.706  12.500  0.6085 -0.4255  1.0300
19353TIP3    H279475   5.727   2.672  12.352 -2.3647  0.3298  0.7645
19354TIP3   OH279476   0.447   6.505   3.227  0.0400 -0.1027  0.3108
19354TIP3    H179477   0.397   6.453   3.289 -1.5387  0.7861 -0.1734
19354TIP3    H279478   0.459   6.590   3.269  0.8319 -0.1751  0.2583
19355TIP3   OH279479   0.411   1.055  15.155 -0.1217 -0.1281  0.4751
19355TIP3    H179480   0.394   1.050  15.249 -3.0636  1.7269  0.1899
19355TIP3    H279481   0.444   1.144  15.142  1.8797 -0.9111 -0.1113
19356TIP3   OH279482   1.614   6.051   3.152 -0.3439  0.4568  0.1621
19356TIP3    H179483   1.602   6.143   3.174 -1.4120  0.6892 -1.2774
19356TIP3    H279484   1.535   6.027   3.103  0.4275 -0.9068 -0.4756
19357TIP3   OH279485   3.389   4.301   1.498  0.2065 -0.0758  0.1230
19357TIP3    H179486   3.303   4.334   1.471 -0.1483 -1.4395 -0.5212
19357TIP3    H279487   3.423   4.256   1.421  0.2714 -1.9123  1.1632
19358TIP3   OH279488   5.887   2.397  11.528 -0.2419 -0.0173  0.0201
19358TIP3    H179489   5.975   2.363  11.547 -0.1841 -1.3850 -2.3548
19358TIP3    H279490   5.884   2.403  11.433 -2.4912  0.7458  0.0932
19359TIP3   OH279491   3.720   3.739  12.056  0.3342  0.0485 -0.0403
19359TIP3    H179492   3.761   3.716  12.139  0.9304 -0.9408 -0.5787
19359TIP3    H279493   3.628   3.754  12.077  0.1019 -1.9211  0.5424
19360TIP3   OH279494   6.036   6.351  13.802  0.7023  0.2121 -0.4614
19360TIP3    H179495   6.112   6.377  13.749  3.0357 -0.7425  2.2090
19360TIP3    H279496   6.036   6.256  13.799  0.1876  0.1796  0.3595
19361TIP3   OH279497   3.688   1.314  10.685 -0.6430  0.0011 -0.4373
19361TIP3    H179498   3.702   1.365  10.765  1.1111 -3.2778  1.5699
19361TIP3    H279499   3.596   1.287  10.691 -0.3440 -0.8328  0.9607
19362TIP3   OH279500   2.433   6.786   4.302  0.2271 -0.1076  0.5748
19362TIP3    H179501   2.518   6.742   4.291  0.6205  0.6645  0.4733
19362TIP3    H279502   2.373   6.736   4.247  0.7853 -0.1940  0.0376
19363TIP3   OH279503   3.890   5.430   0.704  0.1019  0.8133 -0.6765
19363TIP3    H179504   3.985   5.418   0.704 -0.1145 -1.3868 -2.1179
19363TIP3    H279505   3.874   5.493   0.774  2.5904  1.0435 -0.2298
19364TIP3   OH279506   3.939   1.672  13.332 -0.5072  0.1046  0.1628
19364TIP3    H179507   3.905   1.622  13.406 -0.0321  0.0446  0.3440
19364TIP3    H279508   3.867   1.730  13.307 -0.4202  0.6710  1.1651
19365TIP3   OH279509   0.472   0.279   0.326  0.1547 -0.5989 -0.1228
19365TIP3    H179510   0.527   0.352   0.357  0.2263 -0.7948  0.2172
19365TIP3    H279511   0.478   0.283   0.231  0.6172 -0.5081 -0.0913
19366TIP3   OH279512   4.281   0.713   5.216  0.2409 -0.4314 -0.7181
19366TIP3    H179513   4.276   0.699   5.311  0.9680 -1.8370 -0.8594
19366TIP3    H279514   4.189   0.718   5.188 -0.0252  2.5779  0.3418
19367TIP3   OH279515   5.466   4.831  12.164 -0.1228  0.1577 -0.3655
19367TIP3    H179516   5.559   4.807  12.155 -0.0161  0.0614  0.8397
19367TIP3    H279517   5.421   4.773  12.103  0.5736 -0.0720 -0.6806
19368TIP3   OH279518   1.485   5.291   0.964  0.2673 -0.0198  0.1289
19368TIP3    H179519   1.511   5.351   1.034 -0.7762  0.3427  0.2248
19368TIP3    H279520   1.477   5.206   1.007  0.2351  0.0793  0.3200
19369TIP3   OH279521   0.004   2.768  16.523  0.5473 -0.0294 -0.2107
19369TIP3    H179522  -0.051   2.691  16.540  1.8949 -1.6682 -2.7201
19369TIP3    H279523  -0.054   2.843  16.543 -1.4623 -1.6464  0.4237
19370TIP3   OH279524   0.495   4.582   4.721  0.0138  0.4737 -0.3228
19370TIP3    H179525   0.584   4.549   4.714 -0.0119 -0.0428  1.3238
19370TIP3    H279526   0.440   4.505   4.706 -0.1141  0.4443  0.2791
19371TIP3   OH279527   2.717   5.598   3.035  0.3665  0.3306 -0.4435
19371TIP3    H179528   2.647   5.536   3.055 -2.0253  2.5804 -1.3168
19371TIP3    H279529   2.770   5.553   2.970  0.5094 -1.8900  1.0816
19372TIP3   OH279530   1.541   4.133  15.344  0.2614  0.5383  0.2216
19372TIP3    H179531   1.583   4.076  15.279 -0.5115 -0.9960  1.0005
19372TIP3    H279532   1.482   4.074  15.393 -0.5568  2.0175  1.0919
19373TIP3   OH279533   0.989   4.072  12.986  0.8874 -0.2900  0.7344
19373TIP3    H179534   1.009   4.040  13.074  2.3676  0.2600  0.6294
19373TIP3    H279535   1.053   4.027  12.930  1.6335  1.2344  0.3076
19374TIP3   OH279536   4.339   4.690   2.771 -0.3387  0.8589 -0.2795
19374TIP3    H179537   4.302   4.614   2.727  0.5384  0.2006  0.0884
19374TIP3    H279538   4.418   4.711   2.721  0.5296  0.2625  0.7871
19375TIP3   OH279539   1.161   4.677   2.550  0.7000  0.1295 -0.4340
19375TIP3    H179540   1.096   4.610   2.567 -0.1131  1.0865  0.3736
19375TIP3    H279541   1.136   4.715   2.466 -1.2311  2.0263  0.8826
19376TIP3   OH279542   0.142   3.733  13.931  0.1196  0.5312 -0.2094
19376TIP3    H179543   0.185   3.818  13.937 -0.5196  0.8001  0.6855
19376TIP3    H279544   0.169   3.699  13.845  2.1503  0.6453  0.3325
19377TIP3   OH279545   2.840   0.292   3.604  0.0801 -0.5716  0.7743
19377TIP3    H179546   2.933   0.273   3.587 -0.8562 -2.6538 -3.3177
19377TIP3    H279547   2.828   0.381   3.571  0.2196 -1.2406 -1.2368
19378TIP3   OH279548   1.145   1.004   0.297 -0.4638 -0.2536  0.2731
19378TIP3    H179549   1.085   1.069   0.332  1.2418  2.4451 -1.4669
19378TIP3    H279550   1.090   0.946   0.244 -1.7971  0.8261  0.4231
19379TIP3   OH279551   0.498   5.841   1.903 -0.3242 -0.0152  0.3873
19379TIP3    H179552   0.576   5.886   1.935 -0.1950 -0.0463  0.1157
19379TIP3    H279553   0.531   5.760   1.864 -0.5098 -0.1175  0.4379
19380TIP3   OH279554   0.234   6.362   2.525  0.3480  0.2628  1.0088
19380TIP3    H179555   0.270   6.404   2.603  1.6657 -0.0376  0.5898
19380TIP3    H279556   0.141   6.385   2.526  0.1393 -0.4040  3.1102
19381TIP3   OH279557   3.244   3.044   3.825 -0.3954 -0.2317 -0.0789
19381TIP3    H179558   3.262   3.008   3.911 -0.4534  0.7329  0.3477
19381TIP3    H279559   3.182   3.115   3.841  0.9043  1.0829 -0.7097
19382TIP3   OH279560   3.691   0.097   2.474 -0.3269 -0.6786  0.2833
19382TIP3    H179561   3.742   0.175   2.451  0.1395 -1.6250 -2.1655
19382TIP3    H279562   3.716   0.078   2.564  1.2955  0.6740  0.1766
19383TIP3   OH279563   0.776   2.318  14.799 -0.3615  0.5121  0.1608
19383TIP3    H179564   0.808   2.297  14.711  4.7776  0.5180  1.6730
19383TIP3    H279565   0.774   2.413  14.803 -0.8034  0.5112  0.0252
19384TIP3   OH279566   4.386   3.991  14.518 -0.3968  0.4400  0.3231
19384TIP3    H179567   4.472   3.976  14.557  0.1329  0.6546 -0.7268
19384TIP3    H279568   4.341   4.046  14.582  0.7561  1.4986  0.2744
19385TIP3   OH279569   5.730   1.500  16.969 -0.3541  0.0223 -1.0803
19385TIP3    H179570   5.715   1.417  17.015  1.7945  0.1198 -0.0474
19385TIP3    H279571   5.644   1.527  16.940 -1.4162 -1.5533  0.3720
19386TIP3   OH279572   5.695   5.881  11.643 -0.3533  0.0061  0.9141
19386TIP3    H179573   5.689   5.973  11.669  1.9494  0.1799  1.0604
19386TIP3    H279574   5.609   5.844  11.663 -0.9486  1.8448  1.9444
19387TIP3   OH279575   4.347   5.723   1.160 -0.4576  0.0625 -0.0949
19387TIP3    H179576   4.380   5.639   1.192  0.5420  0.7704  0.8014
19387TIP3    H279577   4.425   5.772   1.137 -0.9903  1.0324  0.1310
19388TIP3   OH279578   5.835   0.598  12.690 -0.0056  0.1768 -0.1623
19388TIP3    H179579   5.789   0.516  12.673  0.0984 -0.1266  0.9147
19388TIP3    H279580   5.876   0.621  12.607  0.8138 -1.4044 -0.2318
19389TIP3   OH279581   2.661   0.281  10.529 -0.4094 -0.4616 -0.2956
19389TIP3    H179582   2.636   0.189  10.534 -0.0975 -0.5129  3.4956
19389TIP3    H279583   2.580   0.329  10.544 -0.2643 -0.1662 -0.4422
19390TIP3   OH279584   1.268   3.280  13.210  0.0299 -0.2585 -0.0860
19390TIP3    H179585   1.195   3.259  13.268  0.8239 -1.4697  0.4975
19390TIP3    H279586   1.335   3.316  13.268 -0.1538  1.0625 -0.6524
19391TIP3   OH279587   1.240   0.077   1.916  0.0208  0.6198  0.4617
19391TIP3    H179588   1.148   0.069   1.941  0.3020  2.6825  2.5793
19391TIP3    H279589   1.269  -0.013   1.900 -2.3826 -0.0519 -0.4847
19392TIP3   OH279590   3.565   0.038   5.459  0.7851 -0.3619 -0.4185
19392TIP3    H179591   3.508  -0.033   5.428  0.1938  1.0270 -2.7217
19392TIP3    H279592   3.627   0.051   5.388  1.3780  0.9017  0.3098
19393TIP3   OH279593   3.654   2.458   4.293  0.2926  0.4376 -0.0981
19393TIP3    H179594   3.603   2.394   4.244  0.8752  0.0560 -0.2094
19393TIP3    H279595   3.672   2.416   4.377  0.2142  0.6657  0.0332
19394TIP3   OH279596   3.236   0.092   5.277  0.0440 -0.1632  0.0363
19394TIP3    H179597   3.173   0.135   5.220  1.5633  0.2450 -1.4304
19394TIP3    H279598   3.311   0.152   5.279  0.6822 -0.9654  1.1152
19395TIP3   OH279599   2.624   6.655  13.377 -0.3915 -0.4778 -0.2288
19395TIP3    H179600   2.702   6.697  13.342 -1.1832  1.5190  0.2245
19395TIP3    H279601   2.601   6.588  13.313  0.8140 -0.0481 -1.1416
19396TIP3   OH279602   2.061   3.761   0.710  0.5332  0.1495  0.1757
19396TIP3    H179603   2.143   3.737   0.753  0.0657 -0.3851  0.7940
19396TIP3    H279604   2.046   3.691   0.647  0.9001  0.6074 -0.4251
19397TIP3   OH279605   4.629   5.867   3.082 -0.0619 -0.0516  0.1978
19397TIP3    H179606   4.712   5.833   3.049  0.1248  1.2105 -0.7225
19397TIP3    H279607   4.653   5.910   3.165  1.0806  3.7018 -1.8208
19398TIP3   OH279608   1.782   0.592   5.028  0.0337 -0.0827  0.3400
19398TIP3    H179609   1.761   0.647   5.103  0.0004 -1.6478  1.5438
19398TIP3    H279610   1.701   0.586   4.978 -0.3807 -0.2331  1.0167
19399TIP3   OH279611   5.171   5.629   4.979 -0.2285 -0.6550 -0.0706
19399TIP3    H179612   5.195   5.543   4.943 -1.1010 -0.1148 -2.0498
19399TIP3    H279613   5.108   5.664   4.917 -0.7417  0.9627  1.3094
19400TIP3   OH279614   5.356   0.926   3.858 -0.0934 -0.6226  0.1809
19400TIP3    H179615   5.283   0.958   3.911  0.8573  0.3058  0.9662
19400TIP3    H279616   5.353   0.979   3.779  1.4009  1.4439  1.4229
19401TIP3   OH279617   6.264   0.358  14.236  0.3482  0.2271 -0.0885
19401TIP3    H179618   6.272   0.367  14.141 -1.0560 -0.3862 -0.2832
19401TIP3    H279619   6.219   0.275  14.249  0.0630  0.5470  1.0997
19402TIP3   OH279620   0.428   4.122  10.501  0.0246  0.4219  0.1783
19402TIP3    H179621   0.491   4.094  10.568 -0.0719 -0.8678 -0.2437
19402TIP3    H279622   0.342   4.102  10.538 -0.0505  0.2743 -0.0709
19403TIP3   OH279623   3.764   1.842  15.424 -0.1609 -0.3629 -0.4355
19403TIP3    H179624   3.670   1.827  15.423 -0.0362 -1.2779  0.2747
19403TIP3    H279625   3.785   1.860  15.516  0.4240 -0.6179 -0.5153
19404TIP3   OH279626   3.094   2.215  13.167  0.4713 -0.1487  0.0188
19404TIP3    H179627   3.070   2.290  13.113 -0.4528 -1.0699 -0.8991
19404TIP3    H279628   3.133   2.253  13.246  0.9797  1.2603 -0.8676
19405TIP3   OH279629   2.539   2.213  15.762  0.6465  0.0661  0.5220
19405TIP3    H179630   2.620   2.240  15.720  0.3114  1.3358  0.6443
19405TIP3    H279631   2.503   2.294  15.799 -0.9737 -0.3569 -0.0545
19406TIP3   OH279632   2.970   2.374  12.464 -0.0696  0.4202 -0.3690
19406TIP3    H179633   3.021   2.332  12.533 -0.0542  0.4236 -0.3782
19406TIP3    H279634   3.028   2.375  12.388 -0.1264  0.3171 -0.4134
19407TIP3   OH279635   4.888   6.250  13.542 -0.4801 -0.1848  0.0653
19407TIP3    H179636   4.804   6.266  13.497  0.0269 -0.7090 -1.1113
19407TIP3    H279637   4.954   6.265  13.475  0.3104 -0.9468  0.6547
19408TIP3   OH279638   2.664   2.588   3.576 -0.1504 -0.6453 -0.4392
19408TIP3    H179639   2.609   2.524   3.532 -0.1205 -1.2212  0.3370
19408TIP3    H279640   2.749   2.545   3.583 -0.3852 -0.9262  0.9481
19409TIP3   OH279641   4.551   5.211  13.842  0.1717  0.0617 -0.2025
19409TIP3    H179642   4.468   5.165  13.830 -0.1986  1.1650 -2.5584
19409TIP3    H279643   4.541   5.258  13.925 -1.4984  0.0002 -0.3364
19410TIP3   OH279644   5.392   5.381   6.331 -0.1660  0.3522  0.1619
19410TIP3    H179645   5.331   5.454   6.340 -0.2366  0.1528  1.3856
19410TIP3    H279646   5.476   5.417   6.359 -0.3585 -0.2370  1.5679
19411TIP3   OH279647   2.839   2.929   0.803  0.1625 -0.0040 -0.6912
19411TIP3    H179648   2.766   2.984   0.775  1.8526  2.1150 -1.2386
19411TIP3    H279649   2.807   2.884   0.880 -1.3080  1.8891 -0.1135
19412TIP3   OH279650   3.595   5.218   3.024 -0.7132 -0.2889 -0.1126
19412TIP3    H179651   3.544   5.266   2.958  1.1156  0.9741 -0.6900
19412TIP3    H279652   3.544   5.227   3.105 -0.7954  2.1304 -0.3548
19413TIP3   OH279653   4.494   0.331  15.119  0.8581 -0.1665  0.2562
19413TIP3    H179654   4.399   0.320  15.126  0.7431  0.9840  0.7505
19413TIP3    H279655   4.525   0.247  15.086 -0.1954 -0.9854  1.2536
19414TIP3   OH279656   0.278   6.330  16.224 -0.0045 -0.2750  0.4333
19414TIP3    H179657   0.241   6.271  16.158  2.0512 -0.2998 -0.7484
19414TIP3    H279658   0.349   6.375  16.180 -0.1479  1.5439  1.9489
19415TIP3   OH279659   2.029   2.959   4.081  0.4746  0.3894  0.5372
19415TIP3    H179660   2.053   2.880   4.129  2.1598  0.0084 -0.8334
19415TIP3    H279661   2.112   2.993   4.048 -0.5224  0.9337 -1.6236
19416TIP3   OH279662   4.015   2.985  11.140 -0.4800 -0.3782 -0.0776
19416TIP3    H179663   4.025   3.003  11.047  3.6288  0.1722  0.2873
19416TIP3    H279664   3.961   2.906  11.143  0.9449 -1.6227 -3.0929
19417TIP3   OH279665   0.509   5.881  10.723  0.9224  0.3226  0.4566
19417TIP3    H179666   0.443   5.852  10.661 -0.2658 -1.1089  2.2749
19417TIP3    H279667   0.592   5.859  10.681  0.2817  1.8113 -1.7051
19418TIP3   OH279668   1.885   2.238   4.648 -0.0232 -0.5837  0.2467
19418TIP3    H179669   1.946   2.171   4.618 -0.5086 -0.6606 -0.6136
19418TIP3    H279670   1.911   2.256   4.738  1.2263 -0.6544 -0.0775
19419TIP3   OH279671   3.561   5.448   0.925 -0.5074 -0.0019  0.2283
19419TIP3    H179672   3.559   5.413   1.015  1.9900 -1.8644 -0.3448
19419TIP3    H279673   3.639   5.503   0.923 -0.9702  0.6384 -0.6235
19420TIP3   OH279674   4.320   1.409  11.036  0.2843 -0.2601  0.1139
19420TIP3    H179675   4.243   1.413  10.980  0.2670 -1.1503  0.0624
19420TIP3    H279676   4.392   1.387  10.977  0.1764 -1.7249  0.4975
19421TIP3   OH279677   6.421   6.589   0.606 -0.5286 -0.6808  0.3187
19421TIP3    H179678   6.440   6.666   0.552  0.3987 -0.4098  1.0097
19421TIP3    H279679   6.372   6.531   0.548  0.4017 -0.3794 -0.8039
19422TIP3   OH279680   5.742   1.117  16.428 -0.3601 -0.4596 -0.1789
19422TIP3    H179681   5.722   1.167  16.507  0.2072  0.6169 -0.6846
19422TIP3    H279682   5.705   1.030  16.443 -4.0963  0.8939 -0.4359
19423TIP3   OH279683   1.741   0.102  16.628 -0.1947 -0.3101 -0.3099
19423TIP3    H179684   1.798   0.179  16.625  1.4865 -1.5369 -1.0278
19423TIP3    H279685   1.706   0.102  16.717  0.5476  0.7283  0.0099
19424TIP3   OH279686   4.472   3.007   3.264 -0.0295  0.2177  0.0767
19424TIP3    H179687   4.481   2.984   3.171 -2.6019 -1.0511  0.0683
19424TIP3    H279688   4.427   3.091   3.264 -4.2616 -1.8020  0.0087
19425TIP3   OH279689   4.262   0.358   3.326 -0.0793 -0.7381 -0.2867
19425TIP3    H179690   4.340   0.357   3.381 -1.3377  0.1251  1.6252
19425TIP3    H279691   4.200   0.301   3.371 -1.2765  0.2782 -0.5837
19426TIP3   OH279692   4.180   5.681   3.156  0.2080 -0.0243 -0.3890
19426TIP3    H179693   4.118   5.631   3.210  1.0355 -0.3321  0.3033
19426TIP3    H279694   4.140   5.767   3.146 -0.1235 -0.0794  0.4344
19427TIP3   OH279695   6.165   2.268   5.266 -0.0147  0.4455  0.2359
19427TIP3    H179696   6.254   2.237   5.284  0.5355  0.7970 -1.6947
19427TIP3    H279697   6.112   2.188   5.267 -0.3096  0.4712  4.1608
19428TIP3   OH279698   3.846   4.673   6.596 -0.1787 -0.5857  0.3521
19428TIP3    H179699   3.938   4.701   6.603 -0.7505  1.2712  1.0511
19428TIP3    H279700   3.799   4.729   6.658 -2.0180 -0.3389 -1.1697
19429TIP3   OH279701   5.602   5.058  14.055 -0.0527  0.1777 -0.1429
19429TIP3    H179702   5.507   5.052  14.041 -0.6907  2.8670  2.0658
19429TIP3    H279703   5.635   5.104  13.978 -0.8655  0.9302 -0.0540
19430TIP3   OH279704   4.712   4.034   2.590 -0.3335  0.6132  0.4075
19430TIP3    H179705   4.774   4.053   2.519 -0.0156  1.9704  1.0336
19430TIP3    H279706   4.663   4.115   2.601 -1.4679 -0.0873  0.7000
19431TIP3   OH279707   3.538   0.737  12.821 -0.1034 -0.4196  0.1599
19431TIP3    H179708   3.557   0.824  12.856 -1.1196  0.4730 -1.4258
19431TIP3    H279709   3.600   0.725  12.750 -0.7110 -0.5044 -0.3644
19432TIP3   OH279710   5.957   1.433   2.589  0.9531  0.0776 -0.3510
19432TIP3    H179711   5.884   1.494   2.575  1.1506  0.6499  0.9291
19432TIP3    H279712   5.923   1.348   2.560  0.6021  0.7444 -1.9591
19433TIP3   OH279713   2.927   2.145  15.448 -0.4134 -0.0030 -0.0571
19433TIP3    H179714   2.861   2.210  15.472 -0.1061  0.1567  0.3585
19433TIP3    H279715   2.880   2.061  15.451 -0.6165  0.1172  0.1599
19434TIP3   OH279716   5.138   2.643  15.934  0.0493  0.1239  0.0943
19434TIP3    H179717   5.211   2.704  15.936  0.9369 -0.8635 -0.8806
19434TIP3    H279718   5.070   2.689  15.886  0.0708  0.9843  0.8577
19435TIP3   OH279719   1.083   6.654   5.532  0.1753  0.1988 -0.1435
19435TIP3    H179720   1.085   6.561   5.509  2.0729  0.6420 -2.2184
19435TIP3    H279721   1.002   6.687   5.494 -1.8559 -0.9997  2.8462
19436TIP3   OH279722   6.625   6.284   3.312 -0.1535  0.1360 -0.3509
19436TIP3    H179723   6.628   6.272   3.407  0.1354  0.3206 -0.3365
19436TIP3    H279724   6.532   6.302   3.294 -0.3711 -0.8218 -0.2256
19437TIP3   OH279725   1.037   5.818  12.798 -0.6928 -0.0871 -0.4299
19437TIP3    H179726   0.954   5.839  12.754 -0.7794 -0.7029 -0.5749
19437TIP3    H279727   1.086   5.899  12.797 -0.3734 -0.2635 -2.3855
19438TIP3   OH279728   3.892   2.383  16.026 -0.3636 -0.4306  0.1345
19438TIP3    H179729   3.962   2.442  15.997 -0.1867  1.3678  3.5895
19438TIP3    H279730   3.844   2.361  15.946  1.3808  2.0141 -1.7538
19439TIP3   OH279731   0.946   3.285  16.210  0.1073 -0.2631 -0.1557
19439TIP3    H179732   0.886   3.246  16.274  0.7396 -0.5870  0.2424
19439TIP3    H279733   1.028   3.237  16.221  0.7106  0.7674 -0.0826
19440TIP3   OH279734   0.948   2.556  13.925 -0.3185 -0.9404 -0.1830
19440TIP3    H179735   1.016   2.623  13.917  1.1662 -2.5949 -3.1614
19440TIP3    H279736   0.961   2.519  14.012  0.3328  1.0525  0.6116
19441TIP3   OH279737   2.790   2.214  14.866 -0.2344  0.2377 -0.7012
19441TIP3    H179738   2.792   2.221  14.771 -1.4490  0.0974 -0.7453
19441TIP3    H279739   2.804   2.304  14.896  0.0715  0.2955 -1.0025
19442TIP3   OH279740   5.763   3.489  11.936  0.2486  0.2854  0.0130
19442TIP3    H179741   5.738   3.419  11.996 -1.7027 -0.7963 -1.9343
19442TIP3    H279742   5.859   3.490  11.940  0.2656 -1.3774  1.2992
19443TIP3   OH279743   3.210   3.708  12.587  0.3119  0.2883  0.3608
19443TIP3    H179744   3.216   3.753  12.671  0.4835  0.1805  0.4075
19443TIP3    H279745   3.138   3.750  12.542  1.9350  2.2499 -0.5608
19444TIP3   OH279746   5.591   5.271   4.273  0.0980  0.0978  0.2198
19444TIP3    H179747   5.661   5.248   4.333 -0.7333 -0.6683  0.9349
19444TIP3    H279748   5.579   5.193   4.219 -1.2348 -0.3866  1.1533
19445TIP3   OH279749   0.177   5.130   3.261  0.1571  0.3852  0.5281
19445TIP3    H179750   0.096   5.086   3.285  0.3550 -0.8200 -0.8278
19445TIP3    H279751   0.151   5.198   3.199  0.2818 -1.2844 -1.4884
19446TIP3   OH279752   6.541   5.887   1.449 -0.2941 -0.0139  0.6848
19446TIP3    H179753   6.484   5.936   1.508 -1.0352 -0.2975  0.2137
19446TIP3    H279754   6.599   5.953   1.411 -1.8971  0.6925 -0.6575
19447TIP3   OH279755   4.776   5.011   4.584  0.2893 -0.0638 -0.0510
19447TIP3    H179756   4.774   4.993   4.678 -0.6355  0.0474 -0.0459
19447TIP3    H279757   4.767   5.106   4.577  0.8095 -0.0211 -0.2481
19448TIP3   OH279758   1.476   3.926   2.340 -0.9583  0.3880 -0.0784
19448TIP3    H179759   1.515   3.838   2.342 -1.3829  0.1321 -1.6865
19448TIP3    H279760   1.517   3.969   2.265 -0.2820  1.8220  1.0787
19449TIP3   OH279761   1.813   3.308  16.024  0.0740 -0.1535  0.1381
19449TIP3    H179762   1.833   3.319  16.117 -0.6436 -1.3987  0.4705
19449TIP3    H279763   1.867   3.373  15.980  0.4644  0.4292  1.4211
19450TIP3   OH279764   5.761   2.034  12.397  0.1308  0.3744  0.4892
19450TIP3    H179765   5.708   2.028  12.476  0.7282 -1.1145  0.8148
19450TIP3    H279766   5.742   1.953  12.349  2.0161 -0.1783  0.5801
19451TIP3   OH279767   5.144   4.173   2.509 -1.0287 -0.8070  0.4403
19451TIP3    H179768   5.106   4.204   2.426 -2.0332  1.2947  1.5997
19451TIP3    H279769   5.144   4.078   2.501 -0.8901 -0.6604 -2.0570
19452TIP3   OH279770   2.817   2.245   5.240 -0.0027  0.2638  0.0030
19452TIP3    H179771   2.858   2.258   5.326  1.1602 -0.2322 -0.4587
19452TIP3    H279772   2.839   2.325   5.192  1.7388 -0.5949 -0.7282
19453TIP3   OH279773   0.579   5.790  12.813 -0.5895 -0.0766  0.0302
19453TIP3    H179774   0.543   5.878  12.824 -1.6320 -0.5134  0.1630
19453TIP3    H279775   0.667   5.805  12.777 -0.6200  1.0261  0.3760
19454TIP3   OH279776   2.321   6.036   0.710 -0.4525 -0.3595 -0.6064
19454TIP3    H179777   2.345   6.108   0.768 -0.8541  1.4076 -2.5600
19454TIP3    H279778   2.404   6.007   0.671 -0.3604 -0.6591 -0.2046
19455TIP3   OH279779   3.009   2.992   0.417 -0.5375  0.8069  1.1677
19455TIP3    H179780   3.022   2.976   0.324 -0.0753  0.2261  1.3239
19455TIP3    H279781   2.915   2.979   0.431 -0.3956 -0.4948  1.0338
19456TIP3   OH279782   1.421   5.713   6.010 -0.1934  0.0410 -0.0415
19456TIP3    H179783   1.432   5.767   5.932 -0.0051  0.5848  0.3554
19456TIP3    H279784   1.449   5.769   6.082  1.7028 -1.1578  0.2214
19457TIP3   OH279785   1.381   3.419  16.958 -0.0207  0.1122  0.0108
19457TIP3    H179786   1.296   3.414  17.002 -0.8675  0.1442 -1.5386
19457TIP3    H279787   1.363   3.388  16.869  1.5902  0.1659 -0.3530
19458TIP3   OH279788   5.997   4.320  15.752  0.3827  0.2957  0.3402
19458TIP3    H179789   6.011   4.268  15.673 -0.4382  0.6698 -0.0633
19458TIP3    H279790   6.058   4.393  15.743  1.2380 -0.3602  0.7047
19459TIP3   OH279791   0.886   4.274  14.704  0.5330 -0.3496 -0.2303
19459TIP3    H179792   0.924   4.275  14.616 -2.1516  0.1721 -1.4988
19459TIP3    H279793   0.883   4.181  14.727  0.1246 -0.6042 -1.2585
19460TIP3   OH279794   0.835   4.723   0.354 -1.0678 -0.4902 -0.3107
19460TIP3    H179795   0.758   4.694   0.404 -0.9417  0.5186  0.4993
19460TIP3    H279796   0.900   4.746   0.421 -0.2480 -0.8181 -0.9783
19461TIP3   OH279797   1.348   2.907  15.459  0.3489  0.3446  0.2134
19461TIP3    H179798   1.402   2.856  15.399  0.4652  2.7706 -1.9574
19461TIP3    H279799   1.262   2.865  15.457  0.1815  0.6523 -2.2196
19462TIP3   OH279800   2.331   2.386  16.658 -0.0596 -0.5815  0.1086
19462TIP3    H179801   2.368   2.363  16.744  0.7570  1.6844  0.4181
19462TIP3    H279802   2.395   2.351  16.596 -1.3424 -3.5033  0.2483
19463TIP3   OH279803   6.054   6.715   1.356  0.1616 -0.3308 -0.0819
19463TIP3    H179804   6.141   6.719   1.316 -0.5254 -0.9492 -1.7123
19463TIP3    H279805   6.039   6.803   1.390  1.7242 -0.4125  0.9431
19464TIP3   OH279806   4.594   0.922  12.094 -0.4340 -0.0540  0.8486
19464TIP3    H179807   4.548   0.855  12.146  0.3592 -0.4849  1.0213
19464TIP3    H279808   4.548   1.003  12.114 -1.5568 -0.5722  0.4695
19465TIP3   OH279809   1.541   3.541  15.711  0.4436 -0.1820  0.2013
19465TIP3    H179810   1.617   3.503  15.667  1.4072  1.1934  0.6179
19465TIP3    H279811   1.531   3.489  15.791  0.1016 -1.2023 -0.4680
19466TIP3   OH279812   6.661   2.643  13.152 -0.1826 -0.0671 -0.7434
19466TIP3    H179813   6.727   2.671  13.215 -0.1477 -1.3003 -0.2023
19466TIP3    H279814   6.599   2.591  13.203  0.9507 -2.8669 -2.0073
19467TIP3   OH279815   1.634   2.696   0.512 -0.2434 -0.4201  0.2744
19467TIP3    H179816   1.705   2.732   0.565  0.5402 -1.2598 -0.1802
19467TIP3    H279817   1.554   2.726   0.556  0.2520  3.2804 -0.9950
19468TIP3   OH279818   3.915   2.592   4.328  0.2798 -0.1829 -0.7285
19468TIP3    H179819   3.965   2.637   4.259 -1.0772  1.7680 -0.5207
19468TIP3    H279820   3.832   2.569   4.286 -0.8743  1.7266  0.3764
19469TIP3   OH279821   6.783   1.207  11.664  0.7497 -0.2393  0.2643
19469TIP3    H179822   6.832   1.197  11.745 -0.1079 -1.3683  0.6573
19469TIP3    H279823   6.763   1.301  11.660  2.7159  0.2198  0.1946
19470TIP3   OH279824   1.500   6.437   5.854  0.0264 -0.6367 -0.0329
19470TIP3    H179825   1.522   6.495   5.926 -0.4262 -0.8116  0.2482
19470TIP3    H279826   1.407   6.418   5.865 -0.0149 -0.7793 -0.5782
19471TIP3   OH279827   2.306   0.853   4.414 -0.8663  0.0452  0.2005
19471TIP3    H179828   2.366   0.802   4.358 -0.6318 -1.5879  1.8548
19471TIP3    H279829   2.228   0.799   4.420 -1.5154  0.9639  0.1870
19472TIP3   OH279830   0.119   1.680  10.858  0.7329  0.2499  0.1371
19472TIP3    H179831   0.179   1.665  10.785 -0.8223 -0.1137 -1.1414
19472TIP3    H279832   0.032   1.678  10.817 -0.0896  2.2417  1.6471
19473TIP3   OH279833   4.475   2.243  12.830 -0.4894  0.3817  0.0103
19473TIP3    H179834   4.541   2.281  12.888 -0.3555  1.2489 -0.6989
19473TIP3    H279835   4.524   2.215  12.753 -1.2253  3.6692 -1.8368
19474TIP3   OH279836   0.944   2.846  14.845 -0.3594  0.0189 -0.1572
19474TIP3    H179837   1.018   2.788  14.864  0.8986  1.6518  0.1437
19474TIP3    H279838   0.980   2.934  14.853 -2.0789  0.8570 -1.1530
19475TIP3   OH279839   2.664   0.437   0.744 -0.5585 -0.5602 -0.5364
19475TIP3    H179840   2.615   0.464   0.666  0.5486  1.4764 -0.5770
19475TIP3    H279841   2.597   0.430   0.813 -1.2262 -0.1402 -1.1302
19476TIP3   OH279842   3.239   4.704   4.342  0.5814 -0.2148  0.4034
19476TIP3    H179843   3.151   4.682   4.373  0.6021  0.8060  1.2323
19476TIP3    H279844   3.284   4.620   4.335 -0.2777 -0.6918  0.5360
19477TIP3   OH279845   5.114   3.479  17.029  0.0277  0.5625 -0.0567
19477TIP3    H179846   5.175   3.409  17.054  1.0637  0.5001 -2.4750
19477TIP3    H279847   5.056   3.489  17.105  0.3061 -2.3914  0.6683
19478TIP3   OH279848   0.963   2.292   5.914 -0.4317  0.6716  0.2248
19478TIP3    H179849   0.951   2.322   5.824  0.7895  3.1388  0.7963
19478TIP3    H279850   0.972   2.197   5.907 -0.1657  0.8256 -2.2720
19479TIP3   OH279851   0.259   5.438  17.043  0.0191 -0.5728 -0.0670
19479TIP3    H179852   0.232   5.498  16.973 -0.4788 -0.1381  0.4869
19479TIP3    H279853   0.303   5.494  17.107  0.1078 -0.9013  0.1623
19480TIP3   OH279854   5.665   2.316   1.372 -0.1707  0.4260  0.1446
19480TIP3    H179855   5.592   2.366   1.408  0.1907  1.5286 -0.5663
19480TIP3    H279856   5.649   2.314   1.277 -0.7497 -1.8182  0.2421
19481TIP3   OH279857   5.109   6.688  14.881  0.2366 -0.2787  0.1498
19481TIP3    H179858   5.122   6.609  14.830  0.3617  0.3340 -0.7954
19481TIP3    H279859   5.096   6.657  14.971  1.4817 -1.2923  0.0075
19482TIP3   OH279860   5.671   2.567   1.717 -0.0177  0.4692  0.3748
19482TIP3    H179861   5.764   2.547   1.708  0.3024  2.2548 -0.5774
19482TIP3    H279862   5.642   2.512   1.790  1.9710  0.5188  1.2581
19483TIP3   OH279863   1.390   3.947   1.028 -0.2319 -0.4912  0.2289
19483TIP3    H179864   1.340   4.024   1.001  0.4706 -0.2536 -0.4258
19483TIP3    H279865   1.413   3.903   0.946 -0.0736 -1.0426  0.5639
19484TIP3   OH279866   4.291   5.140  13.732 -0.1998  0.0499 -0.0064
19484TIP3    H179867   4.276   5.223  13.689  0.9156  0.0431 -0.4423
19484TIP3    H279868   4.222   5.134  13.798 -1.4437  0.4209 -1.2447
19485TIP3   OH279869   1.196   0.949  14.956 -0.0184 -0.6515 -0.1849
19485TIP3    H179870   1.282   0.991  14.964  0.0594 -0.6245 -1.0832
19485TIP3    H279871   1.156   0.991  14.880 -0.7594 -0.7919  0.1250
19486TIP3   OH279872   6.332   4.996   4.415  0.2223 -0.0851 -0.4025
19486TIP3    H179873   6.371   5.036   4.492 -0.2597 -1.1761  0.4406
19486TIP3    H279874   6.334   4.902   4.434 -1.4315 -0.2620 -0.9815
19487TIP3   OH279875   0.894   5.086  12.940 -0.1362  0.3159 -0.6605
19487TIP3    H179876   0.954   5.039  12.882  0.3489  0.1268 -0.0203
19487TIP3    H279877   0.950   5.120  13.010 -1.0278 -1.6858  1.1501
19488TIP3   OH279878   4.863   2.411  14.765  0.1419  0.0177 -0.0873
19488TIP3    H179879   4.825   2.489  14.725 -0.6832 -1.0708 -1.5343
19488TIP3    H279880   4.930   2.444  14.824  0.2983  1.7948 -1.1882
19489TIP3   OH279881   0.430   6.217   6.449 -0.0645  0.3813 -0.5468
19489TIP3    H179882   0.488   6.162   6.396 -1.3775 -1.1045 -0.5001
19489TIP3    H279883   0.402   6.286   6.388  1.0354  0.6178 -0.8128
19490TIP3   OH279884   0.392   4.435   5.715 -0.1171  0.2182  0.4258
19490TIP3    H179885   0.338   4.463   5.642  0.8807  1.1750  0.0208
19490TIP3    H279886   0.452   4.508   5.730  0.2269 -0.2860  1.6848
19491TIP3   OH279887   3.003   2.863   5.095  0.3499  0.2516 -0.2918
19491TIP3    H179888   3.074   2.854   5.031  1.2205  1.4300  0.4434
19491TIP3    H279889   3.047   2.851   5.180 -0.7238 -0.9836  0.1185
19492TIP3   OH279890   0.020   6.644   1.651 -0.3988  0.1429 -0.0079
19492TIP3    H179891   0.105   6.613   1.683  0.4518  1.5180 -0.8278
19492TIP3    H279892  -0.021   6.684   1.727  0.3347  0.7749  0.0712
19493TIP3   OH279893   5.540   3.838  15.106 -0.3099  0.3387 -0.1067
19493TIP3    H179894   5.602   3.766  15.091 -1.7188 -1.0458  0.3675
19493TIP3    H279895   5.593   3.917  15.099  1.0829 -0.6624 -1.8675
19494TIP3   OH279896   5.089   6.547   2.731  0.8798 -0.1387 -0.3190
19494TIP3    H179897   5.002   6.587   2.732  0.7901 -0.3007 -1.0469
19494TIP3    H279898   5.142   6.602   2.789  0.4774  0.3833 -0.4456
19495TIP3   OH279899   2.443   6.473  13.982  0.3705  0.5516 -0.7667
19495TIP3    H179900   2.461   6.413  13.910  0.5146  0.5992 -0.7715
19495TIP3    H279901   2.353   6.502  13.967 -0.3654 -1.0685  0.2510
19496TIP3   OH279902   5.915   2.111   2.963  0.4611 -0.5365  0.5648
19496TIP3    H179903   5.975   2.173   2.922  1.3029 -1.1466  0.8425
19496TIP3    H279904   5.880   2.059   2.891 -1.4061  1.2015  0.1479
19497TIP3   OH279905   4.244   4.039  12.746 -0.6168  0.5385 -0.5060
19497TIP3    H179906   4.189   3.976  12.700 -0.6930 -0.3648  0.7788
19497TIP3    H279907   4.330   4.031  12.705 -1.3426  1.8886 -2.4644
19498TIP3   OH279908   1.271   4.091  12.403 -0.3634  0.2246 -0.5581
19498TIP3    H179909   1.242   4.093  12.495  2.0607 -3.2854  0.5243
19498TIP3    H279910   1.326   4.169  12.394 -0.3507  0.4596  1.1138
19499TIP3   OH279911   5.511   4.790  11.401 -0.0244 -0.2088  0.4735
19499TIP3    H179912   5.599   4.765  11.428  0.2014  0.3950  0.3047
19499TIP3    H279913   5.453   4.732  11.451  0.3901  0.5723  1.9035
19500TIP3   OH279914   6.464   0.885  15.247  0.7379  0.4183  0.4023
19500TIP3    H179915   6.547   0.850  15.215  0.0723 -0.4349 -0.4576
19500TIP3    H279916   6.435   0.944  15.177  0.3746  0.3352  0.4831
19501TIP3   OH279917   3.083   5.288  12.606 -0.4803 -0.2712 -0.0607
19501TIP3    H179918   3.114   5.372  12.638  1.2274 -0.6525 -0.5819
19501TIP3    H279919   3.116   5.224  12.669  1.2584 -0.8394 -1.4741
19502TIP3   OH279920   4.338   5.096  11.595  0.2707 -0.6180 -0.8630
19502TIP3    H179921   4.277   5.128  11.528 -0.5777  0.1738  0.2594
19502TIP3    H279922   4.298   5.121  11.678  2.5348  0.7267 -0.0846
19503TIP3   OH279923   1.483   0.372  14.045  0.5926 -0.3515  0.0805
19503TIP3    H179924   1.472   0.278  14.031  1.4867 -0.6223  1.0392
19503TIP3    H279925   1.414   0.413  13.992 -0.2135 -1.5654  0.1545
19504TIP3   OH279926   4.517   3.617   2.938 -0.0436  0.3150 -0.8721
19504TIP3    H179927   4.543   3.538   2.986  0.7514  1.0965  0.0274
19504TIP3    H279928   4.423   3.607   2.927  0.0008 -0.6425 -0.5447
19505TIP3   OH279929   0.295   3.525  12.567  0.3245 -0.5213  0.4671
19505TIP3    H179930   0.273   3.533  12.660 -1.2903 -1.8238  0.2378
19505TIP3    H279931   0.316   3.432  12.555 -1.5891 -0.8482 -0.8506
19506TIP3   OH279932   5.560   4.584   3.956 -0.3944  0.0153 -0.0145
19506TIP3    H179933   5.498   4.648   3.920  0.6613  0.6359 -0.7801
19506TIP3    H279934   5.523   4.561   4.041 -0.0683  2.7771  0.9807
19507TIP3   OH279935   5.541   0.800  13.050 -0.0405  0.2942 -0.1579
19507TIP3    H179936   5.616   0.790  12.991  0.4733 -1.5715  0.7371
19507TIP3    H279937   5.541   0.893  13.073 -0.5923  1.2394 -3.4361
19508TIP3   OH279938   4.611   3.606  15.579  0.2091 -0.5873  0.3302
19508TIP3    H179939   4.584   3.554  15.504 -0.7250 -1.5006  1.2637
19508TIP3    H279940   4.537   3.665  15.594  0.4659 -0.2891  0.4317
19509TIP3   OH279941   6.551   6.213  12.139 -0.8564 -0.3685  0.2699
19509TIP3    H179942   6.569   6.143  12.076 -0.8740 -0.3183  0.2076
19509TIP3    H279943   6.598   6.188  12.218 -0.8124 -0.4198  0.2275
19510TIP3   OH279944   2.940   3.263   0.288  0.5162 -0.3758  0.0394
19510TIP3    H179945   2.912   3.172   0.277 -0.9786 -0.4391  3.1116
19510TIP3    H279946   2.871   3.314   0.246 -0.0878 -0.6659  0.6453
19511TIP3   OH279947   1.447   4.580  13.028  0.4828 -0.5455  0.3402
19511TIP3    H179948   1.360   4.614  13.008  0.8647 -0.1137 -0.6564
19511TIP3    H279949   1.481   4.638  13.095 -0.4016 -1.3660  1.5406
19512TIP3   OH279950   6.384   0.697  13.014  0.3784  0.3817  0.1667
19512TIP3    H179951   6.457   0.677  12.954 -0.3594  0.1026 -0.6627
19512TIP3    H279952   6.415   0.772  13.064  1.5878 -0.2738  0.4513
19513TIP3   OH279953   1.763   1.975  11.942 -0.2662  0.2884 -0.0501
19513TIP3    H179954   1.726   1.908  11.998  0.3252  0.4631  0.5614
19513TIP3    H279955   1.827   1.928  11.888  1.7035  0.6620  1.8325
19514TIP3   OH279956   0.357   6.147   4.063  0.4701  0.4937  0.3649
19514TIP3    H179957   0.318   6.152   3.976  1.3068 -0.4404 -0.0894
19514TIP3    H279958   0.315   6.217   4.113  0.4835  1.5140 -0.9897
19515TIP3   OH279959   5.362   5.907  11.965  0.4028 -0.4349  0.0832
19515TIP3    H179960   5.443   5.906  12.016  1.1273 -1.3429 -1.0366
19515TIP3    H279961   5.312   5.833  11.999  0.8799 -1.0321 -0.4767
19516TIP3   OH279962   3.605   6.667  14.292 -0.6473 -0.6840  0.3014
19516TIP3    H179963   3.662   6.695  14.364  0.7947 -1.1495 -0.6069
19516TIP3    H279964   3.529   6.628  14.335  0.3579 -1.3008  1.5933
19517TIP3   OH279965   2.832   4.500   4.142  0.2675 -0.1221 -1.2731
19517TIP3    H179966   2.868   4.441   4.076 -3.1248 -1.8458 -1.7943
19517TIP3    H279967   2.755   4.454   4.176  1.0476  1.3035  2.9509
19518TIP3   OH279968   2.909   5.668  11.445  0.0188  0.6239 -0.3821
19518TIP3    H179969   2.863   5.640  11.524 -0.2998 -0.7745 -1.0415
19518TIP3    H279970   2.884   5.760  11.435 -0.6416  0.5770  0.6469
19519TIP3   OH279971   0.435   3.820  13.868  0.0831  0.4634  0.1251
19519TIP3    H179972   0.405   3.754  13.806 -1.2176 -0.1655  1.3493
19519TIP3    H279973   0.486   3.771  13.933 -2.8027  0.1130  2.3455
19520TIP3   OH279974   2.666   4.878  14.704 -0.4607  0.9041  0.3018
19520TIP3    H179975   2.610   4.889  14.780 -1.1715 -0.3612  0.0097
19520TIP3    H279976   2.650   4.787  14.676 -0.3981  1.3904 -1.4680
19521TIP3   OH279977   1.263   4.997  13.079  0.3978 -0.2392  0.1740
19521TIP3    H179978   1.276   4.947  13.159  4.4978 -0.5529 -0.4673
19521TIP3    H279979   1.345   4.988  13.031 -0.7659  2.4074 -2.7027
19522TIP3   OH279980   4.678   0.054   6.108  0.0475 -0.1385 -0.2884
19522TIP3    H179981   4.748   0.105   6.147 -1.0359  0.6208  0.7260
19522TIP3    H279982   4.682  -0.031   6.153  0.0145  0.0735  0.1175
19523TIP3   OH279983   1.299   0.901   1.931  0.1085  0.0153 -0.1937
19523TIP3    H179984   1.249   0.927   1.854  1.5574  2.4374 -0.4163
19523TIP3    H279985   1.389   0.899   1.901  0.3412 -3.5193  0.3826
19524TIP3   OH279986   4.295   2.101   3.249 -0.0652  0.4535  0.0361
19524TIP3    H179987   4.373   2.081   3.301 -0.5577 -1.2805  0.2005
19524TIP3    H279988   4.275   2.192   3.269 -0.5324 -0.2497  3.3582
19525TIP3   OH279989   2.757   5.700   0.431  0.0914 -0.3876 -0.1367
19525TIP3    H179990   2.776   5.659   0.516  0.8025  1.1998  0.5051
19525TIP3    H279991   2.663   5.721   0.435  0.1547 -0.1772  0.3365
19526TIP3   OH279992   2.598   3.143   3.097  0.0932 -0.2728  0.5139
19526TIP3    H179993   2.528   3.143   3.162  1.2098 -2.0175  1.8025
19526TIP3    H279994   2.560   3.098   3.021 -1.2114  1.7621 -0.1369
19527TIP3   OH279995   6.574   0.992  14.805  0.3184 -0.3619  0.2784
19527TIP3    H179996   6.666   0.967  14.807  0.1086 -1.2616 -0.4380
19527TIP3    H279997   6.548   0.999  14.897  0.4229 -2.8171  0.5610
19528TIP3   OH279998   0.659   5.315  12.629 -0.2548  0.1770  0.0938
19528TIP3    H179999   0.698   5.231  12.653 -1.0561 -1.0981 -2.6893
19528TIP3    H280000   0.582   5.323  12.685 -0.4711 -1.2430  0.0358
19529TIP3   OH280001   6.490   5.566  17.161 -0.5677 -0.3374 -0.1052
19529TIP3    H180002   6.574   5.605  17.186 -1.4857  1.1851  0.7724
19529TIP3    H280003   6.480   5.589  17.068 -0.2140 -0.1534 -0.0988
19530TIP3   OH280004   5.128   3.201  12.725 -0.0364  0.1985 -0.4192
19530TIP3    H180005   5.177   3.122  12.745  2.4425  2.1761  2.2560
19530TIP3    H280006   5.058   3.203  12.790  0.4228  0.5555  0.0788
19531TIP3   OH280007   2.767   6.318   0.534 -0.3071  0.2089  0.5089
19531TIP3    H180008   2.841   6.284   0.583 -1.6853 -0.9988  1.8714
19531TIP3    H280009   2.794   6.312   0.442  1.7375  1.0420  1.0089
19532TIP3   OH280010   5.154   0.742  11.975  0.2402 -0.0977 -0.0850
19532TIP3    H180011   5.192   0.803  12.039 -2.6315 -0.8334  2.5659
19532TIP3    H280012   5.106   0.799  11.915 -2.1393  0.4756  2.1653
19533TIP3   OH280013   0.709   3.076   5.542  0.1239  0.1797 -0.3171
19533TIP3    H180014   0.788   3.068   5.596  0.5972 -0.2474 -1.0623
19533TIP3    H280015   0.741   3.093   5.454 -0.6606  2.2335 -0.2772
19534TIP3   OH280016   3.772   2.993  11.751 -0.7588 -0.4361 -0.4513
19534TIP3    H180017   3.849   2.980  11.807 -1.9161 -1.1066  1.0632
19534TIP3    H280018   3.802   3.051  11.681  1.5048 -1.8305 -0.7354
19535TIP3   OH280019   0.729   3.607   3.258  0.4242 -0.1985  0.2667
19535TIP3    H180020   0.660   3.603   3.192  1.8288 -0.1015 -1.2903
19535TIP3    H280021   0.781   3.683   3.233 -0.1230  1.0800  2.7146
19536TIP3   OH280022   6.786   3.910   3.509 -0.1018 -0.0285  0.8661
19536TIP3    H180023   6.874   3.888   3.540 -1.0333 -1.8123  2.4759
19536TIP3    H280024   6.777   3.864   3.426  0.0461 -0.9732  1.3577
19537TIP3   OH280025   5.679   1.388  15.579  0.3501 -0.2842  0.7351
19537TIP3    H180026   5.592   1.412  15.610 -0.5597 -1.2391 -0.9839
19537TIP3    H280027   5.733   1.388  15.658 -1.3637 -0.4615  1.9587
19538TIP3   OH280028   0.211   3.850  13.032  0.3136 -0.0271 -0.3058
19538TIP3    H180029   0.232   3.942  13.049  1.5378 -0.2664 -0.4348
19538TIP3    H280030   0.175   3.818  13.114 -1.0021  0.7926 -0.5320
19539TIP3   OH280031   0.409   2.332   0.522 -0.0830  0.0741  0.0100
19539TIP3    H180032   0.328   2.356   0.567  0.0022  0.2232  0.0847
19539TIP3    H280033   0.428   2.243   0.551 -0.3615 -0.0582 -0.2115
19540TIP3   OH280034   4.886   2.527  15.649  0.1964 -0.0360 -0.1469
19540TIP3    H180035   4.893   2.610  15.696  1.2670 -1.4898  2.4738
19540TIP3    H280036   4.953   2.532  15.581  0.8986  0.8961  0.5870
19541TIP3   OH280037   1.640   6.143  11.589 -0.7592  0.7518 -0.3017
19541TIP3    H180038   1.636   6.204  11.516 -3.6653  0.8812 -0.1612
19541TIP3    H280039   1.585   6.183  11.657  0.4040 -0.2244  1.2994
19542TIP3   OH280040   0.471   2.356   5.590  0.6776 -0.1276  0.1819
19542TIP3    H180041   0.467   2.275   5.539  0.7103  0.4358 -0.7314
19542TIP3    H280042   0.385   2.361   5.632  0.9231 -0.9931  0.8259
19543TIP3   OH280043   2.414   5.708  12.909 -0.3745  0.2040 -0.1156
19543TIP3    H180044   2.427   5.619  12.876  0.1661 -0.0753  0.8050
19543TIP3    H280045   2.487   5.757  12.873  0.2029 -0.0944  0.6256
19544TIP3   OH280046   2.794   1.339   2.186 -0.3355  0.2380  0.1642
19544TIP3    H180047   2.838   1.292   2.115  0.7074  0.7292  0.4643
19544TIP3    H280048   2.744   1.408   2.142  1.0415  1.1306 -0.0724
19545TIP3   OH280049   3.128   6.369   3.822 -0.0405  0.1444 -0.3846
19545TIP3    H180050   3.157   6.457   3.798  0.6334  0.2900  0.8798
19545TIP3    H280051   3.209   6.318   3.830 -0.2824 -0.0996  0.7316
19546TIP3   OH280052   2.747   5.632   1.876  0.3633  0.5145 -0.3210
19546TIP3    H180053   2.806   5.591   1.812 -0.2177  0.3190 -0.7415
19546TIP3    H280054   2.674   5.570   1.883  1.6884 -0.9275  2.6697
19547TIP3   OH280055   6.476   3.502  11.763  0.0283  0.3381  0.4267
19547TIP3    H180056   6.526   3.426  11.794 -1.2999 -0.9319 -0.4575
19547TIP3    H280057   6.516   3.525  11.680 -1.7010 -1.6382 -1.0450
19548TIP3   OH280058   3.906   0.187  11.103 -0.2811 -0.1859  0.3862
19548TIP3    H180059   3.993   0.184  11.064  1.0538 -0.7031  3.1814
19548TIP3    H280060   3.861   0.110  11.068 -0.0465  0.5852 -1.8151
19549TIP3   OH280061   3.026   6.353   1.220  0.3143 -0.0676 -0.2289
19549TIP3    H180062   2.952   6.412   1.233 -0.5877 -1.0861 -0.5560
19549TIP3    H280063   3.057   6.334   1.309  0.2836  0.4728 -0.0967
19550TIP3   OH280064   0.886   3.561   3.631 -0.2454  0.0527  0.6783
19550TIP3    H180065   0.954   3.529   3.572  0.1893  1.2363  0.5019
19550TIP3    H280066   0.900   3.512   3.712  1.5120  0.9729  0.9989
19551TIP3   OH280067   5.055   6.619   3.034  0.3426  0.1409  0.2518
19551TIP3    H180068   4.980   6.613   2.974  0.7005 -0.0540 -0.1849
19551TIP3    H280069   5.127   6.580   2.985  1.0622  1.5795  0.1315
19552TIP3   OH280070   6.467   3.535   4.439 -0.5926  0.0019  0.1572
19552TIP3    H180071   6.527   3.465   4.466 -1.0000 -0.5173 -0.2618
19552TIP3    H280072   6.476   3.602   4.507  1.7464  0.7176 -0.7350
19553TIP3   OH280073   0.239   0.670   2.608  0.1229 -0.1308 -0.2672
19553TIP3    H180074   0.178   0.688   2.536 -1.5883 -0.6056  0.9959
19553TIP3    H280075   0.279   0.755   2.628 -2.2837  0.8399  0.7294
19554TIP3   OH280076   5.871   5.682   1.603  0.6262 -0.6352 -0.7656
19554TIP3    H180077   5.780   5.676   1.633  0.7940 -2.6369 -0.5083
19554TIP3    H280078   5.865   5.712   1.513 -0.1690  0.9718 -0.2098
19555TIP3   OH280079   5.289   4.355  16.660  0.5295 -0.6431  0.2122
19555TIP3    H180080   5.295   4.343  16.565  0.3122 -1.0505  0.2478
19555TIP3    H280081   5.233   4.283  16.690 -0.4674  0.2234  0.4907
19556TIP3   OH280082   1.220   2.514   2.649 -0.1274 -0.9020 -0.1390
19556TIP3    H180083   1.196   2.572   2.721 -0.3108  0.1886 -1.0552
19556TIP3    H280084   1.299   2.470   2.680 -0.2078 -0.4503  0.7361
19557TIP3   OH280085   1.710   5.152   3.150  0.1630 -0.1166  0.0516
19557TIP3    H180086   1.625   5.116   3.177 -0.0767  0.7520  0.4818
19557TIP3    H280087   1.757   5.167   3.232 -0.1133  1.4292 -0.0496
19558TIP3   OH280088   5.731   3.096   3.553  0.0923  0.3453  0.0384
19558TIP3    H180089   5.656   3.060   3.506 -0.1725 -0.2172  0.8650
19558TIP3    H280090   5.807   3.072   3.499 -0.0971 -1.2680  0.4374
19559TIP3   OH280091   2.440   1.001   2.555 -0.6928  0.0523  0.1410
19559TIP3    H180092   2.347   1.019   2.552 -0.2814  2.3607 -2.4906
19559TIP3    H280093   2.473   1.057   2.625 -0.9844  1.2285 -0.6283
19560TIP3   OH280094   6.509   0.706  11.066 -0.3082 -0.0005  0.0007
19560TIP3    H180095   6.494   0.749  11.150  0.6622  2.9084 -1.1803
19560TIP3    H280096   6.602   0.684  11.065 -0.0208  1.1411 -0.7402
19561TIP3   OH280097   4.460   1.747   0.589 -0.2600  0.4270 -0.0766
19561TIP3    H180098   4.480   1.809   0.520 -1.5908  1.7158  0.6409
19561TIP3    H280099   4.492   1.663   0.556  1.0825  1.3672 -1.3020
19562TIP3   OH280100   2.599   5.848   3.773  0.2674 -0.1504 -0.1620
19562TIP3    H180101   2.565   5.933   3.746  0.8494  0.0584 -0.2550
19562TIP3    H280102   2.604   5.797   3.692 -0.9307 -0.5897  0.0204
19563TIP3   OH280103   3.351   6.174  15.946  0.4121 -0.2654  0.0119
19563TIP3    H180104   3.267   6.182  15.901 -0.2891  0.4051  1.3676
19563TIP3    H280105   3.381   6.264  15.956  0.3335 -0.3629  1.2434
19564TIP3   OH280106   5.102   2.593  14.601 -0.5306  0.0708  0.1061
19564TIP3    H180107   5.075   2.505  14.574 -0.2326 -0.4007  1.3132
19564TIP3    H280108   5.024   2.630  14.643 -0.6759  0.4221 -0.4572
19565TIP3   OH280109   6.387   0.049  16.689 -0.2426  0.4015  0.8595
19565TIP3    H180110   6.322   0.066  16.757 -0.2118 -1.1762  1.3317
19565TIP3    H280111   6.348  -0.021  16.636 -0.1192  1.3619 -0.5643
19566TIP3   OH280112   3.510   5.856  11.244 -0.3015 -1.0467 -0.3753
19566TIP3    H180113   3.554   5.771  11.244  1.4849 -0.1647 -0.8326
19566TIP3    H280114   3.435   5.844  11.187  2.0809 -1.3172 -3.7026
19567TIP3   OH280115   2.527   0.246   2.050  0.1014 -0.5019  0.4718
19567TIP3    H180116   2.478   0.327   2.037  0.9583  0.0150  0.3381
19567TIP3    H280117   2.598   0.271   2.109  0.5061 -1.1007  0.2498
19568TIP3   OH280118   1.679   1.232   1.121  0.0388 -0.3852  0.1322
19568TIP3    H180119   1.729   1.214   1.200  0.5678 -0.9268 -0.3255
19568TIP3    H280120   1.592   1.256   1.153  0.2368 -0.6436  0.8758
19569TIP3   OH280121   3.041   6.698  16.206  0.0678  0.0696  0.1348
19569TIP3    H180122   3.077   6.633  16.266  1.1662  0.1412 -0.4126
19569TIP3    H280123   3.002   6.765  16.262 -0.5873 -0.7715  0.7149
19570TIP3   OH280124   3.662   2.211  15.373 -0.4024  0.1187 -0.1558
19570TIP3    H180125   3.686   2.266  15.448 -1.8395  0.4603  0.0946
19570TIP3    H280126   3.580   2.250  15.342 -0.7192 -1.0703 -0.8314
19571TIP3   OH280127   2.780   3.487  14.341  0.5103 -0.0688 -0.2948
19571TIP3    H180128   2.745   3.501  14.253  0.7813 -1.3928 -0.6317
19571TIP3    H280129   2.779   3.392  14.353  0.8123  0.0656  1.0014
19572TIP3   OH280130   1.796   5.742   5.487 -0.2499 -0.1173 -0.5141
19572TIP3    H180131   1.873   5.689   5.508  1.2455  2.1942  0.1692
19572TIP3    H280132   1.736   5.726   5.559  1.2459  0.9933  1.0637
19573TIP3   OH280133   6.746   1.375   2.390 -0.3466  0.5541 -0.1412
19573TIP3    H180134   6.703   1.454   2.424  1.2713  0.9438  1.1309
19573TIP3    H280135   6.809   1.351   2.458 -0.3418 -1.4751 -0.8020
19574TIP3   OH280136   2.210   5.786  16.159 -0.0809 -0.3126 -0.4159
19574TIP3    H180137   2.220   5.709  16.104 -0.3506 -0.8154  0.2182
19574TIP3    H280138   2.276   5.847  16.127  0.7580 -1.1571 -0.3460
19575TIP3   OH280139   2.736   4.541   3.298 -0.1955 -0.0613  0.1156
19575TIP3    H180140   2.660   4.515   3.246  0.7712  0.2759 -1.5606
19575TIP3    H280141   2.716   4.629   3.329 -1.8248 -1.1767  2.4883
19576TIP3   OH280142   4.360   4.864  14.742  0.2088  0.5713  0.9046
19576TIP3    H180143   4.444   4.910  14.749 -1.1637  3.4374  0.4409
19576TIP3    H280144   4.329   4.858  14.832  0.8324 -0.3779  1.0651
19577TIP3   OH280145   1.514   5.264  10.352  0.0152 -0.2072  0.1853
19577TIP3    H180146   1.475   5.347  10.324  0.0986 -0.1681  0.1834
19577TIP3    H280147   1.548   5.282  10.440 -2.7574 -1.1151  1.5675
19578TIP3   OH280148   3.826   4.249  14.939  0.4735  0.0219 -0.5000
19578TIP3    H180149   3.769   4.188  14.893 -0.4324 -0.5671  1.3433
19578TIP3    H280150   3.915   4.222  14.913  0.1881 -2.9010  1.1418
19579TIP3   OH280151   0.899   4.031  11.393 -0.5757 -0.0285  0.2906
19579TIP3    H180152   0.862   4.075  11.316  3.4205  1.3374 -1.0699
19579TIP3    H280153   0.934   3.949  11.359 -2.1674 -1.3036  1.5535
19580TIP3   OH280154   4.215   1.787  12.811  0.2624 -0.8544 -0.3183
19580TIP3    H180155   4.201   1.882  12.810  0.7200 -0.7889 -0.9172
19580TIP3    H280156   4.131   1.751  12.840 -0.6407 -0.3765 -2.1904
19581TIP3   OH280157   3.647   5.956  12.536  0.0627 -0.1533  0.8269
19581TIP3    H180158   3.579   5.936  12.472  0.8945  0.8078 -0.4071
19581TIP3    H280159   3.714   5.889  12.521  0.2299  0.0367  0.7097
19582TIP3   OH280160   3.462   1.199  13.964  0.4596  0.3871 -0.0317
19582TIP3    H180161   3.529   1.221  14.029  1.7307  0.0332 -1.1797
19582TIP3    H280162   3.386   1.252  13.990  1.3019  1.1176  1.0654
19583TIP3   OH280163   1.864   0.902   5.018 -0.2309 -0.6116 -0.1386
19583TIP3    H180164   1.887   0.818   5.057 -2.9570 -1.2143  0.3907
19583TIP3    H280165   1.785   0.884   4.966 -0.5739  1.5091 -0.4736
19584TIP3   OH280166   6.587   2.858  11.574 -0.1695  0.2476  0.5669
19584TIP3    H180167   6.620   2.819  11.493 -1.3724 -1.0586  0.6780
19584TIP3    H280168   6.492   2.852  11.567 -0.3079  0.8217  1.7480
19585TIP3   OH280169   4.943   4.475  15.890  0.1323 -0.1462 -0.0947
19585TIP3    H180170   4.883   4.527  15.942 -1.0963 -2.3026  0.7602
19585TIP3    H280171   5.027   4.521  15.896 -0.6425  1.1218  1.4745
19586TIP3   OH280172   5.421   5.218  15.813  0.0831  0.6316 -0.0547
19586TIP3    H180173   5.487   5.149  15.818 -1.3005 -0.8292 -0.7785
19586TIP3    H280174   5.443   5.266  15.733 -0.2887 -0.5070 -0.8745
19587TIP3   OH280175   6.146   5.486  11.054 -0.2387 -0.6604  0.0702
19587TIP3    H180176   6.099   5.469  11.136 -0.5662 -1.4815 -0.2753
19587TIP3    H280177   6.077   5.496  10.988 -0.0658  1.8382  0.1765
19588TIP3   OH280178   5.396   2.425  12.850  0.1808 -0.1740  0.0325
19588TIP3    H180179   5.424   2.515  12.863  0.1388 -0.3882  1.8587
19588TIP3    H280180   5.409   2.409  12.756 -2.4748  2.6052 -0.9770
19589TIP3   OH280181   4.208   6.272   2.266  0.0164  0.0779  0.4957
19589TIP3    H180182   4.202   6.283   2.171 -1.2224 -0.6922  0.4620
19589TIP3    H280183   4.291   6.315   2.290 -0.8888  2.6042 -0.5584
19590TIP3   OH280184   3.636   4.156   2.760 -0.1168 -0.2169 -0.2237
19590TIP3    H180185   3.663   4.068   2.735 -1.3624 -0.3490 -1.1552
19590TIP3    H280186   3.669   4.166   2.850  0.9204 -1.2345 -0.4622
19591TIP3   OH280187   6.355   3.104   0.172 -0.1907 -0.3989 -0.1862
19591TIP3    H180188   6.380   3.121   0.263  0.3195 -0.7349 -0.2568
19591TIP3    H280189   6.311   3.019   0.175  0.9855 -1.0392 -0.4296
19592TIP3   OH280190   1.829   4.518  15.247  0.2189 -0.1706  0.3798
19592TIP3    H180191   1.859   4.551  15.332  0.6672 -0.7193  0.4383
19592TIP3    H280192   1.778   4.440  15.269 -1.3256  0.7718  0.2893
19593TIP3   OH280193   3.991   5.195  12.386  0.3053 -0.2333  0.2736
19593TIP3    H180194   3.982   5.235  12.473 -0.1359 -0.4190  0.3207
19593TIP3    H280195   4.048   5.254  12.338 -2.1914  1.8059 -0.4496
19594TIP3   OH280196   4.664   5.493  15.014 -0.3979  0.0703  0.6284
19594TIP3    H180197   4.683   5.585  14.996 -1.0556  0.1767  0.4547
19594TIP3    H280198   4.718   5.471  15.089  1.5507 -0.0487 -0.7354
19595TIP3   OH280199   3.091   4.400   1.680 -0.3615  0.0238  0.1487
19595TIP3    H180200   3.142   4.345   1.739 -0.8775  0.4153  0.9756
19595TIP3    H280201   3.089   4.351   1.597 -1.3960 -1.5608  1.0474
19596TIP3   OH280202   0.289   6.699  13.925 -0.1035  0.4962  0.2612
19596TIP3    H180203   0.231   6.694  13.849 -0.0710  0.8560  0.2124
19596TIP3    H280204   0.369   6.739  13.891  1.1180 -2.1153 -0.2480
19597TIP3   OH280205   5.544   1.778  14.777  0.3021 -0.6489  0.6927
19597TIP3    H180206   5.589   1.749  14.698  0.5331 -1.8702  1.2672
19597TIP3    H280207   5.463   1.819  14.744  1.4113  0.8693 -0.2877
19598TIP3   OH280208   0.197   0.883   0.868  0.3492 -0.5873 -0.1021
19598TIP3    H180209   0.180   0.805   0.815  0.5010  0.5535 -1.9532
19598TIP3    H280210   0.169   0.956   0.812  1.3348  0.7568  1.0736
19599TIP3   OH280211   1.062   2.475  15.869 -0.4901  0.2639 -0.3076
19599TIP3    H180212   1.052   2.523  15.950 -1.6419 -0.2103 -0.1528
19599TIP3    H280213   0.980   2.426  15.859 -0.0471 -0.3131 -1.3342
19600TIP3   OH280214   5.835   4.125  16.103  0.1685  0.3722  0.2948
19600TIP3    H180215   5.886   4.046  16.087 -0.0187  0.0904  1.0441
19600TIP3    H280216   5.769   4.126  16.034  1.0501  0.6283 -0.5576
19601TIP3   OH280217   5.999   2.951  14.595  0.1098  0.5040  0.1036
19601TIP3    H180218   5.915   2.972  14.554  1.1996  1.4240 -1.7703
19601TIP3    H280219   6.064   2.966  14.527  1.7432 -1.2119  1.1770
19602TIP3   OH280220   3.380   5.696  12.097 -0.1680 -0.0638 -0.4892
19602TIP3    H180221   3.439   5.632  12.058  0.2840  0.6739 -1.0483
19602TIP3    H280222   3.301   5.646  12.119  0.2400 -0.8402 -0.7505
19603TIP3   OH280223   6.788   2.954   1.145  0.1150 -0.3420  0.4045
19603TIP3    H180224   6.878   2.977   1.167  0.4989  0.1026 -1.4989
19603TIP3    H280225   6.792   2.925   1.054 -1.4401 -1.7074  0.7263
19604TIP3   OH280226   4.596   4.747  11.460 -0.0723 -0.1104  0.6030
19604TIP3    H180227   4.507   4.731  11.428 -1.1501  0.6895  2.9457
19604TIP3    H280228   4.601   4.843  11.467  0.8900 -0.1665  0.7573
19605TIP3   OH280229   3.308   0.296   2.922  0.4798 -0.2760  0.0936
19605TIP3    H180230   3.225   0.275   2.878 -0.6741  3.4511  0.0748
19605TIP3    H280231   3.368   0.318   2.851 -0.0038  1.4197  0.1635
19606TIP3   OH280232   6.325   4.002  14.979  0.1627  0.9310 -0.4363
19606TIP3    H180233   6.342   3.915  15.014  0.0458  1.3973  0.8665
19606TIP3    H280234   6.284   3.987  14.894 -0.8399 -0.3020  0.2251
19607TIP3   OH280235   1.166   6.558   0.743 -0.0274  0.5412 -0.1769
19607TIP3    H180236   1.131   6.496   0.806  0.9086  1.7823  1.6325
19607TIP3    H280237   1.128   6.642   0.768  2.2300  1.4732  0.2747
19608TIP3   OH280238   0.964   6.616  15.985  0.0928  0.3994 -0.1454
19608TIP3    H180239   1.040   6.671  16.000  0.0936 -0.1658  2.2350
19608TIP3    H280240   0.892   6.678  15.973  0.5489  0.9216 -0.2430
19609TIP3   OH280241   1.103   0.623  14.705 -0.5049  0.0065  0.3559
19609TIP3    H180242   1.038   0.553  14.712 -0.2360 -0.5016 -1.7517
19609TIP3    H280243   1.182   0.580  14.674  0.5918  0.7841  1.9577
19610TIP3   OH280244   6.701   2.490  16.641  0.3605 -1.0914 -0.3071
19610TIP3    H180245   6.622   2.478  16.588 -0.0549 -3.8164  0.7544
19610TIP3    H280246   6.668   2.516  16.727  0.6721 -1.2239 -0.1449
19611TIP3   OH280247   3.511   0.387  14.922  0.1528 -0.0404 -0.3113
19611TIP3    H180248   3.461   0.325  14.975  3.3227 -0.6496  2.3649
19611TIP3    H280249   3.591   0.339  14.899  1.0622  1.8827 -1.4158
19612TIP3   OH280250   6.074   2.873  11.692  0.4641 -0.1604 -0.1037
19612TIP3    H180251   6.065   2.966  11.713  2.4622 -0.4452  2.5912
19612TIP3    H280252   5.986   2.846  11.667 -0.0578  2.5529 -1.6696
19613TIP3   OH280253   0.263   0.726  11.063 -0.2902 -0.8545  0.1186
19613TIP3    H180254   0.326   0.711  10.993  0.1950 -1.6182  0.7038
19613TIP3    H280255   0.293   0.670  11.135 -2.2754 -2.1800  0.0139
19614TIP3   OH280256   5.188   4.472  12.064  0.1827  0.5289  0.1330
19614TIP3    H180257   5.096   4.457  12.046  0.0959  0.4295  0.6481
19614TIP3    H280258   5.225   4.384  12.076  1.2797  0.1638 -4.3436
19615TIP3   OH280259   3.688   2.740  13.301  0.7966  0.2517  0.1966
19615TIP3    H180260   3.685   2.821  13.353 -0.3823  1.2816 -1.3992
19615TIP3    H280261   3.719   2.768  13.215 -0.1906 -0.8868 -0.5566
19616TIP3   OH280262   2.870   5.344   4.970  0.1204  0.3348 -0.6849
19616TIP3    H180263   2.901   5.255   4.953 -3.0287 -0.6630 -1.9542
19616TIP3    H280264   2.949   5.394   4.992  1.8927 -2.9798  1.2410
19617TIP3   OH280265   6.145   3.821  13.102  0.3633  0.0419 -0.5053
19617TIP3    H180266   6.087   3.747  13.112  2.6824 -2.2696 -2.6416
19617TIP3    H280267   6.159   3.829  13.007 -0.4557  3.8457 -0.4667
19618TIP3   OH280268   4.197   5.024   5.843  0.2107 -0.0086  0.4553
19618TIP3    H180269   4.208   4.964   5.917 -1.5363 -0.3723  0.4724
19618TIP3    H280270   4.274   5.009   5.788  0.8698 -0.6986  1.5359
19619TIP3   OH280271   0.723   4.963   1.734 -0.3611  0.0888  0.4397
19619TIP3    H180272   0.650   5.023   1.726 -0.1802  0.1486 -0.9355
19619TIP3    H280273   0.685   4.876   1.720 -0.6823 -0.2179  2.7349
19620TIP3   OH280274   2.888   1.200   4.528  0.2778  0.0044 -0.0630
19620TIP3    H180275   2.865   1.108   4.513 -3.4100  1.0567 -2.0304
19620TIP3    H280276   2.810   1.238   4.567  1.8772  2.2747  1.1199
19621TIP3   OH280277   1.843   2.629   4.545  0.1745  0.2638  0.2147
19621TIP3    H180278   1.919   2.574   4.561 -0.1750 -0.5709 -0.8881
19621TIP3    H280279   1.825   2.619   4.452 -0.4404  1.5609  0.1681
19622TIP3   OH280280   3.152   3.317   4.624 -0.2468 -0.1381 -0.1514
19622TIP3    H180281   3.181   3.245   4.567 -0.3304 -0.5760  0.3528
19622TIP3    H280282   3.191   3.395   4.585 -1.4141 -0.2430 -1.6137
19623TIP3   OH280283   5.900   4.478   2.463 -0.4205  0.3160  0.3785
19623TIP3    H180284   5.830   4.466   2.399 -0.3441 -1.7072  0.5867
19623TIP3    H280285   5.954   4.399   2.453  0.6847  0.8846  1.6162
19624TIP3   OH280286   3.831   3.194  11.517 -0.2696  0.4373 -0.1088
19624TIP3    H180287   3.788   3.123  11.470  1.3240 -0.0212 -0.9219
19624TIP3    H280288   3.875   3.245  11.450  0.6696  0.7503  0.7193
19625TIP3   OH280289   1.524   1.855   5.671  0.9466 -0.0903 -0.3886
19625TIP3    H180290   1.487   1.910   5.601  0.4761  1.6285  1.1421
19625TIP3    H280291   1.572   1.915   5.727 -0.1848 -1.0914  1.7736
19626TIP3   OH280292   3.699   6.195  15.435  0.4187  0.0528  1.0801
19626TIP3    H180293   3.632   6.130  15.410 -0.9196  1.6127  0.4550
19626TIP3    H280294   3.658   6.247  15.503  1.4782  0.2949  1.5556
19627TIP3   OH280295   2.869   0.567   0.568 -0.7774  0.4849 -0.3924
19627TIP3    H180296   2.946   0.565   0.625  0.8967  1.1970 -2.5121
19627TIP3    H280297   2.798   0.536   0.624  1.0875 -0.5852  1.5522
19628TIP3   OH280298   3.831   4.966  12.009 -0.3886  0.1385 -0.0803
19628TIP3    H180299   3.848   5.003  11.922 -0.1881  2.6019  0.9202
19628TIP3    H280300   3.791   4.881  11.991  0.5924  0.0920 -2.5639
19629TIP3   OH280301   0.847   1.981  11.635  0.0258 -0.7660 -0.0675
19629TIP3    H180302   0.803   1.944  11.712  0.5173  0.7207  0.9694
19629TIP3    H280303   0.914   1.917  11.611 -1.0667 -1.9081 -0.1627
19630TIP3   OH280304   5.222   4.743  14.732 -0.0270 -0.2789 -0.4525
19630TIP3    H180305   5.248   4.835  14.725  0.2795 -0.3933 -0.9350
19630TIP3    H280306   5.209   4.728  14.825  1.2880 -0.0999 -0.2130
19631TIP3   OH280307   5.476   5.283  11.706  0.1515  0.3212 -0.3094
19631TIP3    H180308   5.392   5.329  11.709 -0.3414 -0.3369 -2.5661
19631TIP3    H280309   5.452   5.190  11.717  0.3653 -0.0199 -2.3407
19632TIP3   OH280310   4.590   1.134  16.558  1.0727 -0.0619  0.0651
19632TIP3    H180311   4.658   1.077  16.520 -0.5777 -2.1106  0.0088
19632TIP3    H280312   4.520   1.135  16.493  0.9233  1.8517  0.2114
19633TIP3   OH280313   1.108   3.081   5.171 -0.1156  0.4717 -0.1456
19633TIP3    H180314   1.138   3.087   5.262  2.4714  1.4456 -0.9746
19633TIP3    H280315   1.170   3.021   5.129 -1.8375 -0.7307 -1.1216
19634TIP3   OH280316   1.413   2.331   0.795  0.2728  0.4078  0.1827
19634TIP3    H180317   1.377   2.245   0.817  0.7003 -0.0218 -0.7349
19634TIP3    H280318   1.352   2.366   0.730  0.5396  0.4360 -0.0559
19635TIP3   OH280319   6.425   6.552  13.475 -0.0486  0.2106 -0.3908
19635TIP3    H180320   6.485   6.523  13.544 -0.2083 -0.7525 -0.6440
19635TIP3    H280321   6.455   6.640  13.453  2.2490 -0.7982 -1.5838
19636TIP3   OH280322   0.292   0.036   5.292  0.3464 -0.2177 -0.1323
19636TIP3    H180323   0.314  -0.022   5.365  0.4116  0.2315  0.2082
19636TIP3    H280324   0.262   0.117   5.334 -2.5266 -0.9504 -0.5506
19637TIP3   OH280325   5.832   0.228   1.461  0.3212 -0.0521 -0.3657
19637TIP3    H180326   5.789   0.310   1.436 -1.2979 -0.8756 -0.4059
19637TIP3    H280327   5.919   0.234   1.420 -0.4021  0.8644 -1.8921
19638TIP3   OH280328   0.055   2.372  15.286  0.6775 -0.0469  0.6400
19638TIP3    H180329   0.126   2.375  15.222  0.6563 -0.1107  0.6132
19638TIP3    H280330  -0.015   2.324  15.242  0.1520  1.0853  0.1941
19639TIP3   OH280331   4.173   2.889  11.626  0.4602 -0.0594  0.0202
19639TIP3    H180332   4.180   2.868  11.533  0.7778 -0.4265  0.1285
19639TIP3    H280333   4.192   2.807  11.671 -1.7039 -0.4267  0.3827
19640TIP3   OH280334   0.059   1.678  12.648 -0.3451  0.4739 -0.7734
19640TIP3    H180335  -0.011   1.627  12.691  1.2882 -1.5959 -0.4113
19640TIP3    H280336   0.059   1.762  12.695 -1.6414 -0.0099  0.1673
19641TIP3   OH280337   5.629   2.747   4.437  0.4331 -0.3671  0.6182
19641TIP3    H180338   5.676   2.689   4.497  2.8233  0.6869 -0.1061
19641TIP3    H280339   5.613   2.826   4.489  1.9795  0.3165  0.1353
19642TIP3   OH280340   4.779   4.457  13.141 -0.1672  0.0068 -0.1957
19642TIP3    H180341   4.728   4.507  13.205 -0.2802  0.4707 -0.6433
19642TIP3    H280342   4.761   4.499  13.057  2.3368  1.3458 -0.1634
19643TIP3   OH280343   4.642   0.605   6.380  0.8579  0.3979  0.4092
19643TIP3    H180344   4.569   0.654   6.343  1.5249  1.2528  0.2073
19643TIP3    H280345   4.617   0.513   6.369  0.0679  0.6727 -0.1650
19644TIP3   OH280346   5.471   0.291  15.056  0.0233 -0.6504 -0.0587
19644TIP3    H180347   5.461   0.203  15.018 -0.9650 -0.8503  0.6194
19644TIP3    H280348   5.389   0.335  15.035  0.0460 -0.2883  0.6164
19645TIP3   OH280349   4.121   1.868  16.423 -0.5012  0.1990  0.0559
19645TIP3    H180350   4.150   1.915  16.501 -2.2599 -0.7205  1.3405
19645TIP3    H280351   4.049   1.920  16.388 -0.0534  0.3429 -0.6664
19646TIP3   OH280352   6.392   3.371   1.675  0.5162 -0.3615  0.1199
19646TIP3    H180353   6.468   3.402   1.626  0.1982 -1.1037 -0.8777
19646TIP3    H280354   6.411   3.279   1.692  1.2997  0.2150  2.7509
19647TIP3   OH280355   2.503   5.469   1.819 -0.7449  0.4439 -0.5080
19647TIP3    H180356   2.451   5.482   1.739 -1.7009 -0.8188 -0.1226
19647TIP3    H280357   2.493   5.376   1.839 -0.6340  0.7669  1.1580
19648TIP3   OH280358   1.898   0.452  13.028  0.3942 -0.0271 -0.3030
19648TIP3    H180359   1.956   0.512  12.981  0.2506  0.4609  0.1245
19648TIP3    H280360   1.810   0.488  13.013  0.2971 -0.1954 -0.1338
19649TIP3   OH280361   5.985   3.978  11.158  0.1070  0.1760 -0.2669
19649TIP3    H180362   5.914   3.978  11.093  0.5586 -1.0127 -0.7932
19649TIP3    H280363   6.046   4.045  11.126 -0.7631  1.2355  0.2082
19650TIP3   OH280364   0.125   6.742  13.138 -0.2391 -0.2072 -0.4522
19650TIP3    H180365   0.065   6.696  13.079  1.5415 -1.4516 -1.3780
19650TIP3    H280366   0.147   6.823  13.092 -1.0116  0.1640 -0.1945
19651TIP3   OH280367   5.311   3.681  12.161  0.3996 -0.0489 -0.4039
19651TIP3    H180368   5.332   3.615  12.096 -1.0530  0.2262 -1.1953
19651TIP3    H280369   5.308   3.634  12.244 -2.6807 -1.4931 -1.2030
19652TIP3   OH280370   0.962   1.670   5.580 -0.6304  0.1965  0.0519
19652TIP3    H180371   0.950   1.691   5.673  0.2987  1.9999 -0.2040
19652TIP3    H280372   0.882   1.622   5.557 -2.1729  2.0754  1.1190
19653TIP3   OH280373   0.733   2.891  12.304 -0.3972 -0.6364  0.0215
19653TIP3    H180374   0.675   2.901  12.229 -0.7861  0.2659  0.4299
19653TIP3    H280375   0.781   2.973  12.308 -0.2453 -0.7526  0.6504
19654TIP3   OH280376   5.598   2.405   4.105 -0.7449  0.3633  0.1847
19654TIP3    H180377   5.674   2.357   4.073 -0.4505 -0.1788  1.6182
19654TIP3    H280378   5.525   2.374   4.051 -0.5722 -1.7611  1.1117
19655TIP3   OH280379   4.052   4.866   1.747  0.2926 -0.8211  0.2989
19655TIP3    H180380   3.971   4.822   1.724 -1.1279  1.6005  0.3362
19655TIP3    H280381   4.038   4.897   1.836  0.9225  0.3040  0.0253
19656TIP3   OH280382   2.059   2.030   1.417 -0.5353  1.0621 -0.1914
19656TIP3    H180383   2.111   1.950   1.425 -3.3317 -1.1401 -1.9202
19656TIP3    H280384   2.079   2.062   1.329  1.2674  2.9363  0.8142
19657TIP3   OH280385   0.599   2.093  12.757  0.0365  0.3684 -0.0190
19657TIP3    H180386   0.592   2.181  12.794 -0.7100  0.2780  0.0768
19657TIP3    H280387   0.600   2.035  12.833 -2.2084  0.1367 -0.0874
19658TIP3   OH280388   5.507   1.589  13.633 -0.0950 -0.0318  0.1024
19658TIP3    H180389   5.522   1.603  13.540  1.1679 -0.6210  0.2015
19658TIP3    H280390   5.436   1.649  13.655 -0.5211  0.0013 -1.2651
19659TIP3   OH280391   1.821   0.843  13.736  0.6900  0.2189  0.1865
19659TIP3    H180392   1.859   0.921  13.777  1.3727 -0.3692  0.6931
19659TIP3    H280393   1.746   0.876  13.686  1.3622  1.2868 -0.1356
19660TIP3   OH280394   3.446   6.075  15.084 -0.0939 -0.5914  0.2934
19660TIP3    H180395   3.459   6.045  15.174 -0.3989  0.2201  0.6193
19660TIP3    H280396   3.356   6.106  15.082 -0.1497 -0.7889 -0.3496
19661TIP3   OH280397   3.035   4.043   4.083  0.0766  0.1078 -0.3301
19661TIP3    H180398   3.126   4.066   4.101 -0.3950  0.6040  1.6926
19661TIP3    H280399   3.033   3.947   4.089  0.4502  0.1002 -0.3094
19662TIP3   OH280400   5.361   1.245   3.948 -0.1085  0.3907 -0.4969
19662TIP3    H180401   5.345   1.274   3.858 -1.4648 -2.3555 -1.2606
19662TIP3    H280402   5.274   1.230   3.985  0.4084 -2.1098 -0.0813
19663TIP3   OH280403   1.805   4.255  12.785  0.5058  0.1750  0.2734
19663TIP3    H180404   1.727   4.205  12.810  0.8402 -0.5176 -0.0237
19663TIP3    H280405   1.820   4.314  12.858 -0.6600  0.7606  0.0634
19664TIP3   OH280406   5.419   6.061   4.751  0.0579  0.3092 -0.1595
19664TIP3    H180407   5.352   6.129   4.759  0.2875  0.8977 -2.5513
19664TIP3    H280408   5.379   5.983   4.791 -0.9194  1.3609  0.9813
19665TIP3   OH280409   0.698   1.914  14.416 -0.1576  0.0345 -0.5580
19665TIP3    H180410   0.736   1.842  14.366 -0.0332 -0.5308  0.3251
19665TIP3    H280411   0.643   1.871  14.482  0.4285  0.7134  0.3948
19666TIP3   OH280412   2.008   6.572   2.492 -0.0554 -0.9196 -0.3465
19666TIP3    H180413   2.087   6.555   2.543  1.0955 -0.0439 -1.7682
19666TIP3    H280414   1.959   6.635   2.544  0.6784 -0.6904  0.0817
19667TIP3   OH280415   5.926   5.788   0.222 -0.3496 -0.3279  0.1909
19667TIP3    H180416   5.974   5.817   0.144  0.5997  0.8446  1.1902
19667TIP3    H280417   5.990   5.791   0.293 -1.2518 -1.2002  1.0703
19668TIP3   OH280418   3.894   3.609  11.251 -0.8213  0.4739 -0.0279
19668TIP3    H180419   3.969   3.578  11.303 -0.7345  1.4980  0.4907
19668TIP3    H280420   3.930   3.622  11.164 -0.4423  0.7239  0.1607
19669TIP3   OH280421   1.785   1.897   0.307 -0.3615 -0.3400  0.0156
19669TIP3    H180422   1.694   1.877   0.287 -0.0256 -0.8009 -1.1873
19669TIP3    H280423   1.784   1.933   0.395 -1.7392 -0.0774 -0.0928
19670TIP3   OH280424   3.155   1.338  17.161 -0.3494  0.1574 -0.0547
19670TIP3    H180425   3.239   1.381  17.179  0.1205 -0.9032  0.3458
19670TIP3    H280426   3.178   1.249  17.134 -1.2113  0.6093 -2.5519
19671TIP3   OH280427   3.730   2.275  12.040 -0.0459  0.0476  0.2189
19671TIP3    H180428   3.679   2.321  11.973 -0.8421 -0.6404  0.3394
19671TIP3    H280429   3.671   2.270  12.115  1.1178  1.5676  1.3122
19672TIP3   OH280430   6.158   3.591  11.133  0.0658 -0.1406 -0.5177
19672TIP3    H180431   6.091   3.602  11.065 -1.0198  1.9848  0.7786
19672TIP3    H280432   6.240   3.616  11.090 -0.1160 -1.5834 -1.7859
19673TIP3   OH280433   0.797   6.692  12.407 -0.3251  1.1282 -0.1976
19673TIP3    H180434   0.821   6.615  12.459  0.4620  1.8375  0.5065
19673TIP3    H280435   0.779   6.657  12.320 -0.1197  0.1261  0.1462
19674TIP3   OH280436   4.981   0.250  15.803  0.5082 -0.0215 -0.3183
19674TIP3    H180437   5.072   0.249  15.775  1.2362 -0.2658  1.8364
19674TIP3    H280438   4.981   0.201  15.885 -1.8566 -1.3677 -1.0253
19675TIP3   OH280439   0.835   6.404   2.273  0.3764 -0.1793  0.0596
19675TIP3    H180440   0.808   6.313   2.283  1.6502 -0.5461  0.3126
19675TIP3    H280441   0.826   6.442   2.360 -0.0547 -0.0854 -0.0237
19676TIP3   OH280442   3.613   4.083  12.662  0.2809  0.4254 -0.1298
19676TIP3    H180443   3.670   4.119  12.729  1.4928 -0.0361 -0.8710
19676TIP3    H280444   3.592   3.995  12.693  2.0985 -0.3819 -1.0098
19677TIP3   OH280445   1.967   5.011   2.670 -0.2604 -0.2130 -0.5123
19677TIP3    H180446   1.973   4.921   2.637 -1.6801 -0.5174  0.0017
19677TIP3    H280447   1.881   5.041   2.644  0.2061  1.0274 -0.6896
19678TIP3   OH280448   2.506   6.077   3.683  0.2536 -0.2426  0.0350
19678TIP3    H180449   2.541   6.151   3.633 -0.5170  0.7588  0.9330
19678TIP3    H280450   2.425   6.054   3.638  0.6008 -0.7054 -0.3713
19679TIP3   OH280451   2.483   1.366   0.555 -0.0478  0.4935  0.1487
19679TIP3    H180452   2.467   1.438   0.616 -0.8618  0.5733 -0.1475
19679TIP3    H280453   2.498   1.409   0.470  0.9070  0.3760  0.2492
19680TIP3   OH280454   3.992   6.487  10.402 -0.3427 -0.4432 -1.2498
19680TIP3    H180455   4.010   6.436  10.482 -1.3467  1.0153 -0.0276
19680TIP3    H280456   4.050   6.450  10.336  0.6306 -1.6200  0.2041
19681TIP3   OH280457   4.051   1.572  16.982 -0.7007 -0.0696  0.0922
19681TIP3    H180458   3.957   1.592  16.981 -0.8210 -0.6138 -0.9615
19681TIP3    H280459   4.093   1.653  16.954 -0.8154  0.3106  0.9850
19682TIP3   OH280460   3.794   0.658   4.145  0.4597 -0.0472 -0.3203
19682TIP3    H180461   3.860   0.608   4.194  0.4478 -0.2524 -0.5105
19682TIP3    H280462   3.833   0.671   4.059  0.8077  0.9902 -0.0236
19683TIP3   OH280463   0.053   4.756  12.851 -0.6558  0.0812  0.0056
19683TIP3    H180464   0.122   4.799  12.901 -1.6037  0.8656  0.6652
19683TIP3    H280465   0.064   4.663  12.871  0.6574  0.1096 -0.4869
19684TIP3   OH280466   0.926   0.995  16.638  0.5173 -0.5528  0.6903
19684TIP3    H180467   0.952   1.072  16.587  0.0164 -2.0667 -2.0482
19684TIP3    H280468   0.961   1.011  16.725  2.4760  1.7024 -0.3963
19685TIP3   OH280469   1.626   2.322  16.331  0.1231  0.2836 -1.0938
19685TIP3    H180470   1.628   2.280  16.417  0.7651  0.7284 -0.8850
19685TIP3    H280471   1.547   2.377  16.335 -1.1309 -1.3823 -1.6302
19686TIP3   OH280472   5.711   4.833   5.992 -0.2862  1.0966 -0.1839
19686TIP3    H180473   5.684   4.834   5.900  1.8449 -1.4070 -0.9339
19686TIP3    H280474   5.757   4.916   6.004 -0.8243  1.5751 -1.2723
19687TIP3   OH280475   1.254   4.700   4.030 -0.0960  0.3855 -0.1536
19687TIP3    H180476   1.249   4.728   3.938  0.4664  0.6709 -0.1025
19687TIP3    H280477   1.195   4.758   4.077 -1.8453 -0.9487 -0.5920
19688TIP3   OH280478   4.243   2.688   0.887  0.2258 -0.6005  0.6509
19688TIP3    H180479   4.156   2.652   0.873 -0.4272  0.9236  0.5889
19688TIP3    H280480   4.285   2.684   0.801 -0.1434 -0.4607  0.4602
19689TIP3   OH280481   5.221   5.305   3.219  0.1211  0.3029 -0.3815
19689TIP3    H180482   5.261   5.297   3.132 -1.8208  0.2988 -1.3240
19689TIP3    H280483   5.242   5.222   3.262 -0.4838 -0.4815 -1.5546
19690TIP3   OH280484   0.723   3.828   1.014 -0.3233  0.1228  0.5151
19690TIP3    H180485   0.696   3.854   0.926  0.4722 -0.2576  0.1494
19690TIP3    H280486   0.813   3.858   1.021 -0.0602 -0.7066  0.8354
19691TIP3   OH280487   2.716   5.572  15.552  0.0604  0.3502  0.1042
19691TIP3    H180488   2.802   5.591  15.591 -0.4602  1.3889  0.8097
19691TIP3    H280489   2.712   5.629  15.475  0.0184  0.2799  0.0544
19692TIP3   OH280490   5.585   1.418   3.788 -0.1811  0.1227 -0.9261
19692TIP3    H180491   5.502   1.387   3.750  0.0805 -1.8710 -0.0333
19692TIP3    H280492   5.628   1.338   3.819  0.3090  1.4351  2.1622
19693TIP3   OH280493   1.527   6.340  14.292 -0.1160 -0.2131  0.2108
19693TIP3    H180494   1.600   6.300  14.339 -0.5688  0.8760  1.9411
19693TIP3    H280495   1.540   6.434  14.304 -0.5484  0.0727 -1.4381
19694TIP3   OH280496   4.424   5.451   1.249 -0.3531  0.0809  0.6933
19694TIP3    H180497   4.421   5.403   1.166 -0.7356  1.5882 -0.2147
19694TIP3    H280498   4.513   5.438   1.282 -0.4275 -1.1578  0.4464
19695TIP3   OH280499   1.290   5.492   5.690 -0.1451  0.2262 -0.2756
19695TIP3    H180500   1.381   5.464   5.700 -0.3731  0.0488  2.0073
19695TIP3    H280501   1.295   5.587   5.677  0.3907  0.1386 -0.7010
19696TIP3   OH280502   2.494   3.839  14.916  0.0009 -0.0352  0.5149
19696TIP3    H180503   2.541   3.909  14.961 -0.9117  0.3843  0.8218
19696TIP3    H280504   2.536   3.834  14.830  0.4343  0.5058  0.6880
19697TIP3   OH280505   3.390   2.263  15.324  0.7104 -0.3903  0.5516
19697TIP3    H180506   3.417   2.355  15.320  1.0100 -0.4501  1.1922
19697TIP3    H280507   3.334   2.257  15.400 -0.6817 -0.3937 -0.4363
19698TIP3   OH280508   5.870   2.458   2.051 -0.6110  0.2789  0.1437
19698TIP3    H180509   5.930   2.455   1.977  1.2452  1.5854  1.4901
19698TIP3    H280510   5.832   2.371   2.055 -0.3765  0.0222 -1.9955
19699TIP3   OH280511   2.617   5.217  10.639  0.2400 -0.1156 -0.4357
19699TIP3    H180512   2.558   5.197  10.566  0.3418  0.0061 -0.5522
19699TIP3    H280513   2.559   5.241  10.711  0.1300 -0.4547 -0.4094
19700TIP3   OH280514   0.620   4.267   3.825 -0.5353  0.3852 -0.0488
19700TIP3    H180515   0.537   4.314   3.815 -1.8700 -1.6302  0.7334
19700TIP3    H280516   0.615   4.229   3.913  1.4683  0.6181  0.2066
19701TIP3   OH280517   6.012   5.968  16.166  0.1245 -0.1151 -0.6278
19701TIP3    H180518   5.917   5.957  16.173  0.3319 -1.1460  0.8714
19701TIP3    H280519   6.046   5.879  16.160  0.9401  0.2657 -2.7244
19702TIP3   OH280520   6.530   5.738   3.463 -0.5966 -0.8662 -0.2741
19702TIP3    H180521   6.552   5.793   3.388 -0.7700 -0.5919 -0.1271
19702TIP3    H280522   6.437   5.755   3.479  0.0944  1.5485  1.9525
19703TIP3   OH280523   5.995   3.582  13.095 -0.0188 -0.3468 -0.2037
19703TIP3    H180524   6.058   3.543  13.034  1.2056  1.5923 -0.2475
19703TIP3    H280525   5.930   3.623  13.038 -0.3324 -0.7850 -0.1674
19704TIP3   OH280526   6.387   6.033  14.949  0.4966 -0.1633 -0.4051
19704TIP3    H180527   6.294   6.037  14.971  0.3990 -0.9018 -0.6680
19704TIP3    H280528   6.399   6.101  14.883  0.4333  0.8742  0.6122
19705TIP3   OH280529   0.665   2.502  13.539  0.5065  0.0409  0.3334
19705TIP3    H180530   0.572   2.501  13.560  0.3120  2.2853 -0.2427
19705TIP3    H280531   0.706   2.455  13.612 -1.0048 -0.5041  0.8729
19706TIP3   OH280532   5.233   2.240  13.029  0.0396 -0.0170 -0.3129
19706TIP3    H180533   5.245   2.161  12.977 -0.0434 -0.9817  1.0839
19706TIP3    H280534   5.315   2.289  13.018  1.6567 -2.0724  1.7070
19707TIP3   OH280535   5.233   4.513   0.884  0.0727 -0.0577  0.5202
19707TIP3    H180536   5.324   4.541   0.871  0.3471 -0.7933  0.8067
19707TIP3    H280537   5.190   4.589   0.923  0.4287  0.4839 -0.1070
19708TIP3   OH280538   5.378   5.173   3.578 -0.0977 -0.6548  0.3098
19708TIP3    H180539   5.403   5.265   3.589  1.7958 -1.1807  0.7936
19708TIP3    H280540   5.297   5.164   3.627 -0.4639  0.8155  0.0213
19709TIP3   OH280541   0.468   4.165   3.500 -0.4798 -0.8550 -0.1501
19709TIP3    H180542   0.505   4.245   3.462 -2.0761  0.8472  1.6536
19709TIP3    H280543   0.433   4.116   3.425 -1.2937  1.1492 -1.1443
19710TIP3   OH280544   5.716   6.207   1.657  0.2239 -0.5170  0.1513
19710TIP3    H180545   5.657   6.280   1.641 -0.2861 -0.8777  0.3656
19710TIP3    H280546   5.771   6.236   1.730 -0.6155 -0.7097  0.8762
19711TIP3   OH280547   6.132   2.626  11.427 -0.4502 -0.6000 -0.1011
19711TIP3    H180548   6.176   2.541  11.428  0.2430 -0.4564 -4.0597
19711TIP3    H280549   6.048   2.609  11.383 -1.5847  0.3499  1.5609
19712TIP3   OH280550   0.135   4.601  13.802 -0.2046  0.3166  0.4542
19712TIP3    H180551   0.104   4.684  13.837 -1.7841  0.0196 -0.1649
19712TIP3    H280552   0.060   4.542  13.809  0.8045 -0.9879  0.6331
19713TIP3   OH280553   6.191   3.762  16.019  0.4145 -0.6784 -0.8592
19713TIP3    H180554   6.287   3.762  16.012  0.4160 -1.0755 -0.8341
19713TIP3    H280555   6.161   3.759  15.928  0.4322 -2.0487 -0.8373
19714TIP3   OH280556   4.209   4.892   0.552 -0.1811  0.1155  0.4334
19714TIP3    H180557   4.117   4.875   0.532 -0.5963  0.3027  2.0366
19714TIP3    H280558   4.240   4.946   0.480 -0.7932 -1.4595 -1.0943
19715TIP3   OH280559   3.223   6.473   1.707 -0.2722  0.7506  0.2986
19715TIP3    H180560   3.158   6.532   1.746 -0.9412  1.7050 -2.0751
19715TIP3    H280561   3.306   6.517   1.720 -0.4610  0.9700  0.7771
19716TIP3   OH280562   5.673   3.783   3.876  0.4998 -0.2525 -0.0919
19716TIP3    H180563   5.704   3.805   3.788  2.9167  0.0418  0.7657
19716TIP3    H280564   5.656   3.868   3.917  1.2807 -0.2989  0.3449
19717TIP3   OH280565   3.643   6.481  13.285 -0.3977 -0.5521  0.3054
19717TIP3    H180566   3.677   6.409  13.338  1.4504  0.5242  0.6784
19717TIP3    H280567   3.651   6.558  13.341 -2.5910 -0.0440  0.0203
19718TIP3   OH280568   5.928   1.040   2.751 -0.1381  0.1747  0.2338
19718TIP3    H180569   5.900   1.075   2.836 -1.9248  0.4929 -0.4350
19718TIP3    H280570   6.023   1.032   2.758 -0.3868 -1.5525  2.8951
19719TIP3   OH280571   4.022   3.379   1.607  0.1988  0.4612 -0.1620
19719TIP3    H180572   4.024   3.410   1.516 -1.0965 -0.4213 -0.5155
19719TIP3    H280573   4.005   3.458   1.658  1.9408  1.1464 -0.5551
19720TIP3   OH280574   3.802   1.509  13.514  0.3282  0.3510 -0.3457
19720TIP3    H180575   3.820   1.415  13.502 -0.6452  0.2866 -1.4395
19720TIP3    H280576   3.746   1.512  13.593  0.2134 -0.0077 -0.4087
19721TIP3   OH280577   0.556   3.557   3.488  0.7250  0.0915 -0.6215
19721TIP3    H180578   0.635   3.561   3.435  1.2955 -0.3864  0.1823
19721TIP3    H280579   0.530   3.465   3.488 -0.6749  0.4343 -2.0662
19722TIP3   OH280580   5.429   0.992  12.287 -0.2758  0.6859 -0.6290
19722TIP3    H180581   5.490   0.943  12.343  0.2308 -0.0867 -1.8131
19722TIP3    H280582   5.414   1.074  12.335 -0.8703 -0.4486  1.2417
19723TIP3   OH280583   2.248   6.674  17.128  0.3473 -0.3734 -0.4143
19723TIP3    H180584   2.318   6.734  17.101  0.1481 -0.2432 -0.6359
19723TIP3    H280585   2.244   6.684  17.223 -0.3414  0.6917 -0.5437
19724TIP3   OH280586   3.464   1.652   6.398 -0.4271 -0.7516 -0.4762
19724TIP3    H180587   3.474   1.699   6.315  0.3607 -0.7024 -0.3635
19724TIP3    H280588   3.371   1.629   6.402 -0.5210 -0.5244 -1.2462
19725TIP3   OH280589   0.954   3.352   0.861  0.3534  0.7210 -0.3280
19725TIP3    H180590   0.992   3.300   0.932  0.6326  1.9355  0.4351
19725TIP3    H280591   1.028   3.376   0.806  0.1999  0.1728 -0.7803
19726TIP3   OH280592   5.180   1.810   1.793  0.1079  0.6043 -0.3653
19726TIP3    H180593   5.129   1.746   1.843 -0.3369  0.8038 -0.5617
19726TIP3    H280594   5.129   1.824   1.714  0.0555  1.4304 -0.1921
19727TIP3   OH280595   4.547   6.378   6.496  0.3388 -0.0062 -0.0558
19727TIP3    H180596   4.586   6.364   6.582  2.5007  1.2006 -0.7475
19727TIP3    H280597   4.566   6.298   6.448  0.7200  0.0136  0.0588
19728TIP3   OH280598   0.303   3.226  15.343  0.7187 -0.3615  0.4754
19728TIP3    H180599   0.393   3.199  15.361  1.9837  2.4069 -1.0323
19728TIP3    H280600   0.295   3.221  15.248 -0.9889 -1.1973  0.6323
19729TIP3   OH280601   1.442   3.652  13.230 -0.5584  0.1707  0.4041
19729TIP3    H180602   1.459   3.631  13.322  0.2965  0.8206  0.4063
19729TIP3    H280603   1.350   3.630  13.217  0.4342 -5.0711 -0.0149
19730TIP3   OH280604   6.367   4.310  13.142  0.1932 -0.0223 -0.6125
19730TIP3    H180605   6.356   4.405  13.136  3.0494  0.6081  1.7250
19730TIP3    H280606   6.318   4.285  13.220 -0.9595 -0.6137 -1.4960
19731TIP3   OH280607   0.946   0.531  14.334  0.2496 -0.6263 -0.2351
19731TIP3    H180608   0.984   0.464  14.391  2.5168  0.4567 -0.3466
19731TIP3    H280609   0.921   0.602  14.393  1.9598  0.2068 -0.4406
19732TIP3   OH280610   0.308   0.779  11.697  0.1478  0.1562  0.0248
19732TIP3    H180611   0.311   0.868  11.661 -2.0420 -0.4188 -1.8522
19732TIP3    H280612   0.395   0.743  11.678  0.5093  1.3506 -0.7196
19733TIP3   OH280613   5.407   5.045  11.834  0.4487  0.1127 -0.1497
19733TIP3    H180614   5.348   5.013  11.902  0.2467 -0.8616 -0.7692
19733TIP3    H280615   5.448   4.967  11.798 -0.1156  0.5070 -1.7529
19734TIP3   OH280616   3.389   0.760   0.239  0.4744 -0.3122  0.1968
19734TIP3    H180617   3.416   0.669   0.250 -0.3678 -0.6674 -0.5467
19734TIP3    H280618   3.435   0.790   0.161  1.1709  0.0779  0.7471
19735TIP3   OH280619   4.562   4.343  17.149 -0.3274  0.2825 -0.1831
19735TIP3    H180620   4.483   4.311  17.193 -0.7437  1.6462  0.1110
19735TIP3    H280621   4.565   4.294  17.067 -0.1687 -1.4812  0.8201
19736TIP3   OH280622   5.708   3.385   0.876 -0.2649 -0.0493 -0.1837
19736TIP3    H180623   5.764   3.422   0.807 -1.4286  0.7970 -0.7075
19736TIP3    H280624   5.621   3.420   0.857 -0.6957 -0.1380  1.4816
19737TIP3   OH280625   5.355   2.818   0.477 -0.0426 -0.1885  0.2973
19737TIP3    H180626   5.441   2.835   0.437 -0.6292 -0.0173 -0.9642
19737TIP3    H280627   5.342   2.892   0.537  0.5713 -0.0738  0.3005
19738TIP3   OH280628   5.359   3.147  13.073  0.0973  0.1207 -0.4281
19738TIP3    H180629   5.422   3.125  13.005 -0.2382  1.8750 -1.3628
19738TIP3    H280630   5.373   3.081  13.141  1.2827 -0.9427 -1.6496
19739TIP3   OH280631   4.125   5.752  12.327 -0.1712  0.2079  0.0699
19739TIP3    H180632   4.129   5.675  12.384 -1.5379  0.2985  0.3231
19739TIP3    H280633   4.216   5.768  12.303  0.0045 -2.8003 -1.8146
19740TIP3   OH280634   5.789   3.155   2.641  0.1012 -0.7157  0.1765
19740TIP3    H180635   5.748   3.241   2.631 -0.8447 -1.0521  1.0457
19740TIP3    H280636   5.823   3.154   2.730 -1.0535 -1.7125  0.6335
19741TIP3   OH280637   0.215   6.023  10.999  0.2101  0.0217 -0.5574
19741TIP3    H180638   0.287   5.962  11.018 -0.1259 -0.1601  0.1746
19741TIP3    H280639   0.237   6.060  10.913  1.4541  0.3815 -0.1043
19742TIP3   OH280640   2.124   0.769   1.097 -0.0431 -0.6053 -0.1470
19742TIP3    H180641   2.040   0.778   1.052 -0.9377 -1.5948  1.2445
19742TIP3    H280642   2.132   0.676   1.115  1.4623 -0.5495 -0.4049
19743TIP3   OH280643   1.231   2.944   1.919  0.2550 -0.0656 -0.0140
19743TIP3    H180644   1.153   2.892   1.938  1.1856 -1.5630 -0.1423
19743TIP3    H280645   1.258   2.978   2.005 -0.1002 -0.1684  0.1432
19744TIP3   OH280646   1.106   3.362   5.206  0.1401 -0.8275 -0.2103
19744TIP3    H180647   1.110   3.278   5.161 -0.5520 -0.8042 -0.3352
19744TIP3    H280648   1.186   3.408   5.180  0.5270 -1.4511 -0.1262
19745TIP3   OH280649   5.348   2.386   2.243  0.4901  0.7789  0.6709
19745TIP3    H180650   5.371   2.415   2.155  1.6933 -2.5257 -0.2313
19745TIP3    H280651   5.254   2.369   2.239  0.7221 -0.4059 -0.3818
19746TIP3   OH280652   1.663   5.471  16.132 -0.1339 -0.1958  0.0444
19746TIP3    H180653   1.659   5.483  16.227  1.1417 -1.3194  0.2734
19746TIP3    H280654   1.597   5.405  16.113  0.4834 -0.9158  0.3486
19747TIP3   OH280655   2.196   5.576   4.918 -0.3028  0.0022 -0.5478
19747TIP3    H180656   2.280   5.530   4.907 -0.2192 -0.1887  0.7577
19747TIP3    H280657   2.140   5.539   4.850  0.6596  0.1200 -1.4416
19748TIP3   OH280658   1.484   5.678  14.655  0.3877 -0.7326  0.1895
19748TIP3    H180659   1.439   5.711  14.733  0.3170  0.4570 -0.3373
19748TIP3    H280660   1.434   5.714  14.581  1.2719 -0.6922 -0.4073
19749TIP3   OH280661   4.120   4.529   1.832 -0.4687  0.3417 -0.1994
19749TIP3    H180662   4.165   4.572   1.759  2.3577  0.3694  1.3922
19749TIP3    H280663   4.072   4.457   1.792 -0.5400  1.4604 -2.2582
19750TIP3   OH280664   2.140   1.003   1.232 -0.5196 -0.3526 -0.0744
19750TIP3    H180665   2.141   0.910   1.209 -1.6934 -0.3987  0.0175
19750TIP3    H280666   2.229   1.020   1.265 -0.3201 -1.4554  0.0094
19751TIP3   OH280667   6.269   0.259  13.806  0.4328  0.4445  0.2111
19751TIP3    H180668   6.174   0.260  13.800  0.5133 -0.0094 -1.5177
19751TIP3    H280669   6.300   0.249  13.716  2.1186  0.3410  0.7495
19752TIP3   OH280670   5.022   0.708  14.884  0.1205  0.1268 -0.4792
19752TIP3    H180671   4.963   0.669  14.819 -0.1373  0.3622 -0.3882
19752TIP3    H280672   5.019   0.648  14.958  1.1696 -0.6596 -1.0463
19753TIP3   OH280673   4.815   6.600  11.017  0.4286 -0.5751  0.0147
19753TIP3    H180674   4.786   6.610  10.926  1.2982 -1.2482 -0.3484
19753TIP3    H280675   4.818   6.506  11.032  1.0778 -0.4910  0.4718
19754TIP3   OH280676   4.402   4.619   2.056  0.3692 -0.2434 -0.5842
19754TIP3    H180677   4.356   4.686   2.007 -1.0543 -0.8698 -0.1713
19754TIP3    H280678   4.440   4.562   1.989  1.0756  0.6121 -0.9308
19755TIP3   OH280679   1.844   4.930  16.507 -0.0907 -0.2166 -0.0430
19755TIP3    H180680   1.828   5.024  16.498 -1.3710 -0.5172 -1.3335
19755TIP3    H280681   1.930   4.915  16.468  0.5147  0.5206  0.9671
19756TIP3   OH280682   2.812   0.198   1.620  0.0046 -0.6758  0.0736
19756TIP3    H180683   2.804   0.199   1.715  1.2475  0.9473  0.2007
19756TIP3    H280684   2.721   0.205   1.589 -0.3143  0.5376  1.1769
19757TIP3   OH280685   4.542   5.574  11.778 -0.1959  0.4191  0.1391
19757TIP3    H180686   4.555   5.483  11.806  0.2087  0.6359  0.6489
19757TIP3    H280687   4.603   5.625  11.830 -0.8426  1.0629  0.2806
19758TIP3   OH280688   0.530   0.713  16.089  0.3291 -0.5568 -0.0945
19758TIP3    H180689   0.472   0.642  16.064  0.5517 -1.1651  1.0284
19758TIP3    H280690   0.567   0.745  16.006 -0.5373 -1.0713 -0.6912
19759TIP3   OH280691   3.898   1.199  12.936 -0.0291 -0.0244 -0.3222
19759TIP3    H180692   3.970   1.141  12.961  0.8422  1.1814  0.0781
19759TIP3    H280693   3.939   1.286  12.930 -1.4350  0.6679 -0.1954
19760TIP3   OH280694   3.202   4.882   4.127  0.3566 -0.4330  0.5281
19760TIP3    H180695   3.198   4.826   4.204 -0.2290 -0.8235  0.2287
19760TIP3    H280696   3.110   4.905   4.110  0.3069 -1.5201 -0.8741
19761TIP3   OH280697   4.377   5.021  12.114 -0.5852 -0.2946  0.1833
19761TIP3    H180698   4.294   4.985  12.145 -1.8706  1.2770 -1.2080
19761TIP3    H280699   4.372   5.114  12.136  1.8575 -0.5114  2.1125
19762TIP3   OH280700   4.083   1.744   3.928  0.5969  0.4877 -0.2313
19762TIP3    H180701   4.061   1.651   3.917 -0.3878  0.6298  0.3735
19762TIP3    H280702   4.035   1.789   3.859 -1.1146  0.7988  1.0862
19763TIP3   OH280703   2.983   1.889   4.131 -0.7673 -0.1876  0.6622
19763TIP3    H180704   3.048   1.947   4.171  0.8871 -2.3695  1.3709
19763TIP3    H280705   2.953   1.936   4.053  2.6366  0.4737 -0.4327
19764TIP3   OH280706   5.994   5.090  12.616 -0.0237  0.1808 -0.5521
19764TIP3    H180707   5.965   5.015  12.563 -2.0074  0.2343  0.3565
19764TIP3    H280708   6.024   5.154  12.552 -0.8750 -0.3540 -1.5264
19765TIP3   OH280709   1.163   2.405  16.147 -0.2665  0.4107  0.0170
19765TIP3    H180710   1.089   2.423  16.204  0.0953  0.4116  0.4940
19765TIP3    H280711   1.215   2.485  16.150 -0.3298  0.4686 -0.4426
19766TIP3   OH280712   0.815   6.454   2.539 -0.5558  0.6006 -0.3518
19766TIP3    H180713   0.820   6.399   2.617  1.8613 -0.5802 -1.2230
19766TIP3    H280714   0.865   6.532   2.561  0.4349  0.1103 -0.7740
19767TIP3   OH280715   1.691   5.209  15.321 -0.2943 -0.6663 -0.0757
19767TIP3    H180716   1.761   5.217  15.386 -0.7820 -1.3191  0.5419
19767TIP3    H280717   1.656   5.121  15.334  0.0110 -1.0495 -1.6534
19768TIP3   OH280718   3.646   1.075   1.361  0.2116 -0.4241  0.3192
19768TIP3    H180719   3.713   1.130   1.400 -1.9747  1.1780  2.0528
19768TIP3    H280720   3.625   1.118   1.278 -0.0963  0.2473  0.7399
19769TIP3   OH280721   6.083   4.019  10.687 -0.2105  0.1628  0.6974
19769TIP3    H180722   6.016   4.036  10.622  0.6274  1.0938  0.0614
19769TIP3    H280723   6.051   4.062  10.766 -1.0231 -0.6041  0.8051
19770TIP3   OH280724   1.480   3.984   2.838 -0.1348  0.5581 -0.5044
19770TIP3    H180725   1.548   4.015   2.896  0.5872 -3.1341  0.9316
19770TIP3    H280726   1.504   4.018   2.752  1.0450  2.8320  0.6384
19771TIP3   OH280727   5.374   5.002  13.968 -0.4992 -0.0010  0.3234
19771TIP3    H180728   5.341   4.922  14.009 -1.8334  0.9432  1.1630
19771TIP3    H280729   5.322   5.010  13.888  1.1460 -1.0975 -0.9258
19772TIP3   OH280730   5.441   2.978   4.541 -0.1674  0.4100 -0.5697
19772TIP3    H180731   5.385   2.901   4.547 -1.4367  1.2583 -1.1080
19772TIP3    H280732   5.431   3.022   4.625  0.2029  0.2274 -0.4288
19773TIP3   OH280733   6.002   3.173   2.404 -0.4416  0.7700  0.0775
19773TIP3    H180734   6.013   3.096   2.348  0.7510  1.0715 -0.1209
19773TIP3    H280735   5.937   3.145   2.469 -1.1189  0.0914 -0.8546
19774TIP3   OH280736   4.353   0.187   6.203  0.2297 -0.0690 -0.0228
19774TIP3    H180737   4.397   0.224   6.280 -1.4020 -1.1041  1.4666
19774TIP3    H280738   4.355   0.093   6.217 -1.1013 -0.2179 -0.6608
19775TIP3   OH280739   5.882   1.389   1.478 -0.6135 -0.2064 -0.9074
19775TIP3    H180740   5.808   1.347   1.433  0.8396 -0.3866 -3.3355
19775TIP3    H280741   5.874   1.482   1.454 -0.2684 -0.1584 -0.8343
19776TIP3   OH280742   0.988   5.464   5.307 -0.1773  0.5680 -0.6339
19776TIP3    H180743   1.082   5.452   5.298 -0.5215 -3.0160 -0.7782
19776TIP3    H280744   0.962   5.510   5.228  1.1595 -0.7412 -1.8910
19777TIP3   OH280745   2.319   0.528  14.631  0.1513  0.3164  0.0721
19777TIP3    H180746   2.293   0.436  14.619  1.8931  0.0865 -2.8894
19777TIP3    H280747   2.245   0.578  14.595  0.5672 -0.0873 -1.4165
19778TIP3   OH280748   4.151   3.835  16.031 -0.5575 -0.1215  0.0554
19778TIP3    H180749   4.179   3.743  16.034 -0.2498  0.0006  1.3080
19778TIP3    H280750   4.190   3.869  15.951 -0.0637 -0.8967 -0.0404
19779TIP3   OH280751   4.402   2.539  14.974 -0.2176  0.0944  0.9271
19779TIP3    H180752   4.435   2.496  14.894  1.4078 -0.2912  1.7635
19779TIP3    H280753   4.381   2.628  14.946  1.2209  0.2519  0.2349
19780TIP3   OH280754   1.918   1.765   1.276 -0.0241 -0.1919  0.0949
19780TIP3    H180755   1.978   1.803   1.340 -0.6578 -0.9038  1.1441
19780TIP3    H280756   1.974   1.710   1.221  0.5723  0.6469 -0.1505
19781TIP3   OH280757   2.654   4.460  10.863 -0.3342  0.0932  0.1686
19781TIP3    H180758   2.672   4.375  10.821  0.2448 -1.0217  2.5247
19781TIP3    H280759   2.588   4.500  10.807 -1.7359 -2.5705 -0.2640
19782TIP3   OH280760   3.788   0.672  14.395 -0.5767  0.3627  0.4305
19782TIP3    H180761   3.732   0.623  14.455 -0.5679  0.5844  0.6207
19782TIP3    H280762   3.876   0.637  14.411 -0.6106  0.2490  0.3701
19783TIP3   OH280763   6.012   0.379   3.495 -0.2855  0.1495 -0.2248
19783TIP3    H180764   6.047   0.341   3.414  1.2538  1.0045 -0.0078
19783TIP3    H280765   5.919   0.393   3.477 -0.3198 -1.2217 -1.2353
19784TIP3   OH280766   5.854   2.782   2.900  0.1585  0.4121 -0.4494
19784TIP3    H180767   5.875   2.846   2.833 -1.9273  0.1486 -1.4108
19784TIP3    H280768   5.856   2.698   2.854 -0.2843  0.1222  0.0501
19785TIP3   OH280769   5.653   3.388   6.397 -0.4003  0.0064  0.2505
19785TIP3    H180770   5.656   3.474   6.441  0.2239  0.0279  0.1758
19785TIP3    H280771   5.564   3.357   6.413 -0.3088  0.1909  1.2067
19786TIP3   OH280772   4.031   0.182  14.633  0.2804 -0.1181 -0.6957
19786TIP3    H180773   4.081   0.101  14.647 -0.2665 -0.3011  0.2536
19786TIP3    H280774   4.092   0.252  14.657  0.8137 -0.2227 -1.6822
19787TIP3   OH280775   4.528   2.721  10.903 -0.9714  0.1742  0.0232
19787TIP3    H180776   4.459   2.735  10.838  1.0008  1.9186 -1.8778
19787TIP3    H280777   4.601   2.776  10.872  2.1038 -3.1834  0.6172
19788TIP3   OH280778   0.751   2.983   3.004  0.2605  0.0240  0.3651
19788TIP3    H180779   0.759   3.076   2.982 -0.0723  0.9293  3.5440
19788TIP3    H280780   0.777   2.937   2.925  0.2851  2.8189 -1.3739
19789TIP3   OH280781   0.529   1.939  15.335 -0.5041  0.4895  0.2532
19789TIP3    H180782   0.580   1.859  15.324 -1.2293 -0.3781  2.4859
19789TIP3    H280783   0.594   2.006  15.358 -0.0836  0.0598  0.3297
19790TIP3   OH280784   4.068   1.647   1.657  0.2238  0.0107 -0.4356
19790TIP3    H180785   4.081   1.554   1.678 -0.2625 -0.6508 -2.7832
19790TIP3    H280786   4.000   1.647   1.589 -0.6139  2.1966  0.3070
19791TIP3   OH280787   5.548   2.687  10.879 -0.4850 -0.0901 -0.0487
19791TIP3    H180788   5.508   2.754  10.936 -0.9360  0.3241 -0.8320
19791TIP3    H280789   5.617   2.734  10.832  2.2144 -1.1635  2.5191
19792TIP3   OH280790   6.568   1.128  12.474  0.4887 -0.1516 -0.1559
19792TIP3    H180791   6.655   1.156  12.443  1.2989 -1.7654  0.5638
19792TIP3    H280792   6.528   1.086  12.397  1.3794 -1.6506  0.1648
19793TIP3   OH280793   5.036   0.008  12.021  0.2030  0.0942  0.4873
19793TIP3    H180794   4.957  -0.028  11.982 -1.0280  1.7287  1.3297
19793TIP3    H280795   5.047  -0.041  12.102 -0.3114  0.2640  0.6655
19794TIP3   OH280796   3.983   2.802   4.986  0.2631 -0.0161  0.3232
19794TIP3    H180797   3.917   2.758   5.040  2.0053 -0.4211  2.2651
19794TIP3    H280798   4.000   2.885   5.030  0.2229  0.6134 -0.8090
19795TIP3   OH280799   6.428   4.816   3.343 -0.0645 -0.5643 -0.0258
19795TIP3    H180800   6.463   4.875   3.411  1.1626  0.1536 -1.2397
19795TIP3    H280801   6.400   4.738   3.392  1.7996 -0.5287  1.2333
19796TIP3   OH280802   6.431   2.732  11.246 -0.3282 -0.0177  0.0338
19796TIP3    H180803   6.506   2.790  11.260  0.4271 -1.2834  1.4613
19796TIP3    H280804   6.414   2.693  11.331 -1.2419 -1.4013 -0.7405
19797TIP3   OH280805   4.400   3.056  14.929 -0.4006 -0.0600 -0.4943
19797TIP3    H180806   4.349   3.119  14.877  0.8422  0.7346 -0.7922
19797TIP3    H280807   4.363   3.064  15.017 -0.9820  0.2933 -0.7587
19798TIP3   OH280808   4.108   3.504  15.020 -0.9363 -0.0464  0.3030
19798TIP3    H180809   4.112   3.416  15.057  0.0308 -0.3453 -0.4478
19798TIP3    H280810   4.101   3.562  15.096 -3.0158 -0.8124  0.7450
19799TIP3   OH280811   4.189   1.231   0.327 -0.0759 -0.1995 -0.2627
19799TIP3    H180812   4.191   1.149   0.277  0.6146 -0.0998 -0.4100
19799TIP3    H280813   4.281   1.249   0.347 -0.4066 -1.1466  2.5560
19800TIP3   OH280814   1.406   5.547  13.472  0.0722  0.1162  0.9923
19800TIP3    H180815   1.459   5.488  13.419  0.6113 -0.1737  1.8207
19800TIP3    H280816   1.469   5.586  13.533 -0.2494  1.6957  0.3440
19801TIP3   OH280817   6.686   0.449   3.129 -0.3205  0.6777 -0.3400
19801TIP3    H180818   6.658   0.504   3.202  2.8128  0.0810  1.5407
19801TIP3    H280819   6.773   0.482   3.106  0.8637 -2.1743 -0.4207
19802TIP3   OH280820   2.044   0.315  12.236  0.3428 -0.7651 -0.5763
19802TIP3    H180821   1.976   0.358  12.185  2.0227  2.4954 -0.3205
19802TIP3    H280822   2.005   0.299  12.322 -0.4445 -0.0383 -0.7943
19803TIP3   OH280823   0.443   3.590  14.516 -0.1883  0.1036 -0.0171
19803TIP3    H180824   0.501   3.566  14.444  0.8946 -0.3712  0.9702
19803TIP3    H280825   0.369   3.634  14.474  1.3226  1.5894 -1.2864
19804TIP3   OH280826   6.616   4.053   0.265 -0.3930  0.0280 -0.1586
19804TIP3    H180827   6.633   3.994   0.191 -0.3100 -0.7812  0.4974
19804TIP3    H280828   6.565   4.125   0.227 -2.0686 -1.3649 -0.6408
19805TIP3   OH280829   2.507   4.700  16.049 -0.6504 -0.0051 -0.2139
19805TIP3    H180830   2.595   4.712  16.012 -0.2864  0.5083  0.7828
19805TIP3    H280831   2.456   4.772  16.013 -0.5694 -0.0884 -0.5010
19806TIP3   OH280832   3.709   2.711  12.611  0.1396  0.1989  0.4019
19806TIP3    H180833   3.803   2.702  12.624  0.2411  1.4180  0.5754
19806TIP3    H280834   3.699   2.726  12.517  0.3312  2.3055  0.6775
19807TIP3   OH280835   3.783   4.794  12.401 -0.3043 -0.1153 -0.5404
19807TIP3    H180836   3.874   4.817  12.422 -0.8350 -0.2659  2.2610
19807TIP3    H280837   3.744   4.876  12.370  0.4120  0.2962 -0.3792
19808TIP3   OH280838   6.745   4.384   0.265  0.3033  0.0744  0.2708
19808TIP3    H180839   6.774   4.475   0.262 -1.4680  0.6515 -2.0581
19808TIP3    H280840   6.792   4.346   0.340  1.3807  2.7660  1.0670
19809TIP3   OH280841   2.225   5.688  11.202  0.5812 -0.4960  0.3207
19809TIP3    H180842   2.187   5.603  11.223  1.9111 -0.8454  1.4794
19809TIP3    H280843   2.274   5.673  11.121  0.1089 -0.6058  0.0514
19810TIP3   OH280844   1.772   2.529  16.654 -0.1829  0.2763  0.1756
19810TIP3    H180845   1.766   2.606  16.710 -1.9488  2.0985 -2.2435
19810TIP3    H280846   1.723   2.461  16.701  1.0579  0.7046  2.1826
19811TIP3   OH280847   0.159   5.526  14.853 -0.1697 -0.1101  0.0393
19811TIP3    H180848   0.142   5.477  14.773 -1.2977  0.0471  0.1672
19811TIP3    H280849   0.078   5.575  14.869 -0.3120 -0.8470  1.7768
19812TIP3   OH280850   6.200   1.059   2.721 -0.2542 -0.0599  0.9292
19812TIP3    H180851   6.260   0.985   2.721 -0.4656 -0.2459  0.1707
19812TIP3    H280852   6.197   1.088   2.629 -1.6249 -0.3188  0.8655
19813TIP3   OH280853   4.149   1.590   4.285  0.1216 -0.2729  0.6221
19813TIP3    H180854   4.239   1.591   4.251 -0.1683 -1.2997 -0.2429
19813TIP3    H280855   4.127   1.497   4.292 -1.5195 -0.0684 -1.0276
19814TIP3   OH280856   5.940   4.267   4.533  0.0442 -0.0041  0.0571
19814TIP3    H180857   5.956   4.280   4.439  0.4619 -0.0971  0.1149
19814TIP3    H280858   6.015   4.308   4.576 -0.6161  0.8846  0.3884
19815TIP3   OH280859   6.010   6.584   4.331  0.1846 -0.1899 -0.1535
19815TIP3    H180860   5.990   6.496   4.362 -1.2642  0.4658  0.8885
19815TIP3    H280861   6.079   6.572   4.267  0.2029 -2.0556  0.1733
19816TIP3   OH280862   3.251   2.767   4.972 -0.2274  0.3324 -0.5727
19816TIP3    H180863   3.305   2.779   5.051  0.7614 -0.1357 -1.1577
19816TIP3    H280864   3.295   2.698   4.923 -0.4424  1.0780 -1.8717
19817TIP3   OH280865   3.733   3.764  13.257 -0.6200 -0.1829  0.2585
19817TIP3    H180866   3.745   3.727  13.170 -1.8863  0.7327 -0.3270
19817TIP3    H280867   3.648   3.807  13.254  0.0265  1.2657  1.4528
19818TIP3   OH280868   1.654   4.270  14.021  0.7667  0.2619 -0.0949
19818TIP3    H180869   1.594   4.295  14.091 -1.7650 -0.6345 -1.8079
19818TIP3    H280870   1.682   4.353  13.982  3.7743  0.9350  2.9843
19819TIP3   OH280871   2.853   3.463  16.042 -0.3087  0.2869  0.3765
19819TIP3    H180872   2.911   3.489  15.971  0.3138 -0.5790  0.5488
19819TIP3    H280873   2.880   3.374  16.064 -2.1470 -0.4107  0.0052
19820TIP3   OH280874   6.707   4.832  12.613  0.3349 -0.3484  0.3133
19820TIP3    H180875   6.762   4.816  12.690 -1.2986  0.1948  1.6501
19820TIP3    H280876   6.637   4.767  12.619  1.2852 -1.6936 -1.9122
19821TIP3   OH280877   1.127   2.704  11.755 -0.3401  0.0488  0.3230
19821TIP3    H180878   1.151   2.624  11.801  0.2324  0.2734  0.4202
19821TIP3    H280879   1.194   2.712  11.686 -1.5553 -0.6535 -1.0114
19822TIP3   OH280880   5.293   2.420   0.833 -0.1901  0.7925  0.1746
19822TIP3    H180881   5.285   2.506   0.875 -0.4273 -0.4899  2.9773
19822TIP3    H280882   5.357   2.373   0.885  0.6112 -0.5008 -1.8368
19823TIP3   OH280883   4.831   2.439   1.447 -0.5448  0.3022 -0.4082
19823TIP3    H180884   4.745   2.398   1.454 -1.4089  1.9875 -0.7081
19823TIP3    H280885   4.818   2.513   1.388  0.7541  1.4847  0.7053
19824TIP3   OH280886   3.870   0.971   4.905  0.1742 -0.3788  0.3790
19824TIP3    H180887   3.775   0.958   4.900  0.1299  0.3523 -2.1692
19824TIP3    H280888   3.881   1.066   4.904  0.9443 -0.4467  1.2422
19825TIP3   OH280889   3.006   2.139  11.927  0.4287 -0.4093  0.0818
19825TIP3    H180890   2.997   2.052  11.968  1.7028 -0.4229  0.3517
19825TIP3    H280891   2.927   2.148  11.874  0.1683 -1.6437  0.2290
19826TIP3   OH280892   4.670   4.705   4.305  0.2491  0.1786  0.1081
19826TIP3    H180893   4.679   4.668   4.217 -2.2085 -0.4803  0.0558
19826TIP3    H280894   4.667   4.800   4.291  2.5313  0.2540 -0.1852
19827TIP3   OH280895   3.599   1.892   2.546 -0.1220 -0.0356 -0.6525
19827TIP3    H180896   3.631   1.922   2.631 -1.4790 -0.4719  0.0271
19827TIP3    H280897   3.640   1.952   2.483 -0.3314  1.2754  0.4201
19828TIP3   OH280898   0.637   2.793  13.237  0.1657  0.2040  0.1751
19828TIP3    H180899   0.618   2.828  13.324  1.0500  0.6728  0.1887
19828TIP3    H280900   0.688   2.714  13.255 -1.6931 -1.0632  0.1402
19829TIP3   OH280901   1.077   3.413   6.801 -0.4192  0.3544  0.0209
19829TIP3    H180902   1.069   3.324   6.766  1.1890  0.8222 -1.6724
19829TIP3    H280903   1.001   3.459   6.768 -0.3703  0.0468 -0.5358
19830TIP3   OH280904   1.320   0.877   3.286 -0.5920  0.0279 -0.2947
19830TIP3    H180905   1.235   0.849   3.319 -0.8704  1.0996 -0.0636
19830TIP3    H280906   1.353   0.938   3.352  0.8912 -1.2257  0.1889
19831TIP3   OH280907   2.325   0.136  12.499  0.2515 -0.0380  0.6682
19831TIP3    H180908   2.245   0.086  12.482 -2.7193  4.5499 -0.8450
19831TIP3    H280909   2.369   0.141  12.414 -1.9549  3.2591 -0.5197
19832TIP3   OH280910   1.503   0.628  12.147  0.3802  0.4682  0.2841
19832TIP3    H180911   1.584   0.587  12.179 -0.1757 -0.0853  0.9990
19832TIP3    H280912   1.472   0.570  12.078  1.2899  1.3817 -0.9495
19833TIP3   OH280913   2.015   5.301   0.170 -0.2429 -0.8184  0.3859
19833TIP3    H180914   2.028   5.303   0.265  2.1339 -0.0067  0.1123
19833TIP3    H280915   2.065   5.225   0.141 -1.0195 -1.1086 -0.2308
19834TIP3   OH280916   6.698   2.579  15.751 -0.2645  0.0768 -0.0157
19834TIP3    H180917   6.713   2.540  15.665 -0.3237  0.3151 -0.1354
19834TIP3    H280918   6.701   2.506  15.812  0.7559  0.0337 -0.1017
19835TIP3   OH280919   6.668   3.276  15.570  0.1766 -0.4502  0.1126
19835TIP3    H180920   6.696   3.308  15.485  2.1917 -1.6997  0.2114
19835TIP3    H280921   6.705   3.339  15.633 -1.8141  0.8050  0.1019
19836TIP3   OH280922   5.597   3.756  14.103  0.5942  0.3684  0.5651
19836TIP3    H180923   5.584   3.813  14.027  0.5497  0.0055  0.2949
19836TIP3    H280924   5.513   3.711  14.113  1.6164 -2.1784 -1.3473
19837TIP3   OH280925   2.476   3.885   4.609 -0.1874 -0.0167  0.2100
19837TIP3    H180926   2.548   3.844   4.658  0.4110  0.9922  0.1874
19837TIP3    H280927   2.405   3.821   4.614  1.1444 -1.6919 -0.9788
19838TIP3   OH280928   2.593   5.373   3.091 -0.3941 -0.0575 -0.1194
19838TIP3    H180929   2.526   5.355   3.025  0.3779 -0.0200 -0.9300
19838TIP3    H280930   2.584   5.301   3.154 -0.1905 -0.8921 -1.0316
19839TIP3   OH280931   5.281   6.558   3.788  0.9914 -0.1146  0.2131
19839TIP3    H180932   5.347   6.535   3.854  1.0777 -1.2675 -0.2516
19839TIP3    H280933   5.324   6.539   3.705  1.3034  2.3873 -0.2879
19840TIP3   OH280934   0.526   3.965   2.327 -0.8963  0.8059 -0.4287
19840TIP3    H180935   0.560   3.877   2.311 -1.0029  0.4809  1.0436
19840TIP3    H280936   0.587   4.004   2.389 -1.9715  1.0148  0.5277
19841TIP3   OH280937   0.110   5.911   4.942  0.4972  0.1905 -0.1266
19841TIP3    H180938   0.160   5.987   4.911  2.9323 -2.1308 -2.4612
19841TIP3    H280939   0.020   5.942   4.947  1.5719  3.6578  0.7787
19842TIP3   OH280940   3.044   3.530   1.523  0.4831  0.6091 -0.3226
19842TIP3    H180941   2.962   3.518   1.477  1.1011 -0.4553 -1.2054
19842TIP3    H280942   3.109   3.483   1.470  1.2582 -0.5395  1.5183
19843TIP3   OH280943   2.254   3.450   2.785 -0.2030  0.5324  0.0707
19843TIP3    H180944   2.264   3.355   2.795 -0.3315  0.4486 -0.5788
19843TIP3    H280945   2.271   3.467   2.693 -0.9881  1.0366  0.0046
19844TIP3   OH280946   3.951   3.735   4.955  0.1161 -0.2760  0.3711
19844TIP3    H180947   4.004   3.749   5.033  1.1746  1.5886 -0.6087
19844TIP3    H280948   3.959   3.817   4.906  1.5778 -2.1642 -2.9112
19845TIP3   OH280949   2.242   0.489   6.297  0.6796  0.7274  0.0065
19845TIP3    H180950   2.220   0.525   6.211  0.8122  0.9937  0.0844
19845TIP3    H280951   2.188   0.540   6.358  2.1393  1.9844  0.2927
19846TIP3   OH280952   5.057   1.808   1.531  0.1366  0.5544  0.3133
19846TIP3    H180953   5.005   1.868   1.477 -2.2992 -2.1918 -0.6785
19846TIP3    H280954   5.120   1.770   1.471 -0.4147 -0.1339  0.1604
19847TIP3   OH280955   3.907   0.851   1.419 -0.6656  0.4361 -0.3873
19847TIP3    H180956   3.971   0.800   1.370 -0.7755 -0.0168 -0.0623
19847TIP3    H280957   3.838   0.789   1.440 -0.0197  0.3012  1.4768
19848TIP3   OH280958   4.615   6.021  16.016 -0.0642  1.2209  0.2668
19848TIP3    H180959   4.710   6.033  16.021 -0.2037  1.9188  1.8037
19848TIP3    H280960   4.599   5.941  16.065 -0.1569  0.2187 -1.3128
19849TIP3   OH280961   5.754   1.010   4.524  0.0093  0.0325  0.5519
19849TIP3    H180962   5.708   1.032   4.443  0.4370  0.9567  0.5514
19849TIP3    H280963   5.706   1.056   4.593 -1.3937 -2.0980  1.0971
19850TIP3   OH280964   2.008   1.922  11.495  0.1044 -0.1950  0.2202
19850TIP3    H180965   2.028   1.978  11.420  0.5500 -1.0744 -0.3335
19850TIP3    H280966   2.091   1.918  11.544  0.1737 -0.6654  0.0620
19851TIP3   OH280967   0.667   1.920  14.919  0.0142 -0.5839  0.7477
19851TIP3    H180968   0.580   1.929  14.958 -0.4357 -2.1575  0.2158
19851TIP3    H280969   0.651   1.875  14.836  1.3241 -0.8039  0.5896
19852TIP3   OH280970   6.025   4.981   1.190 -0.3014  0.3550 -0.0449
19852TIP3    H180971   6.040   5.009   1.280 -1.4268  0.6216  0.0839
19852TIP3    H280972   5.992   4.891   1.198  3.0607 -1.0323 -0.4410
19853TIP3   OH280973   1.828   3.231   4.267 -0.4091  0.3327  0.3079
19853TIP3    H180974   1.790   3.318   4.282  0.3286  0.5261  1.1405
19853TIP3    H280975   1.819   3.186   4.351  1.4861  0.5200  0.6675
19854TIP3   OH280976   0.060   4.877  10.645  0.3574  0.0082  0.4307
19854TIP3    H180977   0.035   4.804  10.702  0.2900  0.3904  0.8909
19854TIP3    H280978   0.155   4.885  10.656  0.0535  1.6561  2.4044
19855TIP3   OH280979   4.065   4.495  16.584 -0.2099 -0.2425 -0.0140
19855TIP3    H180980   4.022   4.414  16.555 -0.1574 -0.0471 -0.6374
19855TIP3    H280981   4.121   4.520  16.511  2.8977 -1.8068  1.6033
19856TIP3   OH280982   2.935   6.648   5.662  0.0428 -0.4383  0.4072
19856TIP3    H180983   2.953   6.577   5.723 -0.4519 -0.5706  0.4093
19856TIP3    H280984   3.004   6.642   5.596  0.2016 -0.7035  0.5950
19857TIP3   OH280985   6.786   3.961   2.133 -0.0455 -0.3832  0.2785
19857TIP3    H180986   6.734   4.035   2.161  0.8486  1.1240 -1.7894
19857TIP3    H280987   6.867   3.967   2.185  0.6725  1.0689 -0.9329
19858TIP3   OH280988   4.453   5.611   2.965  0.2456 -0.2545 -0.3933
19858TIP3    H180989   4.513   5.543   2.934 -0.0290  0.0901 -1.7437
19858TIP3    H280990   4.381   5.609   2.902  0.2144  1.2541 -0.4210
19859TIP3   OH280991   2.740   1.584  11.502  0.7579 -0.0420  0.7109
19859TIP3    H180992   2.789   1.660  11.473  1.5869 -1.0455 -0.6117
19859TIP3    H280993   2.722   1.601  11.595  1.0510  1.6665  0.4832
19860TIP3   OH280994   5.128   2.194  12.157  0.3289 -0.0923  0.1234
19860TIP3    H180995   5.057   2.138  12.187  1.3002 -1.1880  0.4703
19860TIP3    H280996   5.136   2.261  12.225  0.0126 -0.3000  0.3668
19861TIP3   OH280997   2.159   6.196   6.639 -0.4155  0.3521 -0.8747
19861TIP3    H180998   2.151   6.118   6.694  0.5788 -0.4775 -1.8502
19861TIP3    H280999   2.071   6.232   6.635 -0.7947 -0.4490 -0.0154
19862TIP3   OH281000   6.052   2.167  16.220  0.0714 -0.4553  0.2480
19862TIP3    H181001   6.010   2.232  16.277 -0.0021 -0.7809  0.5779
19862TIP3    H281002   6.049   2.086  16.272  0.0905 -0.7356 -0.1852
19863TIP3   OH281003   4.336   6.051   4.027 -0.0482  0.1954 -0.4839
19863TIP3    H181004   4.288   6.133   4.043 -0.4234 -0.2148  0.6328
19863TIP3    H281005   4.428   6.077   4.031 -0.1614  0.7504 -1.2546
19864TIP3   OH281006   4.359   3.390  15.632  0.2651 -0.3549 -0.1049
19864TIP3    H181007   4.426   3.384  15.701  0.4941 -0.4427 -0.3307
19864TIP3    H281008   4.368   3.479  15.598  0.6490 -0.5439 -0.5111
19865TIP3   OH281009   4.058   4.579   4.498  0.2916  0.5303  0.5572
19865TIP3    H181010   4.008   4.540   4.570 -2.1434  0.5787 -0.9672
19865TIP3    H281011   4.059   4.673   4.517 -0.1541  0.5185  0.6451
19866TIP3   OH281012   1.551   4.822   5.426  0.1874  0.4018 -0.1175
19866TIP3    H181013   1.559   4.764   5.350  2.9138  0.9736 -0.3919
19866TIP3    H281014   1.642   4.835   5.455 -0.5223  2.6799  1.3449
19867TIP3   OH281015   4.370   2.441   1.770 -0.4804 -0.3941 -0.4523
19867TIP3    H181016   4.311   2.438   1.695  1.0973 -0.3701 -1.7697
19867TIP3    H281017   4.389   2.349   1.789 -0.6408 -0.3935 -0.2950
19868TIP3   OH281018   2.137   1.771   1.483  0.8097 -0.1699  0.1905
19868TIP3    H181019   2.192   1.693   1.481  2.8631  1.1424  1.6023
19868TIP3    H281020   2.068   1.751   1.546  0.3740 -1.3804 -0.6428
19869TIP3   OH281021   3.686   5.926   4.218 -0.2789 -0.2992 -0.7521
19869TIP3    H181022   3.698   5.964   4.305  0.6586  1.4979 -1.6265
19869TIP3    H281023   3.690   5.831   4.233  0.4281 -0.0162  1.0690
19870TIP3   OH281024   6.526   4.841  12.986 -0.1781 -0.0225 -0.3277
19870TIP3    H181025   6.501   4.865  13.075  0.4655  0.1043 -0.1798
19870TIP3    H281026   6.622   4.838  12.987 -0.1775 -0.5489 -0.8749
19871TIP3   OH281027   4.321   4.751   1.329  0.3547 -0.2517  0.0304
19871TIP3    H181028   4.362   4.666   1.316  3.2250  0.7447  1.6040
19871TIP3    H281029   4.325   4.766   1.424 -2.0586  0.7785  0.0570
19872TIP3   OH281030   2.297   0.786   5.771  0.9008  0.2874 -0.1252
19872TIP3    H181031   2.268   0.868   5.812 -0.3764 -1.5679  3.0723
19872TIP3    H281032   2.376   0.762   5.821 -0.6988 -2.0563  1.5135
19873TIP3   OH281033   0.230   3.362  11.005  0.2189  0.0915  0.0688
19873TIP3    H181034   0.180   3.413  10.940  0.5008  0.6208  0.2655
19873TIP3    H281035   0.321   3.373  10.979  0.2574 -0.8190 -0.2462
19874TIP3   OH281036   1.410   3.736  16.923 -0.3406 -0.0790 -0.4143
19874TIP3    H181037   1.416   3.641  16.935 -2.3035 -0.5672 -2.4168
19874TIP3    H281038   1.317   3.751  16.903  0.0269  2.1896 -0.6520
19875TIP3   OH281039   0.292   4.565   3.594  0.1400 -0.0446  0.1956
19875TIP3    H181040   0.305   4.543   3.502  0.7691  1.8656 -0.2388
19875TIP3    H281041   0.381   4.574   3.628 -0.0909 -0.1333  0.8199
19876TIP3   OH281042   0.785   4.640  14.519 -0.5731  0.1894 -0.1172
19876TIP3    H181043   0.716   4.688  14.564  0.2477  1.1862  0.1258
19876TIP3    H281044   0.769   4.656  14.426 -0.5487  0.5852 -0.0535
19877TIP3   OH281045   4.788   0.099  11.509  0.1582 -0.0426  0.5606
19877TIP3    H181046   4.775   0.050  11.427 -0.0583  0.4056  0.3230
19877TIP3    H281047   4.772   0.035  11.578 -0.6915 -0.1663  0.2550
19878TIP3   OH281048   2.696   2.262   5.612 -0.5244 -0.0706 -0.5340
19878TIP3    H181049   2.792   2.260   5.613 -0.5004  0.7103 -0.5135
19878TIP3    H281050   2.674   2.346   5.570 -1.1693  0.8504  1.4965
19879TIP3   OH281051   4.831   5.854   1.661 -0.4161 -0.3801  0.6743
19879TIP3    H181052   4.803   5.771   1.622 -1.1980  0.4327 -0.5409
19879TIP3    H281053   4.761   5.876   1.722 -2.7812  1.7586 -2.5158
19880TIP3   OH281054   3.297   4.505  14.862  0.4281  0.0924  0.8033
19880TIP3    H181055   3.295   4.495  14.957 -0.2695  1.9221  1.0313
19880TIP3    H281056   3.376   4.558  14.845  0.2736  0.2043  0.4234
19881TIP3   OH281057   2.296   5.462  11.408 -0.4042  0.0245 -0.7104
19881TIP3    H181058   2.226   5.446  11.345 -0.4822 -1.7414 -0.2469
19881TIP3    H281059   2.270   5.541  11.454 -1.5800 -0.0314 -1.2409
19882TIP3   OH281060   2.954   5.723   3.936  0.6240  0.0433  0.9229
19882TIP3    H181061   2.872   5.724   3.987  0.2159 -1.7752  0.3822
19882TIP3    H281062   2.929   5.759   3.851  0.3999 -0.4672  0.7730
19883TIP3   OH281063   1.738   3.753   0.182 -0.2337 -0.2304 -0.1215
19883TIP3    H181064   1.686   3.822   0.140 -2.3660 -0.5164  1.8214
19883TIP3    H281065   1.725   3.768   0.276 -0.8033 -3.2691  0.3639
19884TIP3   OH281066   5.496   1.873   4.579  0.2614  0.1790 -0.3087
19884TIP3    H181067   5.416   1.821   4.568 -0.6217  1.4974 -0.3512
19884TIP3    H281068   5.509   1.877   4.674 -1.0070  1.7566 -0.1455
19885TIP3   OH281069   5.298   4.376  16.335  0.0084 -0.6505 -0.1002
19885TIP3    H181070   5.360   4.431  16.383 -0.3046  0.8389 -1.3155
19885TIP3    H281071   5.351   4.334  16.267 -0.1963  0.3534 -0.9183
19886TIP3   OH281072   4.092   1.508  15.553  0.2244 -0.2936  0.6324
19886TIP3    H181073   4.045   1.429  15.526 -0.6966  0.5441 -0.3064
19886TIP3    H281074   4.096   1.503  15.648  1.3918 -2.1284  0.5442
19887TIP3   OH281075   3.286   4.024   4.405 -0.2047 -0.0720  0.6305
19887TIP3    H181076   3.219   3.964   4.372 -2.1463  2.0741  0.4544
19887TIP3    H281077   3.284   4.012   4.500 -2.1985  1.2145  0.8087
19888TIP3   OH281078   5.075   1.252  15.905 -1.1639  0.4623 -0.0638
19888TIP3    H181079   5.109   1.338  15.933 -0.8459  0.8520 -1.5597
19888TIP3    H281080   4.981   1.265  15.898 -1.3217  0.2047  1.2758
19889TIP3   OH281081   2.932   4.994  13.816  0.3247 -0.2612 -0.2697
19889TIP3    H181082   2.980   5.040  13.747  1.2063  0.1469  0.6007
19889TIP3    H281083   2.994   4.988  13.889 -0.4800 -0.9830  0.3741
19890TIP3   OH281084   1.042   2.089  10.941  0.4439  0.0813 -1.0655
19890TIP3    H181085   1.137   2.088  10.930  0.6177  0.1635  0.2518
19890TIP3    H281086   1.016   2.177  10.915  0.6731 -0.0745 -1.8315
19891TIP3   OH281087   3.503   4.409   3.042 -0.0620  0.4399 -0.0491
19891TIP3    H181088   3.422   4.401   2.993  0.7704 -0.7842 -1.2970
19891TIP3    H281089   3.490   4.485   3.099 -1.4019  1.3501 -1.5128
19892TIP3   OH281090   2.097   6.627   4.138  0.7691 -0.1356  0.5294
19892TIP3    H181091   2.192   6.616   4.135  1.0446  1.9431 -1.3510
19892TIP3    H281092   2.066   6.592   4.054  0.0687  0.4274  0.5413
19893TIP3   OH281093   1.865   4.588   4.272  0.3464  0.0799  0.0659
19893TIP3    H181094   1.893   4.566   4.361 -0.4103 -1.3596 -0.0155
19893TIP3    H281095   1.937   4.560   4.216  0.5537  0.3966  0.1705
19894TIP3   OH281096   4.926   2.900   3.353 -0.2574 -0.0531 -0.5103
19894TIP3    H181097   4.835   2.922   3.372 -0.4752  0.1476 -1.7114
19894TIP3    H281098   4.935   2.914   3.258  0.2331 -2.8138 -0.9540
19895TIP3   OH281099   1.042   2.666  10.813  0.2599  0.5954 -0.1351
19895TIP3    H181100   1.097   2.710  10.748  0.7461 -0.7423 -0.6778
19895TIP3    H281101   0.952   2.678  10.781  0.4606  0.3910 -0.7982
19896TIP3   OH281102   4.552   6.547  11.033  0.0381  0.0083 -0.5709
19896TIP3    H181103   4.516   6.616  10.977  0.7115  2.3796  1.6951
19896TIP3    H281104   4.644   6.571  11.044 -0.2075  0.0709  1.9950
19897TIP3   OH281105   3.755   0.122   6.110 -0.6606  0.3377 -0.2357
19897TIP3    H181106   3.685   0.163   6.060 -0.1188  1.2210 -0.3049
19897TIP3    H281107   3.776   0.186   6.178  0.6302  0.4701 -0.7252
19898TIP3   OH281108   0.687   5.775  10.993  0.3279 -0.9286 -0.3639
19898TIP3    H181109   0.598   5.810  10.986  0.9821  1.1619  0.7739
19898TIP3    H281110   0.737   5.824  10.927  1.3852  0.8598  1.6317
19899TIP3   OH281111   2.445   0.017  14.610 -0.6215  0.1492 -0.3495
19899TIP3    H181112   2.485   0.008  14.696  0.0570  1.6330 -0.4659
19899TIP3    H281113   2.496  -0.042  14.554  1.1935  1.6529 -0.3941
19900TIP3   OH281114   4.560   0.563  13.746 -0.4091  0.0839 -0.9985
19900TIP3    H181115   4.583   0.542  13.837  0.3714  1.7764 -0.7729
19900TIP3    H281116   4.620   0.512  13.693  1.2842  1.4533 -0.4773
19901TIP3   OH281117   1.401   1.126   0.868 -0.0535  0.2280 -0.0724
19901TIP3    H181118   1.372   1.183   0.797 -0.3304 -0.7764 -0.7985
19901TIP3    H281119   1.408   1.183   0.945 -1.9944  0.9264 -0.3536
19902TIP3   OH281120   0.787   1.632   6.126 -0.2724  0.5198 -0.0031
19902TIP3    H181121   0.821   1.574   6.057 -0.0751 -0.3786  0.8216
19902TIP3    H281122   0.830   1.716   6.109  0.1255  0.1893 -0.7062
19903TIP3   OH281123   5.058   1.071   5.108  0.6258  0.2872  0.2026
19903TIP3    H181124   5.019   1.007   5.167 -1.4239  1.8942  0.6738
19903TIP3    H281125   5.107   1.130   5.166  2.7432 -0.8798 -0.2545
19904TIP3   OH281126   6.378   1.462   4.535  0.1622  0.5283 -0.2140
19904TIP3    H181127   6.437   1.401   4.491  1.0241  1.4498 -0.3833
19904TIP3    H281128   6.416   1.474   4.622 -0.0985  0.6942 -0.1226
19905TIP3   OH281129   0.863   3.562   4.546  0.5772 -0.1609  0.1425
19905TIP3    H181130   0.776   3.555   4.585  0.9570  1.3692  1.3345
19905TIP3    H281131   0.907   3.480   4.570 -1.1679 -1.9691 -2.3119
19906TIP3   OH281132   4.900   5.629   5.724  0.1389 -0.0550  0.4149
19906TIP3    H181133   4.995   5.615   5.725  0.1604 -0.0185  2.1118
19906TIP3    H281134   4.889   5.720   5.754 -0.3491  1.0954 -2.7825
19907TIP3   OH281135   4.010   2.878  12.476  0.4635 -0.4150  0.2598
19907TIP3    H181136   4.040   2.787  12.471  1.4242 -0.1562  1.0131
19907TIP3    H281137   4.039   2.908  12.562 -0.4694  0.3986  0.3067
19908TIP3   OH281138   5.098   3.852   4.164  0.5575  0.1440  0.1916
19908TIP3    H181139   5.075   3.917   4.098 -0.6601 -1.3686 -0.9522
19908TIP3    H281140   5.142   3.782   4.116 -0.5998 -1.1216  0.8813
19909TIP3   OH281141   5.547   4.990   5.185 -0.4487  0.0133  0.6316
19909TIP3    H181142   5.511   5.078   5.179  0.9784  0.5170 -1.4027
19909TIP3    H281143   5.550   4.972   5.279  1.2379  3.0028  1.2814
19910TIP3   OH281144   5.295   5.470  15.857  0.0858 -0.3344  0.3840
19910TIP3    H181145   5.380   5.514  15.868 -0.0650  0.0260  0.1169
19910TIP3    H281146   5.314   5.378  15.874  0.5392 -0.2624  0.2939
19911TIP3   OH281147   6.242   6.569  15.450  0.3389  0.3438  0.0947
19911TIP3    H181148   6.292   6.586  15.530  3.4523  0.6154 -1.7519
19911TIP3    H281149   6.231   6.655  15.410 -0.0322  0.0624 -0.4181
19912TIP3   OH281150   3.328   6.487  13.224  0.2461  0.7311  0.1219
19912TIP3    H181151   3.409   6.450  13.188 -0.2437  1.4207 -1.7573
19912TIP3    H281152   3.330   6.579  13.199 -1.7804  0.4649 -1.2565
19913TIP3   OH281153   5.703   6.475   3.412  0.2542 -0.1431 -0.0524
19913TIP3    H181154   5.792   6.502   3.389  0.7081 -1.5141 -0.0364
19913TIP3    H281155   5.689   6.395   3.362  0.1311 -1.5335  2.0596
19914TIP3   OH281156   6.466   5.561   3.660  0.2011 -0.0221  0.1282
19914TIP3    H181157   6.531   5.562   3.730  0.6772 -0.9905 -0.2767
19914TIP3    H281158   6.510   5.603   3.586 -0.5487  1.6447  0.5949
19915TIP3   OH281159   5.073   3.674  15.274  0.1489  0.2954 -0.1353
19915TIP3    H181160   5.076   3.768  15.257  0.2537 -0.1523 -3.0148
19915TIP3    H281161   4.987   3.647  15.244  0.2263 -0.5919  0.4188
19916TIP3   OH281162   3.869   0.661  14.108 -0.2281 -0.1212  0.1421
19916TIP3    H181163   3.849   0.593  14.044 -1.1646 -1.0459  1.3819
19916TIP3    H281164   3.795   0.661  14.168  0.2673  1.2492  0.8030
19917TIP3   OH281165   3.497   6.278   4.876 -0.6426  0.5664  0.5199
19917TIP3    H181166   3.544   6.239   4.801  1.3288  1.6982  1.0845
19917TIP3    H281167   3.444   6.206   4.910  1.1791 -1.0353  0.1950
19918TIP3   OH281168   0.393   5.152  13.790 -0.6338 -0.1549 -0.2955
19918TIP3    H181169   0.341   5.196  13.857 -0.0669  0.1495 -0.0489
19918TIP3    H281170   0.474   5.202  13.786 -0.9856  0.3590 -1.8294
19919TIP3   OH281171   4.407   5.767  16.846 -0.0119  0.0777  0.3147
19919TIP3    H181172   4.322   5.809  16.861  1.0212  2.0789  1.1223
19919TIP3    H281173   4.413   5.756  16.751 -1.7028 -1.3740  0.3411
19920TIP3   OH281174   1.497   6.758  14.487 -0.3916 -0.3042 -0.5296
19920TIP3    H181175   1.477   6.851  14.476  0.4407  0.1064  1.1596
19920TIP3    H281176   1.445   6.731  14.562  1.0028 -0.6321  0.3555
19921TIP3   OH281177   0.662   5.990  16.929 -0.0350 -0.2401 -0.3799
19921TIP3    H181178   0.703   6.068  16.892  0.4165  0.1989  0.9844
19921TIP3    H281179   0.573   5.990  16.893  1.0465 -1.1944 -3.3968
19922TIP3   OH281180   5.142   3.382  12.315  0.1845 -0.0394  0.1527
19922TIP3    H181181   5.146   3.292  12.347 -0.1031 -0.7820 -1.7951
19922TIP3    H281182   5.056   3.390  12.274 -0.2809  1.5143  1.3101
19923TIP3   OH281183   1.739   6.556   3.456  0.0273 -0.2901  0.0513
19923TIP3    H181184   1.655   6.514   3.475 -1.6849  1.8819 -2.0838
19923TIP3    H281185   1.746   6.626   3.521 -0.6160  0.5066 -0.7222
19924TIP3   OH281186   3.177   6.650  14.674  0.0169  0.1293  0.2357
19924TIP3    H181187   3.105   6.649  14.611 -0.3539  1.7252  0.6046
19924TIP3    H281188   3.196   6.743  14.688  0.8745 -0.2210  1.5997
19925TIP3   OH281189   4.834   4.352   4.397  0.0735 -0.1614  0.1742
19925TIP3    H181190   4.876   4.391   4.320  0.0892  1.3172  0.8843
19925TIP3    H281191   4.751   4.398   4.404 -0.8734 -1.7597 -0.1422
19926TIP3   OH281192   1.680   4.204   1.579 -0.2527  0.1047  0.2072
19926TIP3    H181193   1.725   4.177   1.498  0.5657  2.3549 -0.1543
19926TIP3    H281194   1.694   4.131   1.639 -0.2424 -1.3058 -1.4291
19927TIP3   OH281195   6.287   0.542   6.505  0.1427  0.4952 -0.2624
19927TIP3    H181196   6.377   0.528   6.473  0.5606 -0.0151  1.0886
19927TIP3    H281197   6.292   0.524   6.598 -0.9945  2.2150  0.1627
19928TIP3   OH281198   4.513   3.847  11.120  0.3271 -0.2949  0.1913
19928TIP3    H181199   4.520   3.919  11.182 -1.5352 -0.5907  0.8105
19928TIP3    H281200   4.602   3.834  11.087  0.8691  1.6218  0.7921
19929TIP3   OH281201   2.020   2.601  11.450  0.2899 -0.9376 -0.3998
19929TIP3    H181202   2.091   2.600  11.514  0.3815  1.1449 -0.4187
19929TIP3    H281203   2.061   2.627  11.368 -0.6612  1.9755 -0.0648
19930TIP3   OH281204   2.835   0.348  16.916  0.2975 -0.4033 -0.5072
19930TIP3    H181205   2.883   0.409  16.860 -0.5637  0.2246 -0.5877
19930TIP3    H281206   2.775   0.403  16.966 -0.2057 -1.1415 -0.2715
19931TIP3   OH281207   1.369   5.577   5.091  0.4535  0.2235 -0.8469
19931TIP3    H181208   1.344   5.594   5.182 -0.7577 -0.6227 -1.0068
19931TIP3    H281209   1.451   5.625   5.080  1.3555 -0.7374  1.0900
19932TIP3   OH281210   1.780   3.916   5.798  0.1295 -0.2896  0.1365
19932TIP3    H181211   1.840   3.874   5.737 -0.1211  0.7146 -0.8167
19932TIP3    H281212   1.833   3.932   5.876  1.0598  0.4063 -0.6200
19933TIP3   OH281213   2.571   3.292   1.820  0.8947 -0.1854  0.0861
19933TIP3    H181214   2.507   3.344   1.869  1.0623 -1.0687  1.2979
19933TIP3    H281215   2.535   3.287   1.731  0.0699  0.6268  0.3618
19934TIP3   OH281216   3.310   1.600   0.500  0.7853 -0.0934  0.0544
19934TIP3    H181217   3.318   1.649   0.419 -0.2730 -2.0660 -1.3495
19934TIP3    H281218   3.234   1.638   0.544  2.8324  2.6572  1.4782
19935TIP3   OH281219   1.410   4.155  16.430  0.2869 -0.0953 -0.1659
19935TIP3    H181220   1.414   4.234  16.376 -0.1768  0.0086 -0.0556
19935TIP3    H281221   1.323   4.159  16.470  1.0682  0.5050  1.5833
19936TIP3   OH281222   2.027   1.515  11.477  0.2306 -0.1233  0.1732
19936TIP3    H181223   1.978   1.483  11.402  2.0892 -2.0055 -0.3275
19936TIP3    H281224   2.048   1.436  11.528 -0.6776  1.0464  2.5387
19937TIP3   OH281225   6.225   4.450   5.834 -0.1418  0.1240  0.0666
19937TIP3    H181226   6.289   4.390   5.873 -0.4232 -0.6148 -0.5781
19937TIP3    H281227   6.228   4.528   5.890 -0.4537 -0.8480  1.4803
19938TIP3   OH281228   5.709   0.985  12.482 -0.5418 -0.1692  0.2398
19938TIP3    H181229   5.711   0.894  12.453  0.5086 -0.3222  0.7667
19938TIP3    H281230   5.783   1.026  12.437 -1.3542  0.5828 -0.4557
19939TIP3   OH281231   6.707   4.364   2.877  0.1564  0.3466  0.6145
19939TIP3    H181232   6.628   4.351   2.930 -0.0232 -0.9477  0.0861
19939TIP3    H281233   6.674   4.370   2.787  0.7119 -1.5318  0.2435
19940TIP3   OH281234   1.908   2.621   3.420 -0.3181  0.0318  0.1192
19940TIP3    H181235   1.925   2.627   3.326  0.8516  0.7644  0.3597
19940TIP3    H281236   1.966   2.551   3.451 -0.7866 -0.2905  0.2861
19941TIP3   OH281237   5.230   1.757   0.782 -0.1869 -0.2106 -0.2776
19941TIP3    H181238   5.221   1.822   0.713 -0.6498 -0.8094 -0.7928
19941TIP3    H281239   5.142   1.723   0.796  0.1271 -1.1143 -0.4072
19942TIP3   OH281240   6.262   4.346  13.872  0.6662 -0.1795 -0.3316
19942TIP3    H181241   6.263   4.286  13.946  1.4052  0.1596 -0.0595
19942TIP3    H281242   6.260   4.434  13.911  1.4456  0.0120 -0.6885
19943TIP3   OH281243   4.054   0.112   2.004  0.4117  0.2059 -0.0181
19943TIP3    H181244   3.983   0.072   2.054  1.5539 -0.6253  0.9706
19943TIP3    H281245   4.009   0.164   1.937 -1.1242 -0.2666  0.6050
19944TIP3   OH281246   2.098   5.121  13.252 -0.5105 -0.3212 -0.6436
19944TIP3    H181247   2.158   5.054  13.285 -0.8815 -0.8603 -1.0413
19944TIP3    H281248   2.121   5.200  13.300  2.7961  0.4334 -3.1154
19945TIP3   OH281249   1.281   3.198   3.335  0.0297  0.1000 -0.4755
19945TIP3    H181250   1.236   3.263   3.281 -0.1437 -0.1586 -0.6424
19945TIP3    H281251   1.228   3.119   3.327  0.9238 -0.4346 -1.2840
19946TIP3   OH281252   5.065   1.381  14.576  0.0660 -0.0482 -0.2715
19946TIP3    H181253   5.102   1.296  14.602  0.4180  0.3001  0.3820
19946TIP3    H281254   5.118   1.446  14.623 -1.2517  0.4730  0.5692
19947TIP3   OH281255   5.473   3.484   2.165 -0.5416 -0.4167 -0.7214
19947TIP3    H181256   5.554   3.508   2.120 -0.5243  0.9829  0.0127
19947TIP3    H281257   5.494   3.488   2.258 -1.8883  1.8870 -0.4212
19948TIP3   OH281258   3.821   5.699   1.920  0.2611  0.0786  0.0063
19948TIP3    H181259   3.880   5.750   1.864  1.1635 -0.8119  0.1267
19948TIP3    H281260   3.878   5.657   1.984 -0.2804 -2.0440 -0.8155
19949TIP3   OH281261   0.403   6.647  14.889  0.1669  0.0219  0.1425
19949TIP3    H181262   0.368   6.695  14.964 -0.7911 -2.2298  1.2533
19949TIP3    H281263   0.486   6.609  14.921 -0.3339 -1.0975  0.1776
19950TIP3   OH281264   1.838   4.450   4.730 -0.1932  0.2758  0.9808
19950TIP3    H181265   1.859   4.534   4.772  0.3162  0.0128  1.2686
19950TIP3    H281266   1.755   4.465   4.686  0.2308  1.1404  0.4604
19951TIP3   OH281267   3.370   5.253   2.049 -0.1806  0.1551  0.3050
19951TIP3    H181268   3.371   5.333   1.997  1.2898 -0.3262 -0.5016
19951TIP3    H281269   3.311   5.271   2.122 -0.7556  1.5566 -0.4748
19952TIP3   OH281270   2.790   1.925   1.575 -0.2994 -0.1543  0.2439
19952TIP3    H181271   2.836   1.850   1.536  0.8071  0.8031 -0.3446
19952TIP3    H281272   2.721   1.946   1.512 -1.1998 -1.2149  0.8393
19953TIP3   OH281273   4.580   0.293  12.584  0.4150 -0.1410 -0.3141
19953TIP3    H181274   4.641   0.326  12.518  0.8411  0.1333  0.2054
19953TIP3    H281275   4.568   0.366  12.644  0.7661 -0.6747  0.4203
19954TIP3   OH281276   5.732   0.285  12.951  0.0757  0.3780 -0.4370
19954TIP3    H181277   5.718   0.341  13.027 -2.8548  1.5246 -1.6766
19954TIP3    H281278   5.827   0.279  12.943  0.4947  1.1804  2.5508
19955TIP3   OH281279   5.889   5.945  15.177  0.2554  0.2769  0.2445
19955TIP3    H181280   5.818   5.918  15.120  0.4224 -0.3157  0.3064
19955TIP3    H281281   5.881   6.040  15.183 -0.0981  0.2842 -0.3148
19956TIP3   OH281282   5.208   3.913   3.511  0.3052  0.1338 -0.6377
19956TIP3    H181283   5.173   3.978   3.572  2.0046 -0.6839  1.3335
19956TIP3    H281284   5.144   3.842   3.512  0.4000  0.0559  0.3486
19957LIG     O181285   3.368   3.788  16.637  0.1045  0.2607 -0.2683
19957LIG     O281286   3.513   3.166  16.545 -0.1800  0.4234  0.0120
19957LIG     O381287   3.356   3.383  16.411  0.0918 -0.4819 -1.0159
19957LIG     O481288   3.508   2.986  16.721  0.3041  0.4048  0.0798
19957LIG     O581289   3.133   3.691  16.548  0.3971  0.2987  0.4889
19957LIG     O681290   3.536   2.811  16.909  0.3788 -0.0597 -0.8158
19957LIG      N81291   3.643   3.671  16.519  0.2732 -0.0807 -0.2228
19957LIG     C181292   3.582   3.497  16.670  0.5867 -0.0482 -0.6876
19957LIG     C281293   3.531   3.397  16.567 -0.1016  0.2216  0.6313
19957LIG     C381294   3.532   3.475  16.818 -0.7570  0.0198 -0.2684
19957LIG     C481295   3.559   3.643  16.634 -0.2477  0.3256 -0.0016
19957LIG     C581296   3.516   3.331  16.859 -0.7019 -0.2180 -0.0594
19957LIG     C681297   3.514   3.261  16.624  0.0162  0.6795 -0.0490
19957LIG     C781298   3.513   3.226  16.772  0.1750  0.1424  0.7886
19957LIG     C881299   3.403   3.439  16.508  0.4854 -0.0907  0.4346
19957LIG     C981300   3.411   3.660  16.599  0.9379 -0.2676  0.0119
19957LIG    C1081301   3.334   3.560  16.551  0.0345  0.2644 -0.1373
19957LIG    C1181302   3.516   3.309  16.994 -0.1204  0.7227 -0.3699
19957LIG    C1281303   3.522   3.090  16.811  0.3121  0.6500 -0.2538
19957LIG    C1381304   3.519   3.166  17.040 -0.9732 -0.4218 -0.2562
19957LIG    C1481305   3.526   3.063  16.947 -0.7410  0.0226  0.0527
19957LIG    C1581306   3.508   3.431  17.087 -0.0885 -0.3940  0.2955
19957LIG    C1681307   3.187   3.587  16.515 -0.4447 -0.3814 -0.4683
19957LIG    C1781308   3.539   2.925  16.994  0.9257  0.4914  0.0968
19957LIG    C1881309   3.525   3.137  17.180  0.3584  0.5779  0.1860
19957LIG    C1981310   3.525   2.897  17.133  0.6502  0.4575  0.5204
19957LIG    C2081311   3.522   3.006  17.224  1.2708 -0.5457 -1.0503
19957LIG    C2181312   3.101   3.489  16.448 -0.6036 -0.3473  0.0441
19957LIG    C2281313   3.449   3.895  16.589  0.6930  0.5773  0.1183
19957LIG    C2381314   3.526   2.763  17.185  0.7654 -0.7746  0.4763
19957LIG     H181315   3.689   3.470  16.683  0.1740 -1.2821  0.2716
19957LIG     H281316   3.596   3.392  16.477 -0.2618  0.0302  0.5260
19957LIG     H381317   3.432   3.521  16.834  0.2427  2.0904  0.4104
19957LIG     H481318   3.608   3.525  16.881  0.5827 -0.4119 -1.4963
19957LIG     H581319   3.580   3.707  16.722 -1.0098  1.4494 -0.6043
19957LIG     H681320   3.737   3.650  16.552 -0.7518 -1.2186  2.2324
19957LIG     H781321   3.625   3.611  16.439  4.0268  0.1651 -1.4362
19957LIG     H881322   3.470   3.402  17.187 -0.2417  2.8666  1.3096
19957LIG     H981323   3.446   3.515  17.048  1.1186  0.6598  0.5823
19957LIG    H1081324   3.609   3.475  17.103  0.2970 -1.8884  2.3672
19957LIG    H1181325   3.534   3.217  17.253  2.0664  0.3799  0.2256
19957LIG    H1281326   3.500   3.025  16.633 -0.8224  0.8151  0.3528
19957LIG    H1381327   3.508   2.978  17.327 -3.6538  0.7649 -1.1397
19957LIG    H1481328   3.107   3.389  16.496 -0.1980 -1.2464 -1.7966
19957LIG    H1581329   3.118   3.482  16.338  0.0124  0.4481  0.0732
19957LIG    H1681330   2.993   3.514  16.452 -0.9563 -1.4765 -1.2960
19957LIG    H1781331   3.545   3.903  16.645  1.3479  1.0042 -1.0322
19957LIG    H1881332   3.394   3.988  16.617  1.3616  0.5112  1.8125
19957LIG    H1981333   3.461   3.891  16.479  1.6597  1.3041  0.1775
19957LIG    H2081334   3.465   2.768  17.278 -2.2863 -1.0802 -1.3813
19957LIG    H2181335   3.630   2.736  17.214  0.6773  1.1528  2.9775
19957LIG    H2281336   3.472   2.690  17.121  0.8940  0.2809 -0.8745
19957LIG    H2381337   3.515   2.845  16.822 -0.4941 -1.6125 -1.2316
   6.79184   6.79184  17.20829
